LAMMPS (3 Mar 2020)

# ---------- 1. Initialize simulation ----------
units metal
atom_style atomic
dimension 3
boundary p p p
read_data /home/modeler/RemLabs/Project/eval_timestep_nvt/n3_T1800_timestep8.118884e-04_steps18476/20201205-225002/lammps.data
  orthogonal box = (0 0 0) to (17.469 17.469 17.469)
  1 by 1 by 1 MPI processor grid
  reading atoms ...
  217 atoms
  read_data CPU = 0.000956188 secs

pair_style meam/c
pair_coeff * * library.meam Li Si LiSi.meam Li Si
Reading potential file library.meam with DATE: 2012-06-29
Reading potential file LiSi.meam with DATE: 2020-11-07

group Li type 1
1 atoms in group Li

velocity all create 1800 3320 dist gaussian

# ---------- 2. Describe computed properties----------
compute msdli Li msd
thermo_style custom step pe ke etotal temp press density c_msdli[4]
thermo 100

# ---------- 3. Specify ensemble  ----------
# fix 1 all npt temp 1800 1800 0.04059441847971802 tchain 2 iso 1.0 1.0 1.0 pchain 2
fix 1 all nvt temp 1800 1800 0.04059441847971802
# fix 1 all nve

# ---------- 4. Run -------------
timestep 0.0008118883695943604
run 18476
Neighbor list info ...
  update every 1 steps, delay 10 steps, check yes
  max neighbors/atom: 2000, page size: 100000
  master list distance cutoff = 6
  ghost atom cutoff = 6
  binsize = 3, bins = 6 6 6
  2 neighbor lists, perpetual/occasional/extra = 2 0 0
  (1) pair meam/c, perpetual
      attributes: full, newton on
      pair build: full/bin/atomonly
      stencil: full/bin/3d
      bin: standard
  (2) pair meam/c, perpetual, half/full from (1)
      attributes: half, newton on
      pair build: halffull/newton
      stencil: none
      bin: none
Per MPI rank memory allocation (min/avg/max) = 9.27 | 9.27 | 9.27 Mbytes
Step PotEng KinEng TotEng Temp Press Density c_msdli[4] 
       0   -951.04357    50.256344   -900.78722         1800   -114161.75    1.8918427            0 
     100   -917.36845    31.500282   -885.86817    1128.2259   -79020.669    1.8918427  0.015917097 
     200   -908.48636    48.273942   -860.21242    1728.9975   -69807.844    1.8918427   0.13287021 
     300   -895.39591    48.575394   -846.82051    1739.7944   -58757.207    1.8918427    1.0018125 
     400   -908.93684     57.78913   -851.14771    2069.7971   -68144.443    1.8918427   0.20544811 
     500   -905.84492    49.247157   -856.59777    1763.8546   -62967.201    1.8918427  0.036592134 
     600   -901.91628    47.600824   -854.31546    1704.8889   -63428.607    1.8918427   0.19233757 
     700   -904.87051     53.17263   -851.69788    1904.4508   -66315.723    1.8918427   0.21362079 
     800   -906.64494    49.616565   -857.02837    1777.0854   -65899.548    1.8918427  0.029484719 
     900   -901.04616    49.455718   -851.59044    1771.3245   -60013.375    1.8918427  0.091108646 
    1000   -899.94073    56.646287   -843.29444    2028.8646   -59038.749    1.8918427  0.089254409 
    1100    -908.5181    53.345995    -855.1721    1910.6601   -68724.395    1.8918427   0.14325236 
    1200   -904.60701    51.321348   -853.28566    1838.1446   -63928.154    1.8918427  0.028860901 
    1300   -902.69504    51.712261   -850.98278    1852.1457   -64346.074    1.8918427  0.048589606 
    1400   -904.38601    46.224461   -858.16155    1655.5925   -66126.093    1.8918427   0.13803313 
    1500   -900.88137    46.988589   -853.89278    1682.9609    -62216.66    1.8918427  0.068463554 
    1600   -900.97011    52.906864   -848.06325     1894.932   -62965.804    1.8918427  0.065859025 
    1700   -902.02986     47.55714   -854.47272    1703.3243   -62852.555    1.8918427   0.30587156 
    1800   -905.93577    50.848929   -855.08684    1821.2242   -66965.493    1.8918427  0.088154743 
    1900   -897.36427    53.657759   -843.70651    1921.8263   -57924.431    1.8918427   0.18940824 
    2000   -906.53321    53.185735   -853.34748    1904.9202   -66891.494    1.8918427   0.10309389 
    2100   -902.36496    48.966846   -853.39811    1753.8148   -61863.919    1.8918427   0.14443018 
    2200   -908.14264     52.17618   -855.96646    1868.7615   -68185.123    1.8918427   0.48384644 
    2300   -907.59131    53.512199   -854.07911    1916.6129   -69531.443    1.8918427  0.090222236 
    2400   -902.18634    55.577295   -846.60904    1990.5771   -60688.327    1.8918427   0.16158952 
    2500   -905.99653    48.535759   -857.46077    1738.3749   -67365.784    1.8918427   0.38450389 
    2600   -904.42457    51.634513   -852.79006     1849.361   -64236.681    1.8918427   0.71731195 
    2700   -904.36942    56.354224    -848.0152    2018.4039   -64355.992    1.8918427   0.85245055 
    2800   -899.69007    51.460397   -848.22967    1843.1248   -62857.151    1.8918427    0.4195056 
    2900     -901.257    47.460499    -853.7965    1699.8629   -66304.079    1.8918427   0.21508208 
    3000   -904.85647    50.626293   -854.23017    1813.2502   -66190.633    1.8918427   0.56192936 
    3100   -904.97306    50.636568   -854.33649    1813.6182   -68197.425    1.8918427     1.029213 
    3200   -901.21441    53.150224   -848.06419    1903.6483   -64267.055    1.8918427   0.61310571 
    3300   -906.48629    48.394803   -858.09149    1733.3263   -68944.073    1.8918427   0.94261296 
    3400   -906.64115    51.547344   -855.09381    1846.2389   -68417.958    1.8918427   0.27765812 
    3500   -903.62911     54.66512   -848.96399    1957.9063   -63906.528    1.8918427   0.36912605 
    3600   -901.98679     47.99739    -853.9894    1719.0924   -65140.078    1.8918427     1.695466 
    3700   -908.08451    46.633865   -861.45064    1670.2559   -70736.976    1.8918427    1.3754101 
    3800   -900.99283    49.535271   -851.45756    1774.1738   -65232.584    1.8918427    5.0502628 
    3900   -904.26059    50.413201   -853.84739    1805.6181    -68178.19    1.8918427    7.1140822 
    4000   -903.90327    49.621769    -854.2815    1777.2718   -66696.992    1.8918427     6.207087 
    4100   -898.44059    52.226198   -846.21439     1870.553   -62089.661    1.8918427    3.7412865 
    4200   -902.13456    47.203947   -854.93061    1690.6742   -66056.457    1.8918427    7.2274574 
    4300   -904.37949    51.890614   -852.48887    1858.5336    -68977.13    1.8918427    2.7511988 
    4400   -898.40424    50.644472   -847.75977    1813.9013   -59178.404    1.8918427    2.9883431 
    4500   -905.53417    51.658665    -853.8755     1850.226   -69186.996    1.8918427    3.2893257 
    4600   -905.60453    46.856599   -858.74793    1678.2335   -71032.142    1.8918427    7.5636022 
    4700   -900.44169    49.870423   -850.57127    1786.1777   -64467.689    1.8918427    9.2343278 
    4800   -902.89455    47.907684   -854.98687    1715.8795   -66220.899    1.8918427      3.34313 
    4900   -904.27486    51.728137   -852.54672    1852.7143   -65979.904    1.8918427    3.7082605 
    5000   -893.21468    51.109453   -842.10523    1830.5553   -58207.733    1.8918427    1.6034874 
    5100   -903.17015     52.76056   -850.40959    1889.6919   -64476.636    1.8918427       2.9377 
    5200    -903.4184    50.119208   -853.29919    1795.0883   -67834.513    1.8918427    3.0768744 
    5300   -902.76695     47.09061   -855.67634    1686.6149   -66095.465    1.8918427    14.549994 
    5400   -903.42846    54.026228   -849.40223    1935.0236   -62966.977    1.8918427     14.49396 
    5500   -903.40404    51.153936    -852.2501    1832.1485   -67008.384    1.8918427    8.4685624 
    5600   -905.48742    48.891484   -856.59594    1751.1156   -67461.522    1.8918427    8.7768021 
    5700   -899.11491    48.074304   -851.04061    1721.8472   -66527.479    1.8918427    13.635402 
    5800   -900.76009    52.079705   -848.68038    1865.3062   -65357.547    1.8918427    19.505336 
    5900   -905.53637    50.196278   -855.34009    1797.8486    -68835.82    1.8918427    16.925212 
    6000   -907.24263     54.66098   -852.58165    1957.7581   -68134.682    1.8918427      11.1384 
    6100   -899.68889    49.195301   -850.49359    1761.9973   -65233.635    1.8918427    5.5805422 
    6200   -908.40522    58.772441   -849.63278    2105.0157   -70541.776    1.8918427    4.9164406 
    6300    -902.3853    44.474556   -857.91074    1592.9173   -66311.552    1.8918427    9.7287573 
    6400    -901.6872    49.335733   -852.35147     1767.027   -64783.413    1.8918427    12.799778 
    6500   -902.22392    50.751002   -851.47292    1817.7168   -66016.053    1.8918427    10.127076 
    6600   -901.35812     50.27144   -851.08668    1800.5407   -65697.936    1.8918427     5.812166 
    6700    -904.1729    48.386164   -855.78674    1733.0169   -67858.711    1.8918427    3.3272511 
    6800   -901.01117    49.617812   -851.39336    1777.1301   -65015.122    1.8918427    6.4786482 
    6900   -897.94034    48.798019   -849.14232    1747.7681    -62583.11    1.8918427    5.6410464 
    7000   -905.00863    54.244787   -850.76385    1942.8515   -66842.089    1.8918427    5.6918011 
    7100   -903.88869    49.836363   -854.05233    1784.9578   -64378.878    1.8918427    4.2737812 
    7200   -899.26035    52.040093   -847.22026    1863.8874   -63962.048    1.8918427    5.3136515 
    7300   -900.09207    50.012433   -850.07964     1791.264   -65508.675    1.8918427    5.3286648 
    7400   -904.78215     50.42022   -854.36193    1805.8694   -69414.998    1.8918427    6.8192233 
    7500   -897.44933    47.081014   -850.36831    1686.2712   -63487.977    1.8918427    4.7656199 
    7600   -902.25923    50.465765   -851.79347    1807.5007   -65474.726    1.8918427    6.7325057 
    7700   -903.72376    53.280896   -850.44286    1908.3285   -67563.667    1.8918427    5.6316307 
    7800   -897.21076    52.989006   -844.22176     1897.874   -63112.885    1.8918427    11.478168 
    7900   -905.00335    50.661884   -854.34146     1814.525   -69025.225    1.8918427    7.1017911 
    8000   -904.37668    49.210785    -855.1659    1762.5518   -68761.385    1.8918427    2.0338308 
    8100    -903.7057    53.356351   -850.34935     1911.031   -67757.053    1.8918427    12.250661 
    8200   -903.72582    51.771537   -851.95429    1854.2687   -67608.969    1.8918427    13.273949 
    8300   -907.53423    47.748955   -859.78527    1710.1944   -72592.166    1.8918427    3.2564132 
    8400   -907.14693    53.310149   -853.83678    1909.3762   -71357.467    1.8918427    3.8539432 
    8500   -902.40079    54.303542   -848.09725    1944.9559   -67573.975    1.8918427    5.9992751 
    8600   -903.86012     48.96948   -854.89064    1753.9092   -69870.407    1.8918427    6.9859745 
    8700   -902.44934    47.711182   -854.73815    1708.8415   -69896.551    1.8918427    9.4023821 
    8800   -902.10178    49.136639   -852.96514    1759.8962   -67224.119    1.8918427    4.1224566 
    8900   -899.54446    52.793454   -846.75101    1890.8701   -64468.756    1.8918427    4.2891194 
    9000   -900.09171    55.425858   -844.66585    1985.1532   -61433.074    1.8918427    7.2816416 
    9100   -902.15381    47.343822   -854.80998     1695.684   -66968.852    1.8918427    10.987924 
    9200    -901.8779    53.681427   -848.19647    1922.6741   -63753.561    1.8918427    4.1523327 
    9300   -904.02667    49.408208   -854.61846    1769.6228   -68544.038    1.8918427    6.2403396 
    9400   -908.94326    49.378734   -859.56453    1768.5672   -72626.322    1.8918427    5.6977989 
    9500   -897.26885    48.686787   -848.58206    1743.7841    -62714.42    1.8918427    3.8904849 
    9600   -900.26186    50.857818   -849.40404    1821.5426    -65043.06    1.8918427    4.1119591 
    9700   -909.23944    52.008508   -857.23093    1862.7561   -73157.684    1.8918427    7.3902174 
    9800   -905.02918    48.886992   -856.14219    1750.9548   -68803.281    1.8918427    11.525095 
    9900   -899.75715    51.282442   -848.47471    1836.7511   -63379.109    1.8918427    8.7579157 
   10000    -901.4439    48.087104    -853.3568    1722.3057   -70146.174    1.8918427     5.536386 
   10100   -903.46699    46.541403   -856.92559    1666.9443   -67152.124    1.8918427     4.970956 
   10200   -895.14476    48.647863    -846.4969      1742.39   -59514.258    1.8918427    5.6927221 
   10300   -903.10057    50.673833   -852.42674    1814.9529   -68290.615    1.8918427    5.2029712 
   10400    -901.0519    46.449433   -854.60247    1663.6502   -67323.069    1.8918427    5.0504683 
   10500   -905.19252    54.800911    -850.3916    1962.7699   -68069.372    1.8918427    8.0835978 
   10600    -892.6024    51.552575   -841.04982    1846.4263   -57025.915    1.8918427    8.9681653 
   10700   -905.52122      53.3183   -852.20292    1909.6682   -69948.987    1.8918427    12.289677 
   10800    -902.4947    47.229969   -855.26473    1691.6062   -67887.637    1.8918427    25.706351 
   10900   -900.18237    54.118197   -846.06417    1938.3176   -63723.447    1.8918427     19.63256 
   11000   -901.54136    51.198535   -850.34282    1833.7458   -66144.922    1.8918427    14.848452 
   11100   -902.89572    50.488079   -852.40765    1808.2999   -67559.323    1.8918427     18.19237 
   11200   -900.26729    48.221247   -852.04604    1727.1102   -67650.808    1.8918427    17.957135 
   11300   -897.87317     50.68613   -847.18704    1815.3933   -65756.173    1.8918427    19.579137 
   11400   -901.29795    50.072829   -851.22512    1793.4271   -65087.791    1.8918427     18.73314 
   11500   -905.99156    54.281121   -851.71044    1944.1529   -67646.366    1.8918427    14.431495 
   11600   -904.24209    52.856601   -851.38549    1893.1318    -67351.79    1.8918427    16.828718 
   11700   -900.22947    49.859372    -850.3701    1785.7819   -66358.968    1.8918427    18.621264 
   11800   -898.31257    43.030844   -855.28172    1541.2088   -62193.761    1.8918427       20.855 
   11900   -902.28927    50.210028   -852.07924    1798.3411   -64895.293    1.8918427    12.655745 
   12000   -899.65395    57.312841   -842.34111    2052.7381   -61118.749    1.8918427    16.111415 
   12100   -901.72097    53.179253   -848.54172     1904.688    -66789.79    1.8918427     23.26326 
   12200   -902.15007    49.091414   -853.05865    1758.2764   -68991.476    1.8918427    23.584555 
   12300   -903.55476    52.214445   -851.34031    1870.1321    -71175.99    1.8918427    18.088735 
   12400   -899.32245    54.847677   -844.47477    1964.4449   -61891.694    1.8918427    14.238381 
   12500   -900.64626    48.828204   -851.81805    1748.8492   -68181.728    1.8918427    17.528371 
   12600   -901.99231    48.333228   -853.65908    1731.1209   -67882.644    1.8918427    16.465717 
   12700   -903.82104    45.739025   -858.08201     1638.206   -70966.752    1.8918427    17.149673 
   12800   -898.33812    49.318693   -849.01943    1766.4167   -63749.711    1.8918427     17.56362 
   12900   -903.78455    53.802774   -849.98177    1927.0203   -65687.154    1.8918427    17.392594 
   13000   -903.97082    48.149796   -855.82102    1724.5511   -67877.766    1.8918427     13.81861 
   13100   -902.79509     53.55709     -849.238    1918.2207   -66191.399    1.8918427    18.646804 
   13200   -901.55166    45.790117   -855.76154    1640.0359   -66037.075    1.8918427    21.332508 
   13300    -906.1153    46.270217   -859.84509    1657.2314   -71956.398    1.8918427    13.194683 
   13400    -896.8206    47.241289   -849.57931    1692.0117   -61757.312    1.8918427    13.989118 
   13500   -899.89724    47.480932   -852.41631    1700.5948   -65991.763    1.8918427    20.724292 
   13600   -900.35439    46.109632   -854.24476    1651.4798    -67003.78    1.8918427    17.474645 
   13700   -898.93129    52.691521   -846.23977    1887.2192   -64876.227    1.8918427    16.482787 
   13800   -904.04536    48.382061    -855.6633      1732.87   -68044.485    1.8918427    17.812725 
   13900   -904.16727    51.366659   -852.80061    1839.7675   -68935.737    1.8918427    15.947389 
   14000   -901.40606    52.601374   -848.80469    1883.9905   -66753.612    1.8918427     20.94388 
   14100   -899.15803    56.087195   -843.07083    2008.8399   -66920.057    1.8918427    19.853806 
   14200    -902.0479    49.529592   -852.51831    1773.9704   -64926.424    1.8918427    24.261615 
   14300   -903.09729    50.970924   -852.12637    1825.5937   -65980.177    1.8918427    20.117325 
   14400   -899.91878    57.989297   -841.92948    2076.9663   -60675.227    1.8918427    20.255055 
   14500   -901.15996    49.929836   -851.23012    1788.3057   -64543.524    1.8918427    21.163692 
   14600   -902.74646    47.817974   -854.92848    1712.6664   -64573.743    1.8918427    20.053697 
   14700   -897.81961    50.444605     -847.375    1806.7428   -62158.668    1.8918427    23.733493 
   14800   -902.95176    58.067217   -844.88454    2079.7571   -63513.658    1.8918427    27.255504 
   14900   -903.32335    52.811386   -850.51196    1891.5123   -64279.795    1.8918427    28.958732 
   15000   -905.46502     50.26609   -855.19893    1800.3491   -70356.701    1.8918427    24.616571 
   15100   -901.04155    52.020421   -849.02113    1863.1828   -63535.534    1.8918427      27.5023 
   15200   -907.50264      50.0643   -857.43834    1793.1217   -70455.491    1.8918427    26.036805 
   15300   -903.74738    46.990876    -856.7565    1683.0428   -67122.548    1.8918427    28.335673 
   15400   -902.59495    51.056778   -851.53817    1828.6686   -67430.742    1.8918427    22.421529 
   15500   -897.37957    52.900424   -844.47915    1894.7013   -58320.326    1.8918427    22.952864 
   15600   -900.23135    49.615565   -850.61579    1777.0496   -67301.811    1.8918427    25.196035 
   15700   -900.21278    49.245425   -850.96735    1763.7925   -66166.635    1.8918427    28.231133 
   15800   -901.02144    49.502261   -851.51918    1772.9915   -65217.677    1.8918427    28.704162 
   15900   -901.07089    48.450208   -852.62068    1735.3107   -65376.852    1.8918427      28.6312 
   16000   -899.48959    54.814922   -844.67467    1963.2717   -62932.237    1.8918427    25.314945 
   16100   -904.79336    52.174113   -852.61924    1868.6875   -66637.336    1.8918427    24.854768 
   16200   -904.41487     51.38054   -853.03433    1840.2646   -68421.712    1.8918427    26.208766 
   16300   -902.02005    50.657391   -851.36266    1814.3641   -64454.854    1.8918427    22.017244 
   16400   -897.62839    55.119957   -842.50844     1974.197   -59503.742    1.8918427    20.986508 
   16500   -904.41472     51.37599   -853.03873    1840.1017   -66316.377    1.8918427    20.201922 
   16600   -903.99025    49.484212   -854.50604     1772.345   -68802.762    1.8918427    21.487267 
   16700   -897.90282     50.59583   -847.30699    1812.1591   -64839.892    1.8918427    20.578718 
   16800   -901.40359    50.974343   -850.42925    1825.7161   -65428.037    1.8918427    21.527822 
   16900   -900.87362    49.514642   -851.35897    1773.4349   -66728.373    1.8918427    19.631623 
   17000    -898.9492    48.058731   -850.89047    1721.2895    -64935.79    1.8918427    23.555736 
   17100   -901.44582    46.720405   -854.72542    1673.3555   -65290.742    1.8918427    31.438972 
   17200   -902.39226    53.253335   -849.13893    1907.3413   -65250.521    1.8918427    33.630537 
   17300   -899.49778    48.089944   -851.40784    1722.4074   -64042.594    1.8918427    33.019701 
   17400   -905.82252    45.407165   -860.41536      1626.32   -68461.068    1.8918427    32.010726 
   17500   -905.65746    50.922829   -854.73463    1823.8711   -70576.658    1.8918427     29.19047 
   17600   -901.09746    51.090091   -850.00737    1829.8618   -64547.875    1.8918427    32.229383 
   17700   -904.42388     52.25265   -852.17123    1871.5004   -66090.281    1.8918427    31.547994 
   17800   -904.74748    49.625966   -855.12151    1777.4221   -69039.679    1.8918427    28.759929 
   17900   -901.41432    51.021739   -850.39258    1827.4137   -66105.695    1.8918427    27.477875 
   18000   -901.97105    45.353279   -856.61777      1624.39    -65725.59    1.8918427    29.011732 
   18100    -902.4567    45.548258   -856.90845    1631.3734   -68664.696    1.8918427    35.329231 
   18200   -901.76683    50.011943   -851.75488    1791.2464   -68374.188    1.8918427    33.204487 
   18300   -901.53993    50.545534    -850.9944    1810.3577   -65981.717    1.8918427    33.919522 
   18400   -898.66214    51.969275   -846.69287    1861.3509   -64721.121    1.8918427    35.645597 
   18476    -904.9218    49.606569   -855.31523    1776.7274    -69582.15    1.8918427    33.593453 
Loop time of 10.0505 on 1 procs for 18476 steps with 217 atoms

Performance: 128.953 ns/day, 0.186 hours/ns, 1838.320 timesteps/s
100.0% CPU use with 1 MPI tasks x no OpenMP threads

MPI task timing breakdown:
Section |  min time  |  avg time  |  max time  |%varavg| %total
---------------------------------------------------------------
Pair    | 9.7397     | 9.7397     | 9.7397     |   0.0 | 96.91
Neigh   | 0.12572    | 0.12572    | 0.12572    |   0.0 |  1.25
Comm    | 0.080073   | 0.080073   | 0.080073   |   0.0 |  0.80
Output  | 0.0052689  | 0.0052689  | 0.0052689  |   0.0 |  0.05
Modify  | 0.076355   | 0.076355   | 0.076355   |   0.0 |  0.76
Other   |            | 0.02334    |            |       |  0.23

Nlocal:    217 ave 217 max 217 min
Histogram: 1 0 0 0 0 0 0 0 0 0
Nghost:    893 ave 893 max 893 min
Histogram: 1 0 0 0 0 0 0 0 0 0
Neighs:    3605 ave 3605 max 3605 min
Histogram: 1 0 0 0 0 0 0 0 0 0
FullNghs:  7210 ave 7210 max 7210 min
Histogram: 1 0 0 0 0 0 0 0 0 0

Total # of neighbors = 7210
Ave neighs/atom = 33.2258
Neighbor list builds = 229
Dangerous builds = 0
Total wall time: 0:00:10
