LAMMPS (3 Mar 2020)
Reading data file ...
  orthogonal box = (0 0 0) to (12.27 12.27 12.27)
  1 by 1 by 1 MPI processor grid
  reading atoms ...
  108 atoms
  read_data CPU = 0.000893433 secs
Reading potential file /usr/share/lammps-stable/potentials/Ag_u3.eam with DATE: 2007-06-11
Neighbor list info ...
  update every 1 steps, delay 10 steps, check yes
  max neighbors/atom: 2000, page size: 100000
  master list distance cutoff = 7.55
  ghost atom cutoff = 7.55
  binsize = 3.775, bins = 4 4 4
  2 neighbor lists, perpetual/occasional/extra = 1 1 0
  (1) pair eam, perpetual
      attributes: half, newton on
      pair build: half/bin/atomonly/newton
      stencil: half/bin/3d/newton
      bin: standard
  (2) compute rdf, occasional, copy from (1)
      attributes: half, newton on
      pair build: copy
      stencil: none
      bin: none
Setting up Verlet run ...
  Unit style    : metal
  Current step  : 0
  Time step     : 0.005
Per MPI rank memory allocation (min/avg/max) = 3.723 | 3.723 | 3.723 Mbytes
Step PotEng KinEng TotEng Temp Press Density c_msdall[4] 
       0       -307.8     17.05342   -290.74658         1233    9860.3957    10.472245            0 
     100   -295.84053    7.5416917   -288.29884    545.28099   -2731.6884    9.9595216  0.073246904 
     200   -294.90275    9.0081099   -285.89464    651.30627   -6236.4114    9.8754285  0.089392827 
     300   -294.49858     10.77923   -283.71935    779.36214    10637.467    10.018193  0.081385397 
     400    -295.0476    13.472963   -281.57464    974.12504    -2116.494    9.8881795  0.092020837 
     500   -291.78583    12.433437   -279.35239    898.96498   -7526.4928    9.7000143   0.11978592 
     600   -292.99329    15.621958   -277.37133    1129.5021   -3096.7583    9.7909976   0.11352025 
     700   -290.87829    15.915265   -274.96303    1150.7089    15185.811    9.9049856   0.14545579 
     800    -288.4196    15.303715   -273.11589    1106.4925   -584.65112    9.6265811   0.15450183 
     900     -287.926    16.864175   -271.06183    1219.3172   -16907.612    9.4272044    0.1708246 
    1000   -285.43311    16.788477   -268.64463     1213.844   -2424.4634    9.4884141   0.20414184 
    1100   -284.58794    18.676698   -265.91124    1350.3666    5678.6469    9.4989303   0.20776905 
    1200   -285.27058    16.948024   -268.32256    1225.3796   -1903.6544    9.5061464    0.1859359 
    1300   -289.14343    17.899427     -271.244    1294.1681   -2874.1619    9.6200926   0.14103889 
    1400   -286.66985    17.671664   -268.99819    1277.7004    5756.0522    9.5907142   0.16173358 
    1500   -285.22524    18.101917   -267.12332    1308.8086    8913.7296    9.5855134   0.15917347 
    1600   -287.91472    16.467501   -271.44722    1190.6368    5866.8248    9.6598672   0.16575311 
    1700   -285.02146    15.683992   -269.33746    1133.9873   -2178.7689      9.46874   0.18193241 
    1800   -284.03898    17.498918   -266.54006    1265.2105   -4655.3552    9.3920314   0.24142887 
    1900   -288.81469    17.272112   -271.54258    1248.8119    9669.4027    9.7611596   0.15321981 
    2000   -288.94402    18.331866   -270.61216    1325.4344     4667.784     9.695604   0.17105025 
    2100    -285.3887    18.188533   -267.20017    1315.0712   -1704.8341    9.4919934   0.20272713 
    2200   -284.91676    16.297011   -268.61975    1178.3099    7619.5496    9.5955074   0.19572371 
    2300   -288.81027    16.399942   -272.41033    1185.7521    5641.7537    9.6998729    0.1393068 
    2400   -286.25873     17.51347   -268.74527    1266.2626   -5372.6659    9.4670073   0.18535461 
    2500   -284.71166     16.95751   -267.75415    1226.0655   -11079.421    9.3508735   0.23455503 
    2600   -289.49316    16.979349   -272.51381    1227.6445   -15016.711    9.5220347   0.16421139 
    2700   -288.46826     18.67846    -269.7898    1350.4939    13106.588    9.7721148   0.15758365 
    2800   -287.50093    19.978608   -267.52232    1444.4976    6524.0465    9.6554159   0.16320931 
    2900   -287.67276    16.728565    -270.9442    1209.5123   -3000.6038    9.5738432   0.15173769 
    3000   -288.10519    15.705887    -272.3993    1135.5704   -4787.0327    9.5864605   0.15041156 
    3100   -285.91069    18.535842   -267.37485    1340.1824   -316.14182    9.5071018   0.19008842 
    3200   -286.88319    17.324391    -269.5588    1252.5918     2634.362    9.5815021   0.15497051 
    3300   -286.67571    15.830026   -270.84568    1144.5459    5572.1432    9.6026107   0.18193939 
    3400   -283.89945    17.616659   -266.28279    1273.7234   -3673.6769     9.406836   0.19200088 
    3500   -286.85873    17.678318   -269.18041    1278.1815    4167.5656    9.6078038   0.18414411 
    3600   -290.76684    19.251902   -271.51493    1391.9551   -3882.5472    9.6777441   0.13317924 
    3700   -284.99208    17.766654   -267.22543    1284.5684    1798.8569    9.5111297   0.23224595 
    3800   -284.76484    17.737653   -267.02719    1282.4715     2966.947    9.5097644   0.23026871 
    3900   -287.48154    16.859514   -270.62203    1218.9802   -8242.7876    9.4963537   0.19485848 
    4000   -285.81457    16.443967   -269.37061    1188.9352    10823.119    9.6322151   0.19193165 
    4100   -283.01333    18.305731    -264.7076    1323.5448    -852.8059     9.399115   0.22340794 
    4200   -287.22637    18.113299   -269.11307    1309.6316   -13877.383    9.4101673    0.1790385 
    4300   -286.72952    16.585389   -270.14413    1199.1603     6780.699    9.6078196   0.18222314 
    4400   -284.60518    17.038635   -267.56655     1231.931    2184.4647    9.4948444   0.21019043 
    4500   -283.56018    18.716176     -264.844    1353.2209    -7167.955    9.3451991   0.22327533 
    4600   -286.28833    16.426084   -269.86225    1187.6422    7199.7731     9.623305   0.18888828 
    4700   -287.51206    17.249825   -270.26224    1247.2005   -4429.4538     9.536883   0.17448647 
    4800   -284.55157    16.825573     -267.726    1216.5262   -410.96011    9.4540265   0.20933805 
    4900   -283.84483    19.031031    -264.8138    1375.9856    1363.0133    9.4426938   0.21205283 
    5000    -285.8329    16.437306    -269.3956    1188.4535    18950.012    9.7548538   0.17476052 
    5100   -286.45178    16.279102   -270.17268    1177.0151   -8523.9263    9.4546628   0.20204492 
    5200   -281.78475    15.450217   -266.33453    1117.0849   -4463.9917    9.3102915   0.26035445 
    5300   -281.80545    14.291514   -267.51393    1033.3081   -837.84617    9.3738255   0.27844343 
    5400    -285.0793    15.006271   -270.07303    1084.9866    9959.4292    9.6293992   0.19087002 
    5500   -288.18611    18.496381   -269.68972    1337.3293   -4602.0254    9.5605326   0.18253371 
    5600   -282.11175    18.070224   -264.04152    1306.5172   -2906.7969    9.3168899   0.28687475 
    5700   -286.05728    17.860657   -268.19663     1291.365    134.81411    9.5275618   0.21792932 
    5800   -287.25217    17.954087   -269.29808    1298.1202   -883.60307    9.5674076   0.17636505 
    5900   -285.76352    16.073162   -269.69036    1162.1252   -2192.4611    9.5018854   0.17710446 
    6000    -287.8935    14.814558   -273.07895    1071.1253     6158.691    9.6884311   0.19296838 
    6100   -287.77662    16.383891   -271.39273    1184.5916    9367.6483    9.7216902   0.14339414 
    6200   -286.45422    17.979218     -268.475    1299.9373    900.12751    9.5515648    0.1843525 
    6300   -284.57207    15.641591   -268.93047    1130.9216   -680.86735    9.4869799   0.21604648 
    6400   -288.13034    15.640325   -272.49002    1130.8301   -12588.058    9.5047087   0.19772445 
    6500   -288.60575    17.471269   -271.13448    1263.2114    8383.0205    9.7294217   0.14037577 
    6600   -285.23763    17.412762   -267.82487    1258.9812    6328.7147    9.5782541   0.21407968 
    6700   -287.58706    18.240901   -269.34616    1318.8575   -8497.2581    9.5154746   0.18132317 
    6800   -288.95771    16.472342   -272.48537    1190.9868   -517.88088    9.6573675    0.1307729 
    6900   -286.19398    17.751729   -268.44225    1283.4893    3973.3703     9.575262   0.18362123 
    7000   -286.60764    18.979365   -267.62828    1372.2501   -551.25379      9.53529   0.19463747 
    7100   -287.42898    15.491895   -271.93708    1120.0983    6505.6287    9.6770702     0.174786 
    7200   -287.06822    18.502915   -268.56531    1337.8017    2660.0397    9.5868943   0.18274999 
    7300   -285.57955    18.478058   -267.10149    1336.0045    7482.7679    9.6132143   0.19000553 
    7400   -288.93125    17.456301   -271.47495    1262.1292    10758.621    9.7384123   0.15464237 
    7500   -285.88502      14.8616   -271.02342    1074.5265   -6579.8054    9.4456625   0.19433936 
    7600   -284.44779    16.872461   -267.57533    1219.9162   -8572.0997    9.3797498   0.20373406 
    7700   -286.96557    17.127873    -269.8377    1238.3831   -3088.9156    9.5370939   0.16345601 
    7800   -289.88046    16.589799   -273.29066    1199.4792    1600.9428    9.7091041   0.13886348 
    7900    -286.7296    16.803329   -269.92627    1214.9178    1407.9089    9.5884968   0.18317572 
    8000   -287.01657    18.365512   -268.65106    1327.8672   -824.05585    9.5539095   0.19104568 
    8100   -286.95796    17.308753   -269.64921    1251.4611    -15163.98    9.4030118   0.20310304 
    8200   -287.96592    14.961105   -273.00482     1081.721    3371.8575    9.6750784   0.15678091 
    8300   -290.61434    17.089473   -273.52487    1235.6067   -3581.9093    9.6933025   0.16367732 
    8400    -286.0924    15.954198   -270.13821    1153.5238    -2777.543    9.5064292    0.1803916 
    8500   -285.41152    16.192448   -269.21907    1170.7498   -7808.2449    9.4159719   0.20015118 
    8600   -285.91671     17.22844   -268.68827    1245.6543    2495.6413    9.5408503   0.18499509 
    8700   -282.56772    19.889493   -262.67823    1438.0543    11357.074    9.5029053   0.20871881 
    8800   -284.74521    19.382872   -265.36234    1401.4245    2484.4092    9.5052603   0.19677684 
    8900   -285.08636    17.240898   -267.84546    1246.5551   -1303.2365     9.482261   0.19912143 
    9000   -285.42663    15.283028    -270.1436    1104.9967   -8134.9348    9.4359338   0.23860367 
    9100   -286.56209    17.842525   -268.71957     1290.054   -7064.9301     9.491736   0.21164323 
    9200   -283.33771     19.06476   -264.27295    1378.4243   -8498.6034    9.3263815   0.27583297 
    9300    -286.7735    17.565478   -269.20803    1270.0229    3002.9413    9.6198165   0.16922038 
    9400   -288.01251    18.616824   -269.39569    1346.0376     20791.25    9.8439508   0.14900317 
    9500   -285.95073    17.653915   -268.29682    1276.4171    2269.6747    9.5578928   0.19911763 
    9600   -282.40647    18.147083   -264.25938    1312.0743   -12024.814    9.2349153    0.2601872 
    9700   -285.97201    16.184104   -269.78791    1170.1465    8819.9074    9.6465658   0.17006014 
    9800   -288.59006    19.026592   -269.56347    1375.6647    13527.607    9.7778344   0.15878957 
    9900   -287.49675    18.463823   -269.03293    1334.9752   -4468.4288    9.5381591   0.19801374 
   10000   -281.84618    16.908469   -264.93771    1222.5197   -2464.9026     9.341537   0.24643305 
   10100   -285.70687    17.244129   -268.46274    1246.7886   -1529.0231    9.4934197   0.21604231 
   10200   -288.13174    18.107398   -270.02434    1309.2049   -984.54781    9.5845624   0.17424141 
   10300   -289.78052    20.345925   -269.43459    1471.0554    -882.7012    9.6472979    0.1512149 
   10400   -289.16627    17.236817   -271.92945      1246.26   -1693.7433    9.6403725   0.15479207 
   10500   -288.36661    14.703335   -273.66328    1063.0836    7372.0389    9.7107407   0.13955752 
   10600   -286.03466    16.709948   -269.32471    1208.1662   -7711.3575    9.4432489    0.2177315 
   10700   -284.96647    15.983935   -268.98253    1155.6738   -8896.9663    9.3966985   0.18891281 
   10800   -287.97803    15.715717   -272.26231    1136.2811    7374.9548    9.7022802   0.15996066 
   10900   -287.94856    17.077224   -270.87134    1234.7211    15744.711    9.7869672   0.15741229 
   11000   -285.73946    17.905525   -267.83394    1294.6091   -9951.6154    9.4059881   0.22157044 
   11100   -286.29789    18.441447   -267.85645    1333.3574    3618.7254    9.5680683   0.20707611 
   11200   -285.82625     17.68841   -268.13784    1278.9112    7125.9189    9.5976679   0.17561364 
   11300   -288.97737    16.505793   -272.47157    1193.4054   -7365.0521    9.5853493   0.15497234 
   11400   -286.33584    16.049774   -270.28606    1160.4342    2138.8314    9.5509139   0.17019392 
   11500    -284.3434    16.806481   -267.53691    1215.1458    1314.7965    9.4721324   0.19639043 
   11600   -286.16279    15.779087   -270.38371    1140.8629    3193.3805    9.5985485   0.17295859 
   11700    -288.8608     16.51077   -272.35003    1193.7652    86.945474    9.6599847   0.18388823 
   11800   -287.09727    17.851746   -269.24552    1290.7207   -1067.1175    9.5443174   0.17348209 
   11900   -284.99085    17.027826   -267.96302    1231.1495    -4051.275    9.4276247   0.18936431 
   12000   -287.80661    18.836557   -268.97006    1361.9247   -1178.7668    9.5877416     0.191777 
   12100   -290.64371    18.551937   -272.09177    1341.3461    14765.353    9.8671651   0.13548352 
   12200   -286.77421    16.391494   -270.38272    1185.1413    8840.4947    9.6533821   0.17786742 
   12300   -284.72045    16.668446     -268.052    1205.1655   -11396.097    9.3882711   0.20954859 
   12400   -286.25944    15.640333   -270.61911    1130.8307   -3646.9234     9.499671    0.2002375 
   12500   -288.17465    15.491373   -272.68327    1120.0605    5977.3007    9.6980934   0.15448274 
   12600   -287.17936    19.151918   -268.02744    1384.7261    5159.0631    9.6274687   0.17245251 
   12700   -285.66614    16.375875   -269.29026     1184.012    -5320.888    9.4783495   0.19240161 
   12800   -287.87581    14.657938   -273.21787    1059.8013   -11498.354    9.4891554   0.17428775 
   12900   -286.56254    17.762584   -268.79995    1284.2741    1764.9034    9.5859075   0.20563605 
   13000   -286.75064    18.862288   -267.88836    1363.7851    4652.8311    9.6025911   0.18048433 
   13100   -286.91274    15.138038    -271.7747    1094.5136   -3510.3602    9.5318277    0.1966336 
   13200   -287.18712    17.126726    -270.0604    1238.3002   -8923.3101    9.4725478   0.17729066 
   13300    -285.1752    18.141911   -267.03329    1311.7003    4215.9182    9.5226268   0.20098304 
   13400   -287.28135    16.681311   -270.60004    1206.0957    519.98376    9.5860945   0.16655469 
   13500   -288.20899    17.232003   -270.97699    1245.9119   -16193.538    9.4386425   0.17018432 
   13600   -285.54671    17.537357   -268.00936    1267.9897     1827.174    9.5303798   0.20669809 
   13700     -286.865    17.286712   -269.57829    1249.8675    11713.414    9.6862773   0.16390009 
   13800   -288.00839    15.392874   -272.61551    1112.9388    3381.5014    9.6687743   0.16654074 
   13900    -285.7709    16.962874   -268.80802    1226.4533   -9202.2311    9.4264459   0.22223098 
   14000   -287.62292    19.443352   -268.17957    1405.7973    -8747.162    9.5007701   0.17488871 
   14100   -289.17683    17.108623    -272.0682    1236.9913     7379.438    9.7610289    0.1455034 
   14200   -285.72604    16.490502   -269.23553    1192.2998    1169.1539     9.529397    0.1772286 
   14300   -286.78876    19.415468    -267.3733    1403.7813   -11470.254    9.4113119   0.18743186 
   14400   -286.04053    15.373511   -270.66702    1111.5389    5398.2924    9.6052384   0.21627399 
   14500   -283.07464    14.788289   -268.28635     1069.226    12342.646    9.5654106   0.23143166 
   14600   -284.24077    17.998534   -266.24223    1301.3338   -10055.764    9.3480339    0.2282025 
   14700   -285.23155    14.587268   -270.64429    1054.6917    1252.6096    9.5181513    0.2083412 
   14800   -288.29333    18.348666   -269.94467    1326.6492   -5547.8288     9.560422   0.18071378 
   14900    -288.3012    16.933287   -271.36791    1224.3141    7937.5012    9.6998671   0.18694059 
   15000   -290.32109    15.322909   -274.99818    1107.8802   -16791.901    9.5521257   0.13826299 
   15100   -284.41048    13.953281    -270.4572    1008.8531    2173.3071    9.4999288    0.2055162 
   15200   -287.67786     18.45243   -269.22543    1334.1515    1297.8521    9.6001212   0.17825467 
   15300   -286.21883    16.795387   -269.42344    1214.3437    15565.833    9.7203409   0.19571989 
   15400   -289.42554     15.01337   -274.41217    1085.4998   -9671.7759    9.5752801   0.16298216 
   15500   -286.17201    15.400146   -270.77187    1113.4646    749.71758    9.5710201   0.19927507 
   15600   -285.45711    16.808323   -268.64878     1215.279    4051.9252    9.5608709   0.20405832 
   15700   -286.54438    19.208074   -267.33631    1388.7862   -9550.2391     9.441352   0.18615237 
   15800   -284.06005     17.98585    -266.0742    1300.4168    879.77241    9.4604525   0.22079403 
   15900   -288.59332    17.415265   -271.17806    1259.1621    10195.975    9.7564215   0.13359041 
   16000    -286.0046    15.662493    -270.3421    1132.4329    7686.8263    9.6210685   0.21447946 
   16100   -284.01176    17.115932   -266.89583    1237.5197   -8162.5604    9.3863336    0.2455518 
   16200    -285.8018    15.156327   -270.64547     1095.836    3822.6267    9.5907819   0.22789218 
   16300   -286.87584    15.151742    -271.7241    1095.5044    6024.8319    9.6466706   0.17580959 
   16400   -282.73098    15.703562   -267.02742    1135.4022   -8985.6815    9.2990716   0.25318357 
   16500   -283.41105    16.306681   -267.10437    1179.0091    -15530.72     9.255718   0.25623918 
   16600   -287.02144    16.915861   -270.10558    1223.0542    7474.4135    9.6648969   0.20905999 
   16700   -285.95845    16.258099   -269.70035    1175.4965    15692.824    9.7229393   0.19380955 
   16800   -283.83982    18.824344   -265.01548    1361.0417    1888.8764    9.4587937   0.23031398 
   16900   -285.02575    16.908959   -268.11679    1222.5552   -10459.463    9.3814501   0.22189548 
   17000   -287.91157    17.091002   -270.82057    1235.7173   -8494.4407    9.5142283   0.17972709 
   17100   -288.73188    17.196916   -271.53496     1243.375    1599.2017    9.6700088   0.17398687 
   17200    -285.6687    19.293513   -266.37519    1394.9637   -3607.9715    9.4483341   0.17587715 
   17300   -286.34109     17.63987   -268.70122    1275.4016   -1706.2925    9.5402794   0.20287605 
   17400   -287.92349    16.702856   -271.22063    1207.6534    4094.2933    9.6551636   0.15774096 
   17500   -288.17227    16.250526   -271.92174     1174.949   -2507.1605    9.5944722   0.16650853 
   17600   -282.60366    15.829858    -266.7738    1144.5337    1375.6141     9.421248   0.25206843 
   17700   -286.04315    17.447322   -268.59582    1261.4799   -627.10372    9.5214867   0.20296081 
   17800   -288.53775    17.183942   -271.35381     1242.437   -5809.5089    9.5915146   0.17427822 
   17900   -286.90946     18.05656    -268.8529    1305.5292    18412.029    9.7780767   0.16686913 
   18000   -284.81432    17.612199   -267.20212     1273.401    1832.9393    9.5096843   0.19003526 
   18100   -286.71563    15.370908   -271.34472    1111.3506   -7611.2137    9.4862877   0.18408591 
   18200   -286.14399    16.435079   -269.70891    1188.2926    1445.5303     9.560484   0.16043028 
   18300   -285.52661     18.66413   -266.86248    1349.4579    5359.0736    9.5459557   0.17751331 
   18400   -288.19397    16.756754   -271.43722    1211.5503    7316.8891    9.7107709   0.13892623 
   18500   -287.18478     16.29551   -270.88927    1178.2014   -4414.0485    9.5555622   0.16748167 
   18600    -283.5047    16.442629   -267.06207    1188.8384    3686.8108    9.4766341   0.21798972 
   18700   -287.80617    18.302074   -269.50409    1323.2805    525.48837    9.5998036   0.19101636 
   18800   -287.37795    16.212928   -271.16502    1172.2306    32283.982    9.9439705   0.16363252 
   18900   -285.04111    17.264687   -267.77643    1248.2751   -7960.8443    9.4159875   0.21262073 
   19000   -285.82829    17.057466   -268.77082    1233.2925   -16052.911    9.3378096    0.1996507 
   19100   -287.20842    14.739316    -272.4691    1065.6852    9282.2378    9.6970613    0.1445758 
   19200   -285.70646    17.213581   -268.49288      1244.58    6890.2618    9.5967045   0.17288449 
   19300   -285.57068    18.885118   -266.68556    1365.4358    9500.9243    9.5998833   0.20835429 
   19400   -287.33478    15.748372   -271.58641    1138.6422   -7143.9035    9.5001054   0.17781076 
   19500   -286.03001    15.755663   -270.27434    1139.1693   -3928.2966    9.4892679   0.20050295 
   19600   -285.13848    17.375522   -267.76296    1256.2887    6698.0462    9.5638932    0.2146712 
   19700   -285.84065    15.922148   -269.91851    1151.2065   -1060.9564    9.5429201   0.21218707 
   19800   -288.67331    15.869199   -272.80411    1147.3782   -9106.7187    9.5438861   0.17966059 
   19900   -284.00733    15.102123   -268.90521    1091.9169   -1899.7289     9.435102   0.27640853 
   20000   -285.64444    17.805001   -267.83944    1287.3409    450.55802    9.5049301   0.21127398 
   20100   -287.03449    16.878577   -270.15591    1220.3584      20380.5    9.7998612   0.15387906 
   20200   -287.82002    15.904594   -271.91543    1149.9373      3477.08    9.6641757   0.17967797 
   20300   -283.93356    16.443264    -267.4903    1188.8844   -4358.9815    9.3942606   0.24632698 
   20400   -285.05499    17.972336   -267.08265    1299.4396   -8054.5639    9.3837575   0.23233028 
   20500   -286.86332    15.457265   -271.40606    1117.5945    9120.1769    9.6729738   0.18721388 
   20600   -287.37578    16.453626   -270.92215    1189.6336    9510.2887    9.6970733   0.16515776 
   20700   -285.50517    18.800998   -266.70418    1359.3537    -9759.714    9.3817063   0.19588621 
   20800   -286.95312    17.388379   -269.56474    1257.2183   -18678.338    9.3696163   0.18974791 
   20900   -290.36715    18.910946    -271.4562    1367.3033    6838.9068    9.7647838   0.13220235 
   21000   -286.33902    19.175625    -267.1634    1386.4401     6457.569    9.6305677   0.17522687 
   21100   -285.42705    18.012649    -267.4144    1302.3544    166.85714    9.5016799   0.22074147 
   21200   -288.32885    16.328093   -272.00076    1180.5573    2670.3164    9.6471108   0.16013726 
   21300   -286.96726    16.445145   -270.52212    1189.0204    758.15447     9.588283   0.17326777 
   21400   -286.36904    20.001067   -266.36798    1446.1214    1277.6316    9.5509789   0.18366359 
   21500   -287.11191    17.231933   -269.87997    1245.9068    3683.2575    9.6263913    0.1837208 
   21600   -285.34715    15.044779   -270.30237    1087.7708    4024.5583     9.554934   0.19712931 
   21700   -283.29802     17.93851   -265.35951     1296.994   -5014.4312    9.3383109   0.24824713 
   21800   -285.25872    17.424722     -267.834    1259.8459   -1369.8004    9.4782667   0.19059193 
   21900   -288.97393    18.495094   -270.47884    1337.2362   -3327.1372    9.6116688    0.1530859 
   22000   -286.44241    18.203256   -268.23915    1316.1357    9837.1011    9.6523614   0.15349823 
   22100   -285.46875    19.615513   -265.85323     1418.245   -7247.4143    9.4171563   0.22657985 
   22200   -287.22806    15.738853   -271.48921    1137.9539   -128.91695    9.5713275   0.18015041 
   22300   -286.45415    15.591163   -270.86299    1127.2756   -12969.783    9.4138777   0.20781703 
   22400   -287.35398    19.832331   -267.52165    1433.9214    5699.3419    9.6261976   0.16883639 
   22500   -289.21546    18.831134   -270.38432    1361.5326    1006.8173    9.6606587   0.15225231 
   22600   -287.69144    15.247059   -272.44438    1102.3961   -9666.7756     9.499186   0.19014339 
   22700   -285.68918    17.213263   -268.47591     1244.557   -11401.206    9.3742941   0.20733665 
   22800   -284.70124     15.25488   -269.44636    1102.9616     4631.731    9.5556922   0.18162664 
   22900   -287.53303    14.625196   -272.90783     1057.434    7799.1929    9.6930394   0.14265496 
   23000   -285.36487    16.941773    -268.4231    1224.9277     6499.839     9.571373   0.20258681 
   23100   -285.59207    17.263491   -268.32858    1248.1886   -9820.8755    9.3860607   0.24316014 
   23200   -286.60254    14.339703   -272.26284    1036.7922   -7708.6509    9.4776707   0.20679983 
   23300   -286.06549    15.761711   -270.30378    1139.6066    5634.1651    9.5916184   0.18296274 
   23400    -283.7993    16.459972   -267.33933    1190.0924    16945.992    9.6213141    0.2309732 
   23500   -286.14222    15.959999   -270.18222    1153.9432    2402.0848    9.5832586   0.20113453 
   23600   -286.27819    14.063242   -272.21495    1016.8035   -3622.7751    9.5203636   0.21138282 
   23700   -284.91581    16.616724   -268.29908    1201.4259   -6177.1516    9.4086688   0.25139452 
   23800   -283.99489    16.225084   -267.76981    1173.1095     12248.39    9.5662376   0.21266035 
   23900   -289.25329    17.370229   -271.88306     1255.906    3334.9444    9.7156791   0.15878342 
   24000   -286.25904    17.155961   -269.10308    1240.4139    14352.476    9.7012428   0.15698439 
   24100   -285.61159    17.598654   -268.01293    1272.4216    -1034.155    9.4908901   0.20622437 
   24200   -287.02218    14.702245   -272.31993    1063.0048   -5191.2856    9.4974515   0.18475053 
   24300    -286.3039    15.881744   -270.42216    1148.2852   -6837.6474    9.4728114   0.19880986 
   24400   -284.44683    16.485935   -267.96089    1191.9696    562.95245    9.4664993   0.21142973 
   24500   -288.14947    16.845584   -271.30389     1217.973    7953.8422    9.7123698   0.16005309 
   24600   -288.64783    16.612623   -272.03521    1201.1294    942.84614    9.6611073   0.14138201 
   24700   -284.57732    16.724043   -267.85327    1209.1853   -6044.8103    9.4336219   0.20542115 
   24800   -286.27337    17.523804   -268.74957    1267.0098    14052.212    9.7101278   0.18237235 
   24900    -288.7602    16.138821   -272.62138    1166.8725    16981.643    9.8390679   0.15510631 
   25000   -286.45177      17.9539   -268.49787    1298.1067   -27663.367    9.2480837   0.20705938 
   25100   -285.30341    16.511311    -268.7921    1193.8043   -14088.985    9.3709172   0.20010426 
   25200   -289.64683    17.030936   -272.61589    1231.3744   -5218.1867    9.6183983   0.12115184 
   25300   -286.46807    16.212247   -270.25582    1172.1813     21221.04    9.7839645   0.16226446 
   25400   -284.38854    16.265394   -268.12314     1176.024    3349.8364    9.4901807   0.21395175 
   25500   -284.81311    14.772497   -270.04062    1068.0842   -6330.3682    9.4304645   0.21576946 
   25600   -289.31182    16.342421    -272.9694    1181.5932   -13464.682    9.5262639   0.19223985 
   25700   -286.04096    18.183645   -267.85731    1314.7178   -12144.112    9.3840415    0.2172882 
   25800   -287.29757    19.690955   -267.60662    1423.6996    4975.9746    9.6275401   0.19153399 
   25900   -285.36342    15.569213   -269.79421    1125.6886    5764.3533    9.5816598   0.22513169 
   26000   -284.01059    17.920736   -266.08986    1295.7089   -4151.6835    9.3738691   0.22484101 
   26100   -282.22639    14.878407   -267.34798    1075.7417    6913.7743    9.4692887   0.25016805 
   26200   -286.93151    16.988555   -269.94295    1228.3101    6924.5454    9.6540727    0.1936779 
   26300   -287.62328    16.567034   -271.05624    1197.8332   -11405.599    9.4740157   0.18296302 
   26400    -289.1483    18.731333   -270.41697    1354.3168    -20282.44    9.4333315   0.16612427 
   26500   -287.31696    21.261828   -266.05514    1537.2772    3937.7347    9.6214555   0.15056439 
   26600   -287.82727    18.919236   -268.90803    1367.9026    7828.3145    9.6769873   0.18228508 
   26700   -287.59805    18.383928   -269.21412    1329.1986   -14662.947    9.4282026   0.18031407 
   26800   -285.44665    18.196705   -267.24994     1315.662   -2808.1152     9.476463   0.25666951 
   26900   -280.51965    18.116282   -262.40336    1309.8473   -6481.2804    9.1923261   0.37866616 
   27000   -282.87499    15.439997     -267.435    1116.3459   -10164.712    9.3043377   0.28874364 
   27100   -285.05947    16.178838   -268.88063    1169.7657   -3162.3853    9.4637459    0.2163424 
   27200   -286.42184    16.665234   -269.75661    1204.9333    11317.948    9.6850331    0.1891081 
   27300   -286.56404    14.159245    -272.4048    1023.7447    5948.1798    9.6328081    0.1997172 
   27400   -288.72474    13.667565   -275.05718     988.1952   -654.17333    9.6706594   0.16084101 
   27500   -286.28577    16.427016   -269.85875    1187.7096   -3383.1319    9.5295739   0.21198177 
   27600   -288.03603    18.666939   -269.36909     1349.661    1019.6646     9.590425   0.16642991 
   27700   -286.71941    16.364805    -270.3546    1183.2116     -13670.2     9.419414   0.20102054 
   27800   -286.63865    14.653333   -271.98532    1059.4684   -2404.0098    9.5494639   0.22687608 
   27900   -290.40404     14.05048   -276.35356    1015.8808    5531.2674     9.793632   0.13405619 
   28000   -288.05354    16.134821   -271.91872    1166.5833    201.91446     9.626762   0.16094802 
   28100   -286.40453    16.308178   -270.09635    1179.1173    16359.243    9.7403323   0.16955702 
   28200   -285.54296    16.234319   -269.30865    1173.7772   -8199.8044    9.4206689    0.2296157 
   28300   -283.32177    17.811497   -265.51027    1287.8106   -22893.569    9.1429512   0.26612676 
   28400   -284.32716    16.057999   -268.26916    1161.0289    3987.5846     9.520213   0.24596297 
   28500   -287.37794    17.524526   -269.85341     1267.062    6831.7911    9.6583862   0.16839434 
   28600     -286.236    16.504207   -269.73179    1193.2907   -6028.5608    9.5020423   0.18853681 
   28700   -281.75176    17.191995   -264.55976    1243.0192   -4718.5481    9.2961623   0.30266935 
   28800   -283.37536    16.728526   -266.64684    1209.5094   -6854.8647    9.3296819   0.23005842 
   28900   -288.81708    19.321728   -269.49535    1397.0037    5888.3188     9.702467   0.17762549 
   29000   -287.89641    18.171471   -269.72494    1313.8376    2636.6255    9.6400597   0.17892265 
   29100   -284.58034    19.770339      -264.81    1429.4393   -13319.798    9.2992597   0.22500283 
   29200   -284.48096    16.517051   -267.96391    1194.2193   -1277.8416    9.4527818   0.23695273 
   29300   -286.16327    15.306794   -270.85648    1106.7151   -3720.5312    9.5116997   0.18118498 
   29400   -285.42013    16.669189   -268.75094    1205.2193     1234.606     9.522916   0.20241015 
   29500   -284.21682    18.900596   -265.31622    1366.5549    9345.8925    9.5426028    0.1930069 
   29600   -287.37029    17.679826   -269.69047    1278.2905    4905.9484    9.6340986   0.17936366 
   29700   -286.98257     17.41248   -269.57009    1258.9609    20494.586    9.8215494   0.17554681 
   29800   -285.40647    17.891096   -267.51538    1293.5658     3643.267    9.5601429   0.21744017 
   29900    -282.7088    17.950623   -264.75818    1297.8698   -9404.9132    9.2721711   0.22343451 
   30000   -284.30076    14.836922   -269.46384    1072.7423    1932.9784     9.481383   0.22315582 
   30100   -286.68933    16.792147   -269.89718    1214.1094   -9195.0096    9.4619213   0.21308303 
   30200   -285.90877     17.38713   -268.52164    1257.1279     11287.83       9.6463   0.17372874 
   30300    -283.4681    19.403884   -264.06421    1402.9437    14437.387    9.5518064   0.25135665 
   30400   -286.45328    17.845098   -268.60818    1290.2401   -11359.789    9.4126513   0.21516013 
   30500   -286.39495    15.442524   -270.95242    1116.5286   -12649.579    9.4185491   0.21835534 
   30600   -285.77173    18.177717   -267.59401    1314.2891   -6100.6183    9.4454904   0.19967066 
   30700   -284.21833    18.661108   -265.55722    1349.2394    2330.8872    9.4511768   0.22841047 
   30800   -286.67469    16.414073   -270.26061    1186.7738    11006.856    9.6772718   0.20028218 
   30900   -287.52932    17.419456   -270.10987    1259.4652    590.93728    9.6135275    0.1661911 
   31000   -286.13475    17.168951    -268.9658    1241.3531   -4209.4027    9.5005271   0.19079921 
   31100   -281.49612    17.344072   -264.15205    1254.0148   -4944.1619    9.2747224   0.26860197 
   31200   -286.96314    18.135504   -268.82763    1311.2371    9350.5311    9.6707502   0.17134633 
   31300   -287.86643    17.829189   -270.03724    1289.0898    16090.919    9.8010836   0.15068418 
   31400   -285.83551    16.687715   -269.14779    1206.5587    -7217.291    9.4683824   0.16964798 
   31500   -282.51811    17.453943   -265.06417    1261.9587   -1043.7491    9.3564017    0.2380336 
   31600   -285.36462    17.471556   -267.89307    1263.2321   -7549.8484    9.4167191    0.2122315 
   31700   -286.79686    17.517287   -269.27957    1266.5386    11421.643    9.6926188    0.1809042 
   31800   -287.29917    18.750455   -268.54872    1355.6993    7990.8982    9.6604977   0.16528122 
   31900   -286.62067    18.306998   -268.31368    1323.6364   -5375.9938    9.4837056   0.17297958 
   32000   -288.05015    14.900199   -273.14995    1077.3174   -10863.124    9.5127812   0.16980129 
   32100   -287.73576    17.037919   -270.69785    1231.8792   -8594.6135    9.5056328   0.18761921 
   32200   -285.07778    16.955741   -268.12204    1225.9375     8462.694    9.5805593   0.19997318 
   32300   -286.05828    18.281582    -267.7767    1321.7988     9257.837    9.6448052   0.19378107 
   32400   -288.01405    14.984632   -273.02942    1083.4221    18034.006     9.819487   0.13992284 
   32500   -287.38463      16.9224   -270.46223    1223.5269   -18104.718    9.3956322   0.16255566 
   32600   -285.03512     17.01526   -268.01986    1230.2409    3397.6947    9.5422518   0.20042247 
   32700   -287.86451    16.848734   -271.01578    1218.2007    8571.2534    9.6927226   0.18387924 
   32800   -288.54239    16.374931   -272.16746    1183.9437   -8047.2155    9.5757425   0.14396069 
   32900   -285.30434    17.310754   -267.99358    1251.6058   -8709.7076    9.4172175   0.21506256 
   33000   -286.37918    18.092596   -268.28658    1308.1347     1497.053    9.5457266   0.18913718 
   33100   -288.26578    16.295283    -271.9705     1178.185     4416.415    9.6865945   0.13596246 
   33200   -286.32437    17.042972    -269.2814    1232.2446    18455.238    9.7316229   0.17437062 
   33300    -286.0281    19.659106   -266.36899    1421.3969    3927.6225    9.5677009   0.20513183 
   33400   -285.99369    15.024851   -270.96884      1086.33     5824.812    9.6103718   0.22334765 
   33500   -287.60801    17.418217    -270.1898    1259.3756   -11990.194    9.4413466   0.19217829 
   33600   -282.81501    16.759774   -266.05523    1211.7687    11212.838    9.4941882   0.23097935 
   33700   -286.73365    16.545739   -270.18791    1196.2935    11738.699    9.6983109   0.19198381 
   33800   -287.23962    16.665914   -270.57371    1204.9824   -7937.5496    9.5108697   0.17608168 
   33900   -282.82985    16.119031   -266.71082    1165.4416   -1285.7314    9.4098546   0.24938862 
   34000    -286.4055     17.81592   -268.58958    1288.1304   -7917.0183    9.4641652    0.2044537 
   34100   -287.10603    15.921924   -271.18411    1151.1903    6091.5302    9.6571346   0.17707488 
   34200   -285.53558    16.436245   -269.09933    1188.3769   -3066.7287    9.4954746   0.20040016 
   34300   -284.27979    18.098939   -266.18085    1308.5933   -5403.8869    9.3658228    0.2338592 
   34400   -288.33084    16.833151   -271.49769    1217.0741    5379.9102     9.699173   0.13565936 
   34500   -285.36853    15.229044   -270.13949    1101.0936    24265.022    9.7754191    0.1772039 
   34600    -285.4447    17.893053   -267.55165    1293.7073   -17672.314    9.3203581   0.20362567 
   34700   -286.94898    15.078949   -271.87003    1090.2414    4127.9402    9.6228128   0.18334441 
   34800   -286.33687    14.511112   -271.82576    1049.1855    1709.4193    9.5679476   0.18408243 
   34900   -286.14137     17.94653   -268.19484    1297.5738   -14090.821    9.3817129   0.20657176 
   35000   -285.65933    16.650279   -269.00905     1203.852    6644.8521    9.6093347   0.23508231 
   35100   -287.70989    14.057597   -273.65229    1016.3954    3529.2436    9.6482882   0.17580854 
   35200   -286.63082    16.654144   -269.97667    1204.1314     -11576.1    9.4171171   0.21112624 
   35300   -285.85531    17.595015   -268.26029    1272.1585   -6564.9127    9.4411283   0.22586367 
   35400    -286.9614    17.400809   -269.56059    1258.1169    15062.433    9.7078543   0.20037864 
   35500   -290.95458     17.47576   -273.47882    1263.5361    17963.636    9.9237591   0.13185047 
   35600   -287.42815    17.117136   -270.31102    1237.6068   -11810.637    9.4680811   0.16766804 
   35700   -285.73584    16.769254   -268.96659    1212.4541   -6245.3448     9.444075   0.20286446 
   35800   -287.87387    18.109558   -269.76431    1309.3611    3303.7703    9.6446128    0.2046676 
   35900   -289.61698    15.131818   -274.48516    1094.0639   -3172.8333    9.6474983   0.16663702 
   36000   -286.61135     16.04778   -270.56357      1160.29    809.93865    9.5723209   0.19215869 
   36100   -286.05911    16.457118   -269.60199     1189.886   -7284.9594    9.4373141     0.199868 
   36200   -284.44351    15.302037   -269.14148    1106.3711   -6993.0024    9.4027875   0.24063793 
   36300   -283.70813    20.103623   -263.60451    1453.5364    1791.9963    9.4505854     0.251932 
   36400   -286.35397    20.610224   -265.74375    1490.1648     7260.439    9.6077244   0.18446881 
   36500   -285.46105    16.894177   -268.56687    1221.4864    2203.7781     9.532503   0.18736249 
   36600   -285.09648     15.19474   -269.90174    1098.6133   -6538.5658    9.4115076    0.2524608 
   36700   -283.32287    16.867689   -266.45518    1219.5712   -5541.3649    9.3350685   0.27797281 
   36800   -283.68499    20.649418   -263.03557    1492.9986   -127.06664    9.4318332   0.24204424 
   36900   -286.16064    17.397691   -268.76295    1257.8915    11360.603    9.6637953   0.18338582 
   37000   -287.00778    18.374505   -268.63327    1328.5174   -3750.5736    9.5196862   0.17704939 
   37100   -288.67401    17.722297   -270.95171    1281.3613   -4406.9814    9.5707266   0.16826074 
   37200   -289.61235    15.340191   -274.27216    1109.1297   -17177.856    9.5065358   0.14251388 
   37300   -285.44292    16.397051   -269.04587    1185.5431     2861.584    9.5300017   0.18957917 
   37400   -287.75085    19.180187   -268.57066      1386.77    13415.342     9.735459    0.1874377 
   37500   -286.99292    17.664459   -269.32846    1277.1795   -5291.2184    9.5428706   0.19667593 
   37600   -288.81565     15.49316   -273.32249    1120.1897    -5350.298    9.6122181   0.16557834 
   37700     -289.588    18.841738   -270.74626    1362.2993    4325.5092    9.7072626   0.14566192 
   37800     -286.774    18.160969   -268.61303    1313.0782   -4464.1871    9.5137624   0.18211175 
   37900   -286.92137    17.705538   -269.21583    1280.1496   -335.09968    9.5547246   0.18062552 
   38000   -289.93506    16.910364    -273.0247    1222.6567    1155.2188    9.7080892   0.14821544 
   38100    -288.3335    17.360495   -270.97301    1255.2022    18.616179    9.6351437    0.1695014 
   38200   -285.22398    16.686638   -268.53734    1206.4808    16722.746     9.698257   0.24331368 
   38300   -284.26156    15.531069   -268.73049    1122.9307    2924.3411    9.4941654   0.20456495 
   38400   -287.91601    14.848343   -273.06766     1073.568   -14686.585    9.4548724   0.16972866 
   38500   -287.25285    16.352743   -270.90011    1182.3395    369.58131    9.5772457   0.19105551 
   38600   -286.59824    18.530975   -268.06726    1339.8305    -2975.377    9.5026255   0.19784278 
   38700   -287.05551    16.570615    -270.4849    1198.0921   -6454.4664    9.4749822   0.19215817 
   38800   -288.63198    15.524105   -273.10787    1122.4272   -152.57806    9.6557176   0.16901833 
   38900   -286.62681    18.757061   -267.86974     1356.177    4225.5749    9.6080788   0.17328329 
   39000   -287.17888    18.318292   -268.86059     1324.453    4187.9449    9.6283898   0.16361243 
   39100   -287.35414    15.618495   -271.73565    1129.2518    2280.5123    9.6267871   0.16383728 
   39200   -287.75971    17.590998   -270.16871    1271.8681   -16391.594    9.4246455    0.1695832 
   39300    -284.5847    17.679633   -266.90507    1278.2766    -2601.729    9.4606967   0.20592757 
   39400   -285.53949    15.926578   -269.61291    1151.5268     12061.68    9.6679678   0.18278216 
   39500   -288.04444    17.281323   -270.76312    1249.4779    503.39466    9.6305508    0.1773831 
   39600   -286.80546    15.946205   -270.85926    1152.9459    -10458.74    9.4410478    0.1961898 
   39700   -281.87894    16.258279   -265.62066    1175.5095    1940.2903    9.3702965   0.27117076 
   39800   -284.12582    16.100704   -268.02512    1164.1165    7106.5774    9.5596043   0.21480026 
   39900   -287.39482     17.03611   -270.35871    1231.7484    6298.7776    9.6660787   0.15151652 
   40000   -288.09642    16.867953   -271.22847    1219.5903   -6700.4396    9.5790534   0.17267971 
   40100   -287.34626    20.870932   -266.47533    1509.0145   -5485.9603    9.5255867   0.17635067 
   40200   -287.77192    18.834461   -268.93746    1361.7732    5132.2674    9.6435286   0.19521572 
   40300   -287.92259    18.371469   -269.55112    1328.2979   -7683.7615    9.4983334    0.1952542 
   40400   -283.65786    18.628903   -265.02896    1346.9109    438.77128    9.4156703   0.22219686 
   40500    -283.8005    16.076224   -267.72427    1162.3466    12392.306    9.6022862   0.19398623 
   40600   -287.59977    17.231586   -270.36818    1245.8818   -13669.101    9.4635148   0.15485488 
   40700   -285.46132    15.756093   -269.70523    1139.2004    11505.664    9.6421736   0.17241677 
   40800   -283.81625    19.243556    -264.5727    1391.3517    20363.557    9.6687199   0.22451821 
   40900   -287.14534    17.994925   -269.15042    1301.0729   -3458.6924    9.5280652   0.17677076 
   41000   -285.26163    15.228117   -270.03351    1101.0266   -5749.1863    9.4362114   0.20152739 
   41100   -284.24902    17.457529   -266.79149     1262.218    8280.0078    9.5487939   0.19932998 
   41200   -286.21896    18.456083   -267.76287    1334.4156   -1813.2742    9.5305215   0.17027566 
   41300   -289.59131    18.721875   -270.86944    1353.6329    7743.7609    9.7705527   0.13695203 
   41400   -286.99112    18.476155   -268.51496    1335.8668   -1342.5683    9.5465314   0.17634815 
   41500   -286.54355    17.626762   -268.91679    1274.4539   -3492.5869    9.5078989   0.18092977 
   41600   -288.57357     16.05207    -272.5215    1160.6001   -356.03736    9.6510048   0.14563077 
   41700   -284.21329    15.975263   -268.23803    1155.0469    4287.2688    9.5262153   0.20574696 
   41800   -286.01036     17.94594   -268.06442    1297.5312   -1092.6955     9.491364   0.21459968 
   41900   -288.58827    17.477552   -271.11072    1263.6656    2014.3649    9.6605958   0.13467788 
   42000   -289.82025     17.21318   -272.60707     1244.551     13700.67    9.8369816   0.13177698 
   42100   -285.02545    16.376989   -268.64846    1184.0925     14863.54     9.649526   0.19171521 
   42200   -283.54253    15.663121    -267.8794    1132.4783   -4767.4184     9.402403   0.20511596 
   42300   -285.58226    14.645569   -270.93669     1058.907    2453.6615    9.5580336   0.18253325 
   42400   -287.18474    15.170462   -272.01427     1096.858    9158.3896    9.6967165   0.16971816 
   42500   -284.46379    16.758633   -267.70515    1211.6862    2289.8809    9.5074645   0.20548776 
   42600   -286.57935    16.748433   -269.83092    1210.9488   -8588.8026    9.4354096   0.19015769 
   42700   -289.52512    17.406251   -272.11887    1258.5105   -676.81888    9.6688861   0.14329514 
   42800   -286.23093    19.546518   -266.68441    1413.2565    17732.084    9.7265866   0.18036294 
   42900   -287.86044    20.492177   -267.36826    1481.6298    -311.7998    9.5856496   0.16752842 
   43000   -288.03138    18.169236   -269.86215    1313.6759   -5726.2411    9.5423167   0.17414167 
   43100   -285.49334    15.420458   -270.07289    1114.9332    10879.718    9.6339432    0.1894289 
   43200   -285.54662    19.782956   -265.76366    1430.3515   -4144.0892    9.4678282   0.20669514 
   43300   -284.88558    15.276418   -269.60917    1104.5188   -2490.1369    9.4677859   0.22851859 
   43400   -287.28522    16.867031   -270.41819    1219.5236    5538.4309     9.645703   0.15172394 
   43500   -288.65202     15.91355   -272.73847    1150.5849    26773.144    9.9506215   0.12689307 
   43600   -289.83594    15.297126   -274.53881    1106.0161     -1909.88    9.6725933   0.12743656 
   43700   -286.74323    16.582558   -270.16067    1198.9556   -6346.3467    9.4947752   0.17211391 
   43800   -286.44198    17.749994   -268.69199    1283.3638    6749.4747    9.6142933   0.17562844 
   43900   -287.17084    18.443271   -268.72757    1333.4893    606.08369    9.5794168   0.16323496 
   44000   -288.01088    14.370158   -273.64072    1038.9942    6603.0872     9.695609   0.14995963 
   44100   -285.00984    15.013265   -269.99657    1085.4923    -9202.313    9.3964744   0.21450394 
   44200    -286.6108    17.830523   -268.78028    1289.1862   -9249.1934    9.4575754   0.19834775 
   44300   -288.00332    17.281351   -270.72197    1249.4799    806.41198    9.6384145   0.17641801 
   44400   -287.89392    13.664065   -274.22985     987.9421    2317.8834     9.646868   0.19182086 
   44500   -284.14952    14.552958   -269.59656    1052.2111    1606.9436    9.4628247   0.21468754 
   44600   -285.40261    16.462481   -268.94012    1190.2738    -4229.693    9.4745892   0.20560718 
   44700   -286.33787    15.669787   -270.66809    1132.9603    -5251.777    9.4662453   0.18081921 
   44800   -289.76513    16.127776   -273.63735    1166.0739   -3981.9802    9.6431098   0.13594674 
   44900   -287.97677    19.181725   -268.79505    1386.8811    11690.121    9.7254499   0.16183585 
   45000   -285.99405    17.377215   -268.61683    1256.4111    5062.2187    9.5886753   0.19498244 
   45100   -287.39079    15.144522   -272.24627    1094.9825   -2015.3588    9.5700775   0.19988812 
   45200   -286.31156    14.323905   -271.98765      1035.65   -109.79956    9.5437934   0.19773674 
   45300   -284.19559    16.380136   -267.81546    1184.3201   -2263.8594    9.4477912   0.24943368 
   45400    -285.8024     18.49332   -267.30908     1337.108   -4290.4657    9.4784308   0.22108467 
   45500   -287.66721     16.47546   -271.19175    1191.2122    1362.2148    9.6166614   0.15190692 
   45600   -290.21627    18.250567    -271.9657    1319.5563    13189.607    9.8380021   0.12548422 
   45700    -286.6986     18.00755   -268.69105    1301.9857    5635.2374    9.5978758   0.16042156 
   45800   -286.69633    18.627729    -268.0686     1346.826   -2251.8112    9.5388197     0.183477 
   45900   -287.86899    15.395757   -272.47323    1113.1473   -3107.5747    9.6043729   0.16212226 
   46000   -287.97358    17.646858   -270.32672    1275.9069   -6302.0869    9.5340957   0.14712516 
   46100   -284.46069    17.528909   -266.93178    1267.3789    3031.3657     9.501254   0.22476352 
   46200   -286.72526    16.562046   -270.16321    1197.4726   -3095.5907    9.5354566   0.20601142 
   46300   -287.18412    16.814903   -270.36922    1215.7547    13711.874    9.7349514   0.17469359 
   46400   -282.42971    16.073106    -266.3566    1162.1211   -17319.359    9.1621878   0.27892974 
   46500   -283.21012      16.9752   -266.23492    1227.3445   -15193.223    9.2376481    0.2533032 
   46600    -288.4775      17.7963    -270.6812    1286.7119   -1738.2068    9.6122218   0.15265418 
   46700   -287.77456    17.939285   -269.83528      1297.05    3604.0151    9.6419522   0.16915616 
   46800   -283.78992    17.637589   -266.15233    1275.2367    8745.0724    9.5371975    0.2126712 
   46900   -285.78714    15.400721   -270.38642    1113.5062    4166.3682    9.5855236   0.20391839 
   47000   -288.65166    17.161415   -271.49025    1240.8083   -6833.8873    9.5691023   0.14409154 
   47100   -286.88735    20.285895   -266.60145    1466.7151    6328.1276    9.5998354   0.17366072 
   47200   -284.97766    16.530049   -268.44762    1195.1591    14258.725    9.6376963   0.17989798 
   47300   -288.76683    17.313115   -271.45372    1251.7765   -17060.134    9.4564208   0.15902059 
   47400   -286.35509    16.939001   -269.41609    1224.7272   -8694.7298    9.4550212   0.20711707 
   47500   -285.61081    19.628407    -265.9824    1419.1773    10078.147    9.5952591   0.19330215 
   47600   -288.43524    19.129928   -269.30531    1383.1361    21068.706    9.8411519   0.14205307 
   47700   -287.99883    17.947398   -270.05143    1297.6366    805.56992    9.6084234   0.16158454 
   47800    -285.3803    18.967487   -266.41281    1371.3913   -11788.852    9.3651558    0.2688625 
   47900   -283.27649    17.513026   -265.76347    1266.2305    911.46844     9.403086   0.25624771 
   48000   -288.06927    17.089813   -270.97946    1235.6313   -9074.4791    9.5148329   0.17768195 
   48100   -286.84377    16.328817   -270.51495    1180.6096   -2227.3804    9.5257883   0.18917315 
   48200   -284.94888    18.912288   -266.03659    1367.4002    525.09836    9.4949936    0.2020485 
   48300   -288.90576     19.28557   -269.62019    1394.3894    1953.4525     9.668766   0.16681295 
   48400   -289.71511    17.941803    -271.7733    1297.2321    2108.4259    9.7059166   0.14072365 
   48500   -285.43844    17.588901   -267.84954    1271.7165   -15971.263    9.3076003   0.23767838 
   48600   -285.06354    18.005041    -267.0585    1301.8043   -8874.6139    9.3879369   0.22055003 
   48700   -284.77974    14.023087   -270.75665    1013.9002    9895.4061    9.6079164   0.22748358 
   48800   -285.54957    16.111837   -269.43773    1164.9215   -4832.8242    9.4481257   0.21774862 
   48900   -282.97127    17.121441   -265.84983     1237.918   -2419.7311    9.3558068   0.24793247 
   49000   -286.30206    15.670374   -270.63168    1133.0027   -5142.3792    9.5014569   0.20699816 
   49100   -285.80931    15.458943   -270.35037    1117.7158     4848.538    9.5861215   0.17605172 
   49200   -284.71758    18.383037   -266.33454    1329.1342   -1455.4637    9.4675916   0.20903426 
   49300   -287.57884    19.270713   -268.30812    1393.3152   -8494.5338    9.4977585   0.18474533 
   49400   -286.27208    14.913548   -271.35853    1078.2825    2535.2153    9.5837704   0.17838809 
   49500   -286.32238    17.203341   -269.11904    1243.8396   -3755.6757    9.5220851   0.17394006 
   49600   -284.73842    18.528336   -266.21008    1339.6397    14418.669    9.6337054    0.1971791 
   49700   -284.81622    16.732315   -268.08391    1209.7834    7700.7043    9.5859725   0.20944088 
   49800   -286.80005    15.840443   -270.95961    1145.2991    1376.0308    9.5735797   0.20385534 
   49900   -286.38995    16.797457   -269.59249    1214.4933   -282.71267    9.5428342   0.19749798 
   50000   -284.95106    17.922574   -267.02849    1295.8417   -10677.768    9.3503166   0.23465598 
   50100   -282.39976    16.383343   -266.01642    1184.5519   -5146.2319       9.3216   0.28057387 
   50200   -289.09603    18.803645   -270.29238    1359.5451     11993.73    9.7950668   0.16322913 
   50300    -285.7206    15.994886   -269.72572    1156.4656    12461.483    9.6801871   0.17974242 
   50400   -283.48236    17.892744   -265.58961    1293.6849   -14880.757    9.2415438   0.25046817 
   50500   -283.32652    17.182337   -266.14418     1242.321   -1107.8989    9.4112714   0.28010961 
   50600   -288.85103    18.154376   -270.69665    1312.6016   -5517.0359    9.5789432   0.16763694 
   50700   -285.90213    15.908721    -269.9934    1150.2357   -7997.3432    9.4329865   0.19120718 
   50800   -283.37169    17.559864   -265.81183     1269.617   -6849.7029    9.3258151   0.27162398 
   50900   -287.01522    18.187302   -268.82791    1314.9822    13360.382    9.7173229    0.1867574 
   51000   -288.27707    17.170854   -271.10622    1241.4907    1516.2886    9.6384188   0.17173355 
   51100   -286.28074    17.527742     -268.753    1267.2945   -12700.157    9.3713842   0.18702091 
   51200    -284.2468    17.560451   -266.68635    1269.6594   -5940.1344    9.3792681   0.25375202 
   51300   -280.60142    16.389114    -264.2123    1184.9692   -517.99978    9.3054076   0.31589771 
   51400   -286.43236    16.286186   -270.14617    1177.5273   -4536.8832    9.4926577   0.20521596 
   51500   -287.35051    17.980218    -269.3703    1300.0095   -1737.4834    9.5734556   0.18200357 
   51600   -284.79674     16.34149   -268.45525    1181.5258    7151.8073    9.5494422   0.20149086 
   51700   -281.26324    17.442322   -263.82092    1261.1184    1550.0153    9.3396062   0.24745333 
   51800   -284.80802    16.232615    -268.5754     1173.654   -12356.451    9.3446572   0.20058187 
   51900   -286.50248    17.181929   -269.32055    1242.2915   -8436.7569    9.4555362    0.1844852 
   52000   -286.34609    17.141543   -269.20454    1239.3715    4618.3575    9.5918314   0.23972105 
   52100   -285.03004     16.62249   -268.40755    1201.8428   -155.14813    9.4809712   0.24611885 
   52200   -287.88998    14.050163   -273.83982    1015.8579   -1345.7783    9.6063078   0.16825379 
   52300   -285.52788    14.250756   -271.27712    1030.3612   -9857.1981    9.4200746   0.22436532 
   52400    -286.9529    18.071241   -268.88166    1306.5907   -2235.4489    9.5299745   0.18650663 
   52500   -287.09478    19.050624   -268.04416    1377.4023    15686.372    9.7328738   0.16783086 
   52600   -288.47824    15.005396   -273.47285    1084.9233   -2000.9789    9.6239009   0.18234526 
   52700     -286.377    15.180393   -271.19661     1097.576    -15045.23    9.4119315   0.19543775 
   52800   -285.20459    16.132714   -269.07188    1166.4309   -524.02868     9.491951   0.19746165 
   52900   -287.87069    17.424529   -270.44616     1259.832   -1708.6008    9.5749459    0.1884165 
   53000   -289.90746    15.462572   -274.44489    1117.9782    12747.795    9.8407499   0.12927502 
   53100   -286.51057    16.122745   -270.38782    1165.7101   -447.02108    9.5648602   0.17559635 
   53200    -286.1709    17.751313   -268.41959    1283.4592   -6751.6927    9.4621569   0.19444475 
   53300   -287.38546    18.656002   -268.72946    1348.8702    4129.7374    9.6322421   0.17101886 
   53400   -290.52447    17.800829   -272.72365    1287.0393    6224.8646    9.7863921   0.11544796 
   53500   -286.53688    14.835491   -271.70139    1072.6388    9779.2967    9.6716652     0.194038 
   53600   -286.30857    17.564118   -268.74445    1269.9246   -1102.2705    9.5134549   0.18678424 
   53700    -285.8789    15.410302    -270.4686    1114.1989    -414.1133    9.5274243    0.1876962 
   53800    -286.4132    15.728965   -270.68423     1137.239   -7610.0142    9.4610052   0.21084208 
   53900   -283.89755    17.555321   -266.34223    1269.2885   -6000.9524    9.3525149    0.2410197 
   54000   -285.65799    18.513092    -267.1449    1338.5375    4723.9025    9.5371894    0.1894337 
   54100   -288.77271    17.151059   -271.62165    1240.0595   -1153.3063    9.6224932   0.15397326 
   54200   -287.75764     18.79961   -268.95803    1359.2534   -1757.6238    9.5496468   0.17334641 
   54300   -285.70727    18.039477    -267.6678    1304.2941   -3597.8911    9.4783864   0.23617323 
   54400   -287.17589    14.579785    -272.5961    1054.1507    1684.8773    9.6181219   0.17488026 
   54500   -287.14744    15.443157   -271.70428    1116.5744   -6211.1239    9.5252573   0.20173755 
   54600   -285.03381    16.910354   -268.12346     1222.656   -3369.2378    9.4643706   0.22003301 
   54700   -286.99547    18.234756   -268.76071    1318.4132    432.18084    9.5698178   0.19879552 
   54800   -287.95969    15.439241   -272.52044    1116.2913   -11833.017    9.4874376   0.15957401 
   54900   -285.09608    15.764617   -269.33146    1139.8167   -11991.723    9.3621192   0.22332703 
   55000   -284.32021    16.646902   -267.67331    1203.6078    3885.2713    9.5093111   0.24156952 
   55100   -286.58666    17.570396   -269.01626    1270.3785    1916.3366    9.5809011   0.18523253 
   55200   -288.70274     15.72291   -272.97983    1136.8012   -5269.9107    9.5847694   0.14768111 
   55300   -285.95729    16.872249   -269.08505    1219.9009   -5891.4427    9.4523501   0.20545533 
   55400   -284.87826    17.285906   -267.59235    1249.8093    8651.3935    9.5819084   0.21583173 
   55500   -287.22869    16.327629   -270.90106    1180.5237    2733.1243    9.6282442   0.17145328 
   55600     -288.572    16.577319   -271.99468    1198.5769   -9975.9549    9.5394628   0.16565334 
   55700   -285.28183    18.324746   -266.95708    1324.9197   -11943.969    9.3488121   0.23312913 
   55800   -285.84803    18.403198   -267.44484    1330.5919    9137.8112    9.6247599   0.15298461 
   55900     -289.771    18.992944   -270.77806    1373.2319    12304.953    9.7995978   0.11860782 
   56000   -285.89805    17.036273   -268.86178    1231.7602    6335.5846    9.5728174   0.18774838 
   56100   -285.87558    18.250815   -267.62476    1319.5743    -14484.88    9.3552249   0.21895557 
   56200   -286.94308    15.588604   -271.35447    1127.0905   -4047.9272    9.5337724   0.22278922 
   56300   -285.32538    17.587403   -267.73798    1271.6082     13200.33    9.6379743    0.1848061 
   56400   -283.88243    16.423281   -267.45915    1187.4395    341.93544    9.4625827   0.23885612 
   56500   -287.21828    14.969456   -272.24883    1082.3248   -5629.5429    9.5322061   0.19575238 
   56600   -286.69419    16.282931   -270.41126     1177.292   -3155.9324    9.5421776   0.19056809 
   56700   -287.04252    19.160037   -267.88249    1385.3131   -2697.9018    9.5487689   0.17267848 
   56800   -287.48029     16.48727   -270.99302    1192.0661    15241.143     9.773763   0.16485764 
   56900   -286.79533    15.973806   -270.82152    1154.9415   -3211.4101    9.5311351   0.18488943 
   57000   -281.29367    15.308093   -265.98558     1106.809    -14915.02    9.1770753   0.30671583 
   57100    -286.6249    17.602217   -269.02268    1272.6792    2528.6968    9.5804531   0.18970061 
   57200   -288.75793    17.934353   -270.82358    1296.6934    12482.706    9.7803555   0.16107959 
   57300   -286.15111    17.905821   -268.24529    1294.6305   -6658.9349    9.4621524   0.20160016 
   57400   -283.52046    17.533901   -265.98656    1267.7399    12.834333    9.4250285   0.21879709 
   57500   -286.93581    15.993935   -270.94187    1156.3969    10637.209     9.684639   0.20793484 
   57600    -286.5894    16.817781   -269.77162    1215.9627    -9265.986    9.4716022   0.21064292 
   57700   -283.80406    16.629963    -267.1741    1202.3831   -7247.8448     9.339061   0.22768756 
   57800   -283.82038    17.113499   -266.70688    1237.3438   -10237.969    9.3108838   0.21618526 
   57900   -288.25574    17.160195   -271.09555    1240.7201    2409.6121    9.6569512   0.14957054 
   58000    -288.0335    18.243806   -269.78969    1319.0675    1278.5608    9.6100958   0.16833414 
   58100   -283.08822     16.54759   -266.54063    1196.4274   -10104.736    9.2862908   0.24324029 
   58200   -286.12359    15.799526   -270.32407    1142.3407   -10926.714    9.4153135   0.20174759 
   58300   -287.28618    16.082954   -271.20322    1162.8331    14868.185    9.7568393   0.16883992 
   58400   -288.06589    20.281724   -267.78416    1466.4135   -10274.799    9.4871699   0.18168474 
   58500   -285.87758    16.279623   -269.59795    1177.0527   -889.74001    9.5394502   0.20537747 
   58600   -288.85099    16.735754   -272.11524     1210.032   -12713.951    9.5292578   0.16310797 
   58700   -285.26488    17.395218   -267.86966    1257.7127    9354.2964    9.5748257   0.17782406 
   58800   -286.95499    18.035092   -268.91989     1303.977   -771.64228    9.5402471   0.20743403 
   58900   -289.65742    16.823446   -272.83397    1216.3723   -9563.5945    9.5834881   0.13840889 
   59000   -290.81012    18.893073   -271.91704     1366.011   -10894.915    9.5997575    0.1593694 
   59100   -286.93059    18.701993   -268.22859    1352.1955    5793.5354    9.6285792   0.18652639 
   59200   -287.94127    19.264962   -268.67631    1392.8994    9994.3794    9.6773044   0.15501009 
   59300   -288.09231    16.339881   -271.75242    1181.4096   -2920.2215    9.5762676   0.15896444 
   59400   -287.62389    17.188846   -270.43504    1242.7916   -18733.585    9.4119902   0.16464972 
   59500   -283.51498    17.170926   -266.34405    1241.4959    15945.615    9.5989184   0.20227216 
   59600    -285.8285    16.653335   -269.17516     1204.073    3551.1546    9.5841572   0.18349893 
   59700   -286.37886    15.976278   -270.40258    1155.1203    374.05282    9.5887962   0.19832684 
   59800   -282.16873    16.718408   -265.45032    1208.7779    12510.399    9.5124626   0.25268386 
   59900   -284.40448    17.472699   -266.93178    1263.3148    4043.9197    9.5222125   0.23032568 
   60000   -286.57228    16.491466   -270.08082    1192.3695   -3965.1076     9.529153    0.1974742 
   60100   -286.32294    16.461149   -269.86179    1190.1775    11663.923    9.6770151   0.15804542 
   60200   -284.58405    18.661384   -265.92267    1349.2593    11150.734    9.5838667   0.18430612 
   60300   -285.24221    17.600869   -267.64134    1272.5818    -16079.32     9.300428   0.22651219 
   60400   -285.73372    14.020925   -271.71279    1013.7439    1896.0831    9.5484851   0.20448219 
   60500   -286.95615    18.452363   -268.50379    1334.1467   -4371.2294    9.5155269   0.18846933 
   60600   -284.59639    16.984901   -267.61149    1228.0459    2915.9887    9.5017844   0.25228089 
   60700   -290.26349     17.73826   -272.52523    1282.5154    3824.2988    9.7528658   0.13575544 
   60800    -288.3142    16.816975   -271.49723    1215.9045   -10771.908    9.5246684   0.17183793 
   60900   -285.58327    16.218135   -269.36513     1172.607    439.65849     9.531971   0.20629992 
   61000   -285.06681    18.296837   -266.76998    1322.9018    7517.4561    9.5756606   0.21916642 
   61100   -284.83463     17.50243    -267.3322    1265.4644   -19314.417    9.2581559   0.24514256 
   61200   -285.28056    14.313892   -270.96666    1034.9261   -1266.7303    9.4992652   0.21907799 
   61300   -285.83948    17.309203   -268.53027    1251.4936    7614.3693    9.5921173   0.18857439 
   61400   -285.28927    17.778074   -267.51119    1285.3941   -4098.7843    9.4550331   0.18910297 
   61500   -289.56491    16.763741   -272.80117    1212.0556    12372.116    9.8209459    0.1421489 
   61600    -287.9568    17.231804   -270.72499    1245.8976    4228.4297    9.6439151   0.16290875 
   61700   -283.66009    15.297014   -268.36308     1106.008   -23252.918     9.174895   0.25317635 
   61800   -283.79178    16.259921   -267.53186    1175.6283    -13615.52    9.2788604   0.26620027 
   61900   -288.79873    16.584739   -272.21399    1199.1133   -3248.7409    9.6153695   0.15194409 
   62000   -286.85247    16.457723   -270.39475    1189.9297    1755.7851    9.5998931   0.19079715 
   62100   -285.59149    17.393117   -268.19837    1257.5608   -8664.6108    9.4315592   0.21374462 
   62200   -288.43983    17.943777   -270.49605    1297.3748   -3922.6481    9.5867007   0.17112609 
   62300   -289.72072    17.079289   -272.64143    1234.8704    5098.6019    9.7386718   0.14965878 
   62400   -285.13599    17.039245   -268.09675    1231.9751   -3543.2821    9.4662916   0.20393692 
   62500    -286.0442    17.314918   -268.72928    1251.9069    -17166.36    9.3523919   0.21188618 
   62600   -287.27231    14.531921   -272.74039      1050.69    9557.8589    9.6955101   0.16881989 
   62700   -286.79681     17.73047   -269.06634    1281.9522    15226.001    9.7449308   0.16181661 
   62800    -284.8292    16.868346   -267.96085    1219.6187    1.3219168    9.4669664   0.23227885 
   62900   -286.83199    16.549697    -270.2823    1196.5797   -2773.1539    9.5407449   0.19334298 
   63000   -289.17875    16.683861   -272.49489      1206.28    11743.969    9.7856767    0.1307929 
   63100   -285.96314     17.99469   -267.96845    1301.0559   -2173.3707    9.5008136   0.20296853 
   63200    -285.7873    17.069263   -268.71803    1234.1455   -1396.3568    9.5250874   0.21842161 
   63300   -287.90248    15.344112   -272.55837    1109.4132    7074.5247      9.69528   0.15416779 
   63400   -287.13176    16.121197   -271.01056    1165.5982   -10047.201    9.4770482   0.18467908 
   63500   -286.36649    18.063361   -268.30313     1306.021   -4486.9274    9.4799885    0.1863725 
   63600   -285.72334    15.685732   -270.03761    1134.1131     12472.06    9.6494714   0.20084612 
   63700    -284.8073    14.887328   -269.91997    1076.3867   -2100.2785    9.4563516   0.19700279 
   63800   -282.22677    18.032873    -264.1939    1303.8166   -8462.7729    9.2612864   0.22056144 
   63900   -285.47498     18.44246   -267.03252    1333.4306    3181.0517    9.5465781   0.15951088 
   64000   -287.42311    17.832181   -269.59093    1289.3061     7640.721     9.661055   0.13759545 
   64100   -288.65726    18.419453   -270.23781    1331.7672   -1469.3726     9.628843   0.15237594 
   64200   -285.61532    17.000374   -268.61494    1229.1647   -4414.8561    9.4763276   0.19484113 
   64300   -284.56237    19.340136   -265.22223    1398.3346    -1293.686    9.4537306   0.22951713 
   64400   -287.16605    18.664943   -268.50111    1349.5166   -1790.3558    9.5460865   0.16731772 
   64500   -287.85256    17.729307   -270.12325    1281.8681     8976.607    9.6780498   0.14988107 
   64600   -285.96415    18.659289   -267.30486    1349.1079   -4766.5271    9.4658171   0.17405062 
   64700   -283.55155    16.865477   -266.68608    1219.4113   -7912.4956    9.3329415   0.25021163 
   64800   -287.76322    15.931639   -271.83158    1151.8927    5627.3886    9.6829321   0.16036701 
   64900   -288.90721    19.196052   -269.71116     1387.917    9595.4969    9.7357252   0.14969315 
   65000   -284.41854    17.492955   -266.92558    1264.7793    2877.7785    9.5020917    0.2176149 
   65100   -285.47696    16.732244   -268.74472    1209.7782   -8190.1879    9.3875129   0.21420107 
   65200   -287.11271    14.520515    -272.5922    1049.8654   -10575.082    9.4787229   0.20157141 
   65300   -286.82924    17.904246   -268.92499    1294.5166    747.60583    9.5586539   0.18478202 
   65400   -287.85028     20.42615   -267.42413    1476.8558    9028.8152    9.7083491   0.16619855 
   65500   -289.70708    17.643723   -272.06335    1275.6802   -4367.1658    9.6453148   0.13683005 
   65600   -286.89438    16.112164   -270.78222    1164.9451   -10947.884    9.4827998   0.17237279 
   65700   -286.12817    18.143052   -267.98512    1311.7828   -368.43663    9.5288533   0.19839737 
   65800   -287.04982    15.752372   -271.29745    1138.9313   -3704.1485    9.5287341    0.1790483 
   65900   -287.95699    15.521835   -272.43515     1122.263   -6212.4933    9.5435428   0.17176804 
   66000   -284.88593    17.073389   -267.81254    1234.4438    6709.3502    9.5699699    0.2230204 
   66100   -287.74545    18.164289   -269.58116    1313.3183   -1807.7523    9.5734524   0.19413207 
   66200   -287.13909    15.071698   -272.06739    1089.7171   -6315.2994    9.5391107   0.17404913 
   66300   -283.95381    16.649287   -267.30452    1203.7803    -2604.264    9.4096304   0.21091485 
   66400   -284.73413    16.585676   -268.14845    1199.1811    6343.2963     9.574565   0.21956663 
   66500   -287.97451    17.595853   -270.37865    1272.2191    2385.1184    9.6395056   0.17753674 
   66600   -287.94696    14.099608   -273.84735    1019.4329   -10968.249    9.5082027   0.16830416 
   66700   -287.25794    16.231414   -271.02653    1173.5671   -6775.1499     9.498437   0.17030527 
   66800   -286.84062    17.933545   -268.90707    1296.6349   -831.05309    9.5405572   0.20099124 
   66900   -286.63959    17.221071   -269.41852    1245.1215   -462.43799    9.5535291    0.1810579 
   67000   -287.91383    16.263107   -271.65072    1175.8586   -3095.3787    9.5547904   0.16332479 
   67100   -289.27679    14.169223   -275.10757    1024.4661    8576.2212    9.7774369   0.14334919 
   67200   -286.58417    16.041824   -270.54235    1159.8594   -1471.8857    9.5433897   0.17784235 
   67300   -285.52447    16.109544   -269.41492    1164.7557    473.76299    9.5224691   0.21507979 
   67400   -285.73571    17.642769   -268.09294    1275.6112   -11387.484    9.3889192    0.2068963 
   67500   -286.76606    14.402153   -272.36391    1041.3075    5456.4148    9.6382361   0.17048686 
   67600   -288.64401     16.04062   -272.60339    1159.7723    13933.527    9.7902866   0.13912554 
   67700   -287.55782    18.555387   -269.00243    1341.5956    5415.1383    9.6510424   0.15817651 
   67800   -286.52016    16.935547   -269.58461    1224.4775   -4184.6281     9.488851   0.20173966 
   67900   -285.04317     16.52596   -268.51721    1194.8634   -14777.442    9.3270231   0.22230069 
   68000   -281.61506    18.839968   -262.77509    1362.1714   -5410.2531    9.2591521   0.27737912 
   68100   -285.46667    18.345692   -267.12098    1326.4341    9860.9262    9.5985322    0.1861761 
   68200   -284.88501    15.878042   -269.00697    1148.0176     7888.027    9.5630344   0.21162967 
   68300   -285.11653    15.385542   -269.73099    1112.4087    -8122.465    9.4059798   0.20789762 
   68400   -285.96851    17.305609    -268.6629    1251.2338   -6058.5292    9.4732599   0.20286082 
   68500   -282.07862    18.892475   -263.18614    1365.9678    12935.381    9.5028948   0.22574376 
   68600   -286.99888    18.838706   -268.16018    1362.0801    5181.9145    9.6109758   0.20431408 
   68700   -287.11151    18.146567   -268.96495     1312.037    1693.8586    9.5950333   0.17605321 
   68800   -288.28319    17.308509   -270.97468    1251.4435   -3661.6931    9.5896441    0.1548547 
   68900   -289.80039    15.026191    -274.7742    1086.4269    -8558.864    9.6189736   0.15039312 
   69000   -287.27261    15.909215   -271.36339    1150.2715    12437.551    9.7148376    0.1521971 
   69100     -286.721    16.860292   -269.86071    1219.0364    588.50358    9.5912174   0.17574341 
   69200   -286.61698    17.092783    -269.5242     1235.846   -2019.9914    9.5288476   0.18151741 
   69300   -284.21972     17.31754   -266.90218    1252.0964    8603.8717    9.5495344   0.22343386 
   69400   -282.59789    17.375607   -265.22229    1256.2948    1578.1535    9.3858674   0.23420783 
   69500   -285.43599    15.754582    -269.6814    1139.0912   -11322.759    9.3953006    0.2040047 
   69600   -285.92088    15.852294   -270.06859    1146.1559    7311.7036    9.6059007    0.1827491 
   69700   -287.12137    17.992515   -269.12885    1300.8987    8278.7603    9.6537545   0.18999657 
   69800    -280.8674    17.556195    -263.3112    1269.3517   -11071.987    9.1786181   0.40601336 
   69900   -283.15737    17.254473    -265.9029    1247.5366   -3384.2219    9.3722681   0.28086958 
   70000   -284.35061    14.788002   -269.56261    1069.2052    14782.754    9.6588273   0.22409259 
   70100   -286.87134    17.380435   -269.49091    1256.6439     4743.879    9.6205313   0.18098075 
   70200   -285.48079    19.258328   -266.22246    1392.4197    404.88255    9.4753038   0.20074401 
   70300   -282.31927    20.131753   -262.18752    1455.5703   -3836.4743    9.3156759    0.2648482 
   70400   -285.45021     17.55515   -267.89506    1269.2762    12063.311    9.6650111   0.17432928 
   70500   -288.17366    18.974352   -269.19931    1371.8876   -5636.2322    9.5282514   0.16725565 
   70600    -286.2074    16.517003    -269.6904    1194.2158    3596.3219    9.5525632   0.17248064 
   70700   -288.54313    18.193418   -270.34971    1315.4244    4116.2266    9.6699271   0.15383423 
   70800   -290.51121    14.910561   -275.60065    1078.0665   -10637.221    9.6143684   0.13992209 
   70900   -287.25271    13.986805   -273.26591    1011.2769   -1371.5514    9.5802208    0.1623299 
   71000   -289.21873    18.968281   -270.25045    1371.4487   -139.22674    9.6422258   0.16478707 
   71100   -286.29548    17.797441   -268.49804    1286.7944     19012.08    9.7433424   0.15987358 
   71200    -285.2276    17.174658   -268.05294    1241.7658    8047.4435     9.575369   0.19307613 
   71300   -284.72468    15.100322   -269.62435    1091.7867   -4379.5243    9.4220895   0.25957519 
   71400   -287.63543    14.972762   -272.66267    1082.5638   -7273.8504    9.4950872   0.17136452 
   71500   -284.28775      14.3561   -269.93165    1037.9778     5112.296    9.5209001   0.21280392 
   71600   -285.26717     16.33285   -268.93432    1180.9012    8790.9587    9.5771392   0.23676677 
   71700   -286.11825    19.078853    -267.0394    1379.4433    -2217.721    9.5064426   0.19405008 
   71800   -288.67203    16.044617   -272.62741    1160.0613    2309.8006     9.682383   0.15711087 
   71900   -287.83528    16.739468   -271.09581    1210.3006    6747.3602    9.6714086   0.16670711 
   72000   -286.51869     17.47466   -269.04403    1263.4566     2366.715    9.5790533   0.18738693 
   72100   -285.67953    19.057317   -266.62221    1377.8862   -6120.5875    9.4455982   0.20408853 
   72200    -286.2176    16.513597   -269.70401    1193.9696   -10846.788    9.4121087   0.24574128 
   72300   -287.97692    17.265599   -270.71132     1248.341   -8144.6263    9.5227055   0.20999658 
   72400   -284.86207    16.892282   -267.96978    1221.3493    3548.2551    9.5327544   0.20328876 
   72500   -286.25735    17.895374   -268.36198    1293.8751   -1880.5777    9.5130252   0.20193094 
   72600    -288.8143    15.922417   -272.89189    1151.2259    2949.4572    9.6624346   0.17490261 
   72700   -285.49751    15.113772   -270.38374    1092.7592    12684.102    9.6462064   0.18136938 
   72800   -284.85446     17.05617   -267.79829    1233.1988     -10377.5    9.3615616   0.22237443 
   72900   -282.02782    15.438911   -266.58891    1116.2674    3940.4975     9.394888   0.22862781 
   73000    -287.8974    15.850029   -272.04737    1145.9921   -3797.5773    9.5824259   0.16156327 
   73100   -287.48892    17.166302   -270.32262    1241.1616     6157.704    9.6651081   0.17445541 
   73200   -285.10769    16.363045   -268.74464    1183.0843    12804.709    9.6435184   0.19718477 
   73300   -285.92742    18.699615   -267.22781    1352.0236   -10155.859    9.4120587   0.20272021 
   73400   -282.70264    19.256033   -263.44661    1392.2538   -5438.1571    9.3083171   0.25989043 
   73500    -284.8954    16.321306   -268.57409    1180.0665   -2628.7238    9.4350985   0.20580032 
   73600   -286.75703    17.453387   -269.30364    1261.9185   -12411.971    9.4436692   0.19590908 
   73700   -287.97839     18.95416   -269.02423    1370.4277    14868.224    9.7586462   0.17676937 
   73800   -283.45882    19.169589   -264.28923    1386.0037    13824.771    9.5681462    0.1881434 
   73900   -284.09558    17.408441   -266.68714    1258.6688   -4309.9962    9.3772051   0.20357491 
   74000   -285.58028    15.445269   -270.13501    1116.7271    5119.5155    9.5644497   0.20277755 
   74100   -285.59428    16.747749   -268.84653    1210.8993    6792.9773    9.5884383   0.17470218 
   74200   -285.24239    18.965086    -266.2773    1371.2177   -848.91942    9.4803738   0.20874651 
   74300   -287.48724     15.85326   -271.63398    1146.2258    15211.794    9.7659762   0.17839026 
   74400   -287.67426    16.252279   -271.42198    1175.0757   -4806.9773    9.5572352   0.16388291 
   74500   -285.05271    15.525355   -269.52736    1122.5175   -10401.338    9.3762376   0.23351158 
   74600   -285.65837     17.95154   -267.70683     1297.936    -10387.24    9.3744903   0.21582559 
   74700    -288.3843    15.662959   -272.72134    1132.4666    10842.751    9.7683345   0.13028442 
   74800   -289.63802    18.783404   -270.85462    1358.0817    9730.5865    9.7821925   0.15755405 
   74900    -285.5662    17.099059   -268.46714    1236.2998   -4549.7729    9.4750814   0.19982079 
   75000   -285.08623    15.264496   -269.82173    1103.6568   -13878.873    9.3686319   0.19149034 
   75100   -288.71738    14.818331   -273.89905    1071.3981   -3555.5314    9.6147862   0.14031607 
   75200   -286.07373    16.616889   -269.45684    1201.4379    6049.0143    9.5951476   0.18184703 
   75300     -283.686    15.361102    -268.3249    1110.6417    10352.314    9.5404745   0.18733605 
   75400   -287.53899    15.571961   -271.96703    1125.8872   -5480.7693    9.5556322   0.17907075 
   75500   -288.71469    16.511727   -272.20296    1193.8344   -7694.0527    9.5563706   0.15606372 
   75600   -287.78701    19.590839   -268.19617     1416.461    14021.689    9.7316167   0.14870174 
   75700   -284.33918    15.934176   -268.40501    1152.0761    9123.3656    9.5688512   0.19750552 
   75800   -284.47189    17.039538   -267.43235    1231.9963    -5974.559    9.3816463   0.19369321 
   75900   -288.18286    15.592246   -272.59062    1127.3539   -8199.2217    9.5567711   0.17719914 
   76000   -287.38273    16.749377   -270.63336     1211.017    3021.9829      9.62048   0.19755336 
   76100    -288.7818     20.82227   -267.95953    1505.4962   -944.38258    9.6214223   0.19781957 
   76200   -285.45319    17.207883   -268.24531     1244.168    12658.506    9.6400772   0.18947706 
   76300   -290.19788    17.233325   -272.96456    1246.0076   -18784.544    9.5023705   0.14891377 
   76400   -286.28452    16.775184   -269.50934    1212.8829    7090.5658    9.6230683     0.206422 
   76500   -285.59081    17.295293   -268.29552    1250.4879    6372.7974    9.5774913   0.20895078 
   76600   -286.35789    14.051686   -272.30621     1015.968    3912.3914    9.6192006   0.19596117 
   76700   -287.59963    15.760858   -271.83877    1139.5449   -16772.725    9.4290722   0.17896441 
   76800   -286.11717    17.361797   -268.75537    1255.2963    509.75275    9.5367274   0.16227544 
   76900   -284.75007    15.881722   -268.86834    1148.2836    15614.751    9.6341546   0.20019588 
   77000   -282.35562    18.076126    -264.2795    1306.9439   -3224.8392    9.3203939   0.24269134 
   77100   -282.89446    16.117504   -266.77696    1165.3312   -212.39081    9.3798454   0.25267037 
   77200   -286.82565    17.841197   -268.98445     1289.958    13779.106      9.71108   0.18836853 
   77300   -287.55824    17.940503   -269.61774     1297.138    3603.3488    9.6477472   0.17913055 
   77400   -287.85506    15.676231   -272.17883    1133.4261    -9440.992    9.5242411   0.17698689 
   77500   -289.89328    14.140134   -275.75315    1022.3629    5663.0067    9.7585343   0.14753902 
   77600   -287.51696    16.874219   -270.64274    1220.0433    7999.2041    9.6855637   0.16611294 
   77700   -288.86242    19.291714   -269.57071    1394.8336   -5254.2946    9.5879952     0.165282 
   77800   -285.84061    16.327192   -269.51342    1180.4921    9452.1549    9.6213727   0.20885771 
   77900    -283.2828    18.146511   -265.13629    1312.0328   -4092.6416    9.3847904   0.25732891 
   78000   -285.09735    18.053135   -267.04421    1305.2816   -4332.9098    9.4261171   0.22277311 
[...]
  481400   -284.65849    18.982775   -265.67571    1372.4966    6173.6297    9.5420734   0.22122164 
  481500   -284.42574    18.287232   -266.13851    1322.2073   -7948.6061    9.3709937    0.2281634 
  481600   -286.97245    16.716842   -270.25561    1208.6647   -10677.442    9.4607162   0.19121427 
  481700   -287.03392    17.300458   -269.73346    1250.8613    2026.4769    9.5953848   0.18509788 
  481800   -286.37125    21.328038   -265.04321    1542.0643   -5671.9441    9.4375454   0.21345014 
  481900   -284.68802    17.406841   -267.28118    1258.5531   -4286.7989    9.4030591   0.21324253 
  482000   -285.66599    15.032096    -270.6339    1086.8538    912.15626    9.5531314   0.17812919 
  482100   -285.65581    15.965151   -269.69066    1154.3157    2692.7241    9.5379453    0.1775252 
  482200   -282.84181    16.932451   -265.90936    1224.2536    5365.2041    9.4346567   0.22381685 
  482300   -285.78535    16.154927   -269.63042    1168.0369    1257.3487    9.5204102   0.18661358 
  482400     -288.205    17.470007     -270.735    1263.1201   -8699.7519    9.5312784   0.19374455 
  482500   -286.05588    17.731477    -268.3244     1282.025    11005.698    9.6610892   0.20535772 
  482600   -287.05034    17.120849   -269.92949    1237.8752   -1148.6032    9.5587261   0.18507229 
  482700   -289.24554    15.933362   -273.31218    1152.0173    2802.5321    9.7192584    0.1511439 
  482800    -285.9193    16.686065   -269.23323    1206.4394   -3352.6313    9.5017847    0.1783122 
  482900   -285.15272    16.090039   -269.06269    1163.3454   -9603.8312    9.3953214   0.20127314 
  483000   -286.88277    15.518971    -271.3638     1122.056    3039.8259     9.626562   0.17434308 
  483100   -290.30541    16.239187   -274.06623    1174.1291   -9705.3421     9.630764   0.14049187 
  483200    -287.8304    17.943164   -269.88723    1297.3305   -4969.5997    9.5378598    0.1677601 
  483300   -285.70222    17.388774   -268.31344    1257.2468     17948.85    9.7314187   0.17584368 
  483400    -286.6398    18.197205    -268.4426    1315.6982    4425.0336      9.62053    0.1633481 
  483500   -289.36068    15.481878    -273.8788     1119.374    8108.3034    9.7499162    0.1396522 
  483600   -286.28246    15.548029   -270.73443    1124.1569   -7425.3384    9.4618464   0.18268749 
  483700   -286.71709     18.34392   -268.37317     1326.306   -4835.4683    9.5094024   0.18165315 
  483800   -288.83172    19.054604   -269.77711      1377.69   -4051.3924    9.5746664   0.16893089 
  483900    -287.8245    14.555332   -273.26917    1052.3827    798.35496    9.6261779   0.17366119 
  484000   -285.84245    16.651531   -269.19092    1203.9425    3587.3352    9.5594056   0.18856002 
  484100   -285.81185    16.247584   -269.56427    1174.7363   -12585.239    9.3976322   0.21643629 
  484200   -285.25146    14.854464   -270.39699    1074.0106   -14276.121    9.3477484    0.2475886 
  484300   -281.88097    17.163777   -264.71719    1240.9791    6329.3491    9.4442311   0.33057085 
  484400   -285.94657    18.031001   -267.91557    1303.6812    6279.7291    9.5802943   0.25464625 
  484500   -286.53024    16.963395   -269.56685     1226.491    -2386.614    9.5276869   0.19827148 
  484600   -285.43812    13.872006   -271.56611    1002.9767   -2099.0405    9.5092414   0.23312996 
  484700   -284.90028    17.950359   -266.94992    1297.8507   -6801.4025    9.3983518   0.21749571 
  484800   -284.93312    16.412854   -268.52026    1186.6857    6893.9024    9.5500436   0.17846631 
  484900   -287.52386    16.496265   -271.02759    1192.7164    2052.4142    9.6156655   0.18004842 
  485000   -285.61926    17.406302   -268.21296    1258.5141   -674.30761    9.4921815   0.19361357 
  485100   -285.20896    18.827541   -266.38142    1361.2728   -5977.8175    9.4424833   0.20358098 
  485200   -289.83479    17.853775   -271.98102    1290.8674    9085.5834    9.7622571   0.13736467 
  485300   -287.98299    17.277959   -270.70503    1249.2346   -610.01091    9.6106237   0.16216543 
  485400   -285.06066    17.480567   -267.58009    1263.8836     3376.873    9.5337533   0.19754507 
  485500   -285.82589    15.101501   -270.72439     1091.872    2092.7507    9.5564452   0.21753729 
  485600   -286.81166    15.555248   -271.25641    1124.6788   -15934.778    9.4103453   0.18736272 
  485700   -283.61775     15.92469   -267.69306    1151.3903   -566.93515     9.433314   0.25600941 
  485800   -285.66468    17.734587   -267.93009    1282.2499    5318.8822    9.5330175   0.19379907 
  485900   -288.26617    16.705704   -271.56047    1207.8594    1779.3918    9.6273565   0.14875744 
  486000   -286.74919    17.731261   -269.01793    1282.0094   -14198.556    9.4124385   0.17005764 
  486100   -284.04609    17.043506   -267.00258    1232.2832   -4519.7165    9.3843388    0.2425063 
  486200     -288.863    17.643995   -271.21901    1275.6998    2965.3953    9.6929511   0.17096263 
  486300   -289.97087    19.749134   -270.22173     1427.906    12382.696    9.8184376   0.12644195 
  486400   -288.41513    22.183759   -266.23137    1603.9349    -7724.758    9.5145601    0.1722452 
  486500   -286.89074     18.33641   -268.55433     1325.763     812.7892    9.5563235   0.16429871 
  486600   -287.60035    16.505829   -271.09453     1193.408   -3042.8066    9.5762598    0.1827236 
  486700   -283.41014    15.526679   -267.88346    1122.6132   -1905.4777    9.4192382   0.22205262 
  486800   -284.81098      17.8156   -266.99538    1288.1073    4011.1254    9.5147567   0.25722669 
  486900   -287.89568    17.134084    -270.7616    1238.8322    1195.6528    9.6071586   0.15972378 
  487000   -287.40686    16.781871   -270.62499    1213.3664   -3955.9727     9.525674   0.16649341 
  487100   -282.79204    15.996424   -266.79562    1156.5769   -3760.5587    9.3575209   0.23955487 
  487200   -285.91445    15.450248   -270.46421    1117.0871   -7166.2721    9.4767297   0.24541122 
  487300   -288.82207    18.065165   -270.75691    1306.1514    4523.8943    9.6939463   0.16828882 
  487400   -285.11038    19.212094   -265.89828    1389.0769    9200.2715    9.5666302   0.21913145 
  487500   -285.13381    16.654553   -268.47926    1204.1611   -8325.9419    9.4044607   0.20314296 
  487600   -286.68661    15.722355   -270.96425     1136.761   -4611.6724    9.5269044   0.18186156 
  487700   -287.54187    19.685471    -267.8564    1423.3031    6201.9741    9.6407414    0.1672227 
  487800   -283.73846    17.496216   -266.24224    1265.0151    4848.4906    9.5079188   0.22511379 
  487900   -288.25653    16.983354   -271.27318    1227.9341   -6037.0334    9.5653128   0.16233174 
  488000   -288.02984    17.975432   -270.05441    1299.6635   -2930.5366    9.5688192   0.17067078 
  488100   -285.25141     19.00671    -266.2447    1374.2272    5825.4685      9.55698   0.20307404 
  488200   -287.61354    17.191103   -270.42244    1242.9548    10723.139    9.6999992   0.15789252 
  488300   -287.31731     15.75326   -271.56405    1138.9955   -5338.8377     9.551334   0.18303005 
  488400   -285.82486     17.87067   -267.95419     1292.089   -18412.601    9.3321537   0.17265738 
  488500   -287.24981    17.418482   -269.83133    1259.3948    7543.2085    9.6635913   0.19889856 
  488600   -289.86266    17.131431   -272.73123    1238.6403    12128.043    9.8091646   0.14901734 
  488700   -287.76802      17.1979   -270.57012    1243.4462    1619.0823    9.6434179   0.15464151 
  488800   -286.30748    18.350231   -267.95725    1326.7623    -6202.595    9.4557996   0.20782837 
  488900   -285.93684    15.802052   -270.13479    1142.5233    2451.0975    9.5581887    0.1895036 
  489000   -287.62172    15.014594   -272.60712    1085.5884    -8432.422    9.5226909   0.17344816 
  489100   -284.59795    16.787468   -267.81049    1213.7711    8403.6383    9.5631172   0.18170575 
  489200   -288.02151    19.731532   -268.28998    1426.6334    913.36655    9.6025788    0.1918813 
  489300    -287.5378    14.984652   -272.55314    1083.4235    12301.042    9.7324943   0.16223064 
  489400   -284.39319    15.097632   -269.29556    1091.5922    5393.5413    9.5288363   0.24083744 
  489500   -285.17993    17.207529    -267.9724    1244.1424   -7654.6526    9.3828639   0.23655371 
  489600   -284.95285    16.278693   -268.67415    1176.9855   -8930.2967    9.3712754   0.22500834 
  489700   -288.38873    15.125343   -273.26339    1093.5958   -6102.6819    9.5568353   0.16083712 
  489800   -287.44409    16.067782   -271.37631    1161.7361   -5222.3648    9.5247282    0.1920421 
  489900   -284.27309    15.480005   -268.79309    1119.2386    6131.6407    9.5501906   0.20221103 
  490000   -285.08804     15.42292   -269.66512    1115.1112    4807.6571     9.538516   0.20559845 
  490100   -287.95596    13.890804   -274.06516    1004.3358   -4345.2317    9.5503365   0.16145578 
  490200   -286.62556    14.801962    -271.8236    1070.2146   -2360.6314     9.531005   0.18085966 
  490300   -286.62993    17.162059   -269.46787    1240.8548    5414.6415    9.6153172   0.16885612 
  490400   -288.94669    19.161043   -269.78564    1385.3858   -5333.1311    9.5601256   0.16163169 
  490500   -286.19821    16.650926   -269.54728    1203.8988    15971.259     9.716744   0.18724617 
  490600   -283.26262    19.248609   -264.01401     1391.717   -3249.1476    9.3804191    0.2617277 
  490700   -285.64537    17.426163   -268.21921    1259.9501   -10940.871    9.4043447   0.22666198 
  490800   -285.64414    15.552799   -270.09134    1124.5018   -1124.2124    9.5341367   0.21255306 
  490900   -287.75351    16.926769   -270.82674    1223.8428     2364.197    9.6197817    0.1699849 
  491000   -284.02369    18.522361   -265.50133    1339.2077    8678.3551    9.5275611   0.22854881 
  491100   -285.57812    17.725983   -267.85214    1281.6278   -7933.4278    9.3939379   0.21357629 
  491200   -286.59652    15.662521     -270.934    1132.4349   -8774.2957      9.47992   0.19061305 
  491300   -287.74411    17.372661   -270.37145    1256.0818    1343.9927    9.6003463   0.17099494 
  491400     -283.596    17.604823   -265.99117    1272.8676    12934.614    9.5837429   0.21728341 
  491500    -286.3805    16.223701    -270.1568    1173.0095   -332.25504    9.5533227   0.20594152 
  491600   -287.27179    16.353319   -270.91848    1182.3811   -5784.7614    9.5302074   0.20108837 
  491700   -282.75615    16.632324   -266.12382    1202.5538   -13569.605    9.2560778   0.25725372 
  491800   -284.32581    16.001732   -268.32407    1156.9606     -13201.1    9.3237335    0.2264399 
  491900   -286.03202    15.431815    -270.6002    1115.7543    3455.1895    9.5922655   0.19397372 
  492000   -287.26277    19.117595   -268.14517    1382.2444    14509.075    9.7297072   0.16555084 
  492100   -285.38051    18.923768   -266.45674    1368.2303     1216.318    9.5122614   0.18224332 
  492200    -288.7805    17.436626   -271.34388    1260.7066    2699.6506    9.6696234   0.17324053 
  492300    -288.6274    19.323536   -269.30386    1397.1344    5914.9018     9.694507    0.1469982 
  492400   -286.20211    17.057427   -269.14468    1233.2897    4412.9794    9.5760852   0.19523707 
  492500   -288.39559    15.551143   -272.84445     1124.382   -4287.9693    9.5664849    0.2003939 
  492600   -287.09079      14.3439   -272.74689    1037.0957   -10302.319    9.4920241   0.21731495 
  492700   -286.14682    17.006062   -269.14075    1229.5759   -13817.207    9.3851817   0.22265231 
  492800    -286.4443    16.567608   -269.87669    1197.8747    11957.909    9.6715914   0.14889065 
  492900   -288.13026    16.193004   -271.93725      1170.79    9554.2276     9.726798   0.13327278 
  493000    -290.0697    15.648741   -274.42096    1131.4386   -5871.8495     9.640297     0.149427 
  493100   -291.25587    13.315662   -277.94021    962.75185   -5574.8366    9.7073364   0.13030137 
  493200   -288.81088    16.282212   -272.52867      1177.24    3236.3047    9.6906017   0.16956021 
  493300   -287.44198     16.43619   -271.00579    1188.3729   -595.04349     9.595622   0.18409921 
  493400    -285.3234    16.079027   -269.24437    1162.5492   -4424.6838    9.4542692   0.20174951 
  493500    -284.5419    16.488657   -268.05324    1192.1664    2305.2024    9.4930731   0.25052844 
  493600   -281.76472    17.729508   -264.03521    1281.8827   -3421.8405    9.3274629   0.25325684 
  493700   -281.98551    17.599891   -264.38562    1272.5111    -5563.505    9.2614765   0.31198446 
  493800   -283.85709    16.363123   -267.49396      1183.09   -19980.472    9.2186868   0.26749703 
  493900   -285.02748    15.265875    -269.7616    1103.7565   -7243.6053    9.4279256   0.21408204 
  494000   -286.37397     16.55939   -269.81458    1197.2805     10728.54     9.669952   0.18514164 
  494100   -281.89974    16.597448   -265.30229    1200.0322    13423.677    9.4827815   0.23907348 
  494200   -286.11139     16.41004   -269.70135    1186.4822    1181.4445    9.5379464    0.1939157 
  494300   -285.62802    15.262269   -270.36575    1103.4958    1731.8809    9.5370393   0.19049366 
  494400   -286.70493    17.240235   -269.46469    1246.5072    2490.4133    9.5886959   0.19871401 
  494500   -283.79618    17.594628   -266.20156    1272.1305   -3253.5571    9.4057745   0.30109326 
  494600   -284.41702    19.492787   -264.92423    1409.3716   -2818.2152    9.4265391   0.26397886 
  494700   -288.39149    19.580761   -268.81073    1415.7323   -6139.4872     9.556769   0.17614345 
  494800   -286.23167    16.331398   -269.90027    1180.7962   -10051.683    9.4221424   0.18394877 
  494900   -287.22524    17.335475   -269.88977    1253.3932   -11374.378    9.4634186   0.17219162 
  495000    -280.5574    17.190766   -263.36664    1242.9304    15928.888    9.4805147   0.26364006 
  495100   -285.00421    18.320274   -266.68394    1324.5963   -1720.5437    9.4670235    0.2359247 
  495200   -287.12303    17.566156   -269.55687    1270.0719    -17550.05    9.3924779   0.17008732 
  495300   -288.29228    16.785684   -271.50659    1213.6421   -7515.6303    9.5430957   0.16790162 
  495400    -286.0888     16.16445   -269.92435    1168.7255    5402.8937    9.5926764   0.19862686 
  495500    -284.2582    17.566528   -266.69168    1270.0988      3931.59    9.5107662   0.21943641 
  495600   -287.71363    18.178596   -269.53504    1314.3527   -1271.1523    9.5783422   0.16028684 
  495700   -288.10267    16.516064    -271.5866     1194.148   -4220.5971    9.5697215   0.16306542 
  495800    -284.4145    16.607314   -267.80719    1200.7455    6852.3946    9.5378217   0.20416831 
  495900   -284.67579    18.108796   -266.56699     1309.306    4466.6311    9.5068655   0.20094862 
  496000   -286.97717    16.321065    -270.6561    1180.0491    -784.5027    9.5681431    0.1487749 
  496100   -287.51143    16.369375   -271.14205     1183.542   -1960.7785    9.5581484   0.15695202 
  496200   -284.11855    18.318304   -265.80025    1324.4539   -2576.2474    9.4195483   0.22152928 
  496300   -285.95108    19.707156   -266.24392    1424.8709    1105.3701    9.5077514   0.21063916 
  496400   -288.43105    17.619925   -270.81113    1273.9595    9395.3289    9.7330459   0.15330573 
  496500   -286.03299    15.499074   -270.53392    1120.6173    2302.6773    9.5667357   0.18286198 
  496600   -282.42054    16.242509   -266.17803    1174.3693   -13536.272    9.2151016   0.23621303 
  496700   -285.88224    17.849836   -268.03241    1290.5827    537.72016    9.5402299   0.19341644 
  496800   -288.36131    17.219477   -271.14183    1245.0063    5667.5054    9.6967756    0.1901784 
  496900   -285.90326    17.086973   -268.81629    1235.4259    3137.7663    9.5896028   0.16300251 
  497000   -287.34207    17.601565   -269.74051    1272.6321    996.17409    9.5944414   0.18165093 
  497100   -289.04025    14.362551    -274.6777    1038.4442    -2681.032    9.6289931   0.15338023 
  497200   -285.89849    14.782143   -271.11635    1068.7817   -13937.401    9.4019967   0.21983554 
  497300   -285.60306    16.311806   -269.29125    1179.3797     1919.117    9.5348593   0.19897209 
  497400    -286.4952    16.968333   -269.52687     1226.848    3032.7208    9.5859633   0.19806407 
  497500   -287.57445     14.92367   -272.65078    1079.0144    5677.4591    9.6596244   0.15376612 
  497600   -288.75124    14.913588   -273.83766    1078.2854    15838.183     9.807275   0.14614398 
  497700   -287.71762    18.002852   -269.71477     1301.646   -6276.4593    9.5433404   0.18319917 
  497800   -287.32874    18.741613   -268.58713    1355.0601   -6203.7204    9.5083212   0.17096625 
  497900   -286.43964    16.476701   -269.96294    1191.3019    1759.4302    9.5909941   0.16872993 
  498000   -289.35861    15.638055   -273.72056     1130.666    8790.0493    9.7821448   0.15271011 
  498100   -287.12997    17.257819   -269.87215    1247.7785    231.51309    9.5806001   0.16968388 
  498200   -286.14159    17.358887   -268.78271    1255.0859   -12738.979    9.3968507   0.18753137 
  498300   -288.30224    16.890917   -271.41133    1221.2507    -16560.57    9.4174498   0.17202509 
  498400   -288.83592    15.104887   -273.73103    1092.1168    11409.838    9.7938019   0.14154438 
  498500   -286.35856    19.045976   -267.31258    1377.0662    11082.812    9.6532406   0.17229139 
  498600   -285.69405    17.250583   -268.44346    1247.2553    4432.4378    9.5574898   0.19219861 
  498700   -286.58734    16.414194   -270.17315    1186.7826   -6064.6076     9.492925   0.23934511 
  498800   -287.28377    16.522056   -270.76172    1194.5812   -4573.5794    9.5327408   0.20194103 
  498900   -291.64537    15.630713   -276.01466    1130.1351   -5524.5504    9.6859107   0.11714391 
  499000   -288.48194    16.268662   -272.21328    1176.2602   0.23971927     9.630976   0.18252255 
  499100   -286.41037    16.343644   -270.06673    1181.6816    1738.8193    9.5854809   0.19617357 
  499200   -286.20652    17.925994   -268.28053     1296.089   -5630.7257    9.4786533   0.17099576 
  499300   -287.64328    17.378888   -270.26439     1256.532     7379.858    9.6425263   0.16740082 
  499400   -290.26173    18.080598   -272.18113    1307.2672   -2591.6836    9.6681588   0.13345535 
  499500   -285.78426    16.973418   -268.81084    1227.2157   -18955.329    9.3107905   0.19112763 
  499600   -284.64738     15.58258    -269.0648     1126.655   -14326.917     9.298487   0.26255093 
  499700   -287.72141    14.670216    -273.0512     1060.689    4268.8689    9.6755371   0.16674603 
  499800   -287.68979    17.482132   -270.20766    1263.9968    10446.241     9.730015   0.19593011 
  499900   -285.80881    17.626113    -268.1827    1274.4069    4987.5085     9.566821   0.19091641 
  500000    -287.4241    16.854147   -270.56995    1218.5921    2657.2136    9.6313477    0.1683501 
Loop time of 151.455 on 1 procs for 500000 steps with 108 atoms

Performance: 1426.162 ns/day, 0.017 hours/ns, 3301.302 timesteps/s
100.0% CPU use with 1 MPI tasks x no OpenMP threads

MPI task timing breakdown:
Section |  min time  |  avg time  |  max time  |%varavg| %total
---------------------------------------------------------------
Pair    | 90.279     | 90.279     | 90.279     |   0.0 | 59.61
Neigh   | 5.2073     | 5.2073     | 5.2073     |   0.0 |  3.44
Comm    | 2.5222     | 2.5222     | 2.5222     |   0.0 |  1.67
Output  | 0.12085    | 0.12085    | 0.12085    |   0.0 |  0.08
Modify  | 52.802     | 52.802     | 52.802     |   0.0 | 34.86
Other   |            | 0.524      |            |       |  0.35

Nlocal:    108 ave 108 max 108 min
Histogram: 1 0 0 0 0 0 0 0 0 0
Nghost:    990 ave 990 max 990 min
Histogram: 1 0 0 0 0 0 0 0 0 0
Neighs:    4944 ave 4944 max 4944 min
Histogram: 1 0 0 0 0 0 0 0 0 0

Total # of neighbors = 4944
Ave neighs/atom = 45.7778
Neighbor list builds = 22479
Dangerous builds = 0
Total wall time: 0:02:31
