LAMMPS (3 Mar 2020)

# ---------- 1. Initialize simulation ----------
units metal
atom_style atomic
dimension 3
boundary p p p
read_data /home/modeler/RemLabs/Project/arrhenius_4/T1800.0/n3_T1800.0_timestep3.000000e-03_eqsteps3200_time600_rseed3334/20201205-151227/lammps.data
  orthogonal box = (0 0 0) to (17.469 17.469 17.469)
  1 by 1 by 1 MPI processor grid
  reading atoms ...
  217 atoms
  read_data CPU = 0.00102546 secs

pair_style meam/c
pair_coeff * * library.meam Li Si LiSi.meam Li Si
Reading potential file library.meam with DATE: 2012-06-29
Reading potential file LiSi.meam with DATE: 2020-11-07

group Li type 1
1 atoms in group Li
group Si type 2
216 atoms in group Si

velocity all create 1800.0 3334 dist gaussian

# ---------- 2. Specify equilibration ensemble  ----------
fix 1 all npt temp 1800.0 1800.0 0.15 tchain 2 iso 1.0 1.0 1.0 pchain 2
# fix 1 all nvt temp 1800.0 1800.0 0.15

# ---------- 3. Run equilibration -------------
timestep 0.003
run 3200
Neighbor list info ...
  update every 1 steps, delay 10 steps, check yes
  max neighbors/atom: 2000, page size: 100000
  master list distance cutoff = 6
  ghost atom cutoff = 6
  binsize = 3, bins = 6 6 6
  2 neighbor lists, perpetual/occasional/extra = 2 0 0
  (1) pair meam/c, perpetual
      attributes: full, newton on
      pair build: full/bin/atomonly
      stencil: full/bin/3d
      bin: standard
  (2) pair meam/c, perpetual, half/full from (1)
      attributes: half, newton on
      pair build: halffull/newton
      stencil: none
      bin: none
Per MPI rank memory allocation (min/avg/max) = 8.895 | 8.895 | 8.895 Mbytes
Step Temp E_pair E_mol TotEng Press Volume 
       0         1800   -951.04357            0   -900.78722   -114161.75    5330.9442 
    3200    1852.7062   -942.26069            0   -890.53278    5218.9625    4625.5439 
Loop time of 2.29225 on 1 procs for 3200 steps with 217 atoms

Performance: 361.845 ns/day, 0.066 hours/ns, 1396.005 timesteps/s
100.0% CPU use with 1 MPI tasks x no OpenMP threads

MPI task timing breakdown:
Section |  min time  |  avg time  |  max time  |%varavg| %total
---------------------------------------------------------------
Pair    | 2.1628     | 2.1628     | 2.1628     |   0.0 | 94.35
Neigh   | 0.078035   | 0.078035   | 0.078035   |   0.0 |  3.40
Comm    | 0.015894   | 0.015894   | 0.015894   |   0.0 |  0.69
Output  | 2.4547e-05 | 2.4547e-05 | 2.4547e-05 |   0.0 |  0.00
Modify  | 0.03038    | 0.03038    | 0.03038    |   0.0 |  1.33
Other   |            | 0.005159   |            |       |  0.23

Nlocal:    217 ave 217 max 217 min
Histogram: 1 0 0 0 0 0 0 0 0 0
Nghost:    957 ave 957 max 957 min
Histogram: 1 0 0 0 0 0 0 0 0 0
Neighs:    4194 ave 4194 max 4194 min
Histogram: 1 0 0 0 0 0 0 0 0 0
FullNghs:  8388 ave 8388 max 8388 min
Histogram: 1 0 0 0 0 0 0 0 0 0

Total # of neighbors = 8388
Ave neighs/atom = 38.6544
Neighbor list builds = 133
Dangerous builds = 0

# ---------- 4. Describe computed properties----------
compute msdli Li msd
compute msdsi Si msd
thermo_style custom step pe ke etotal temp press density c_msdli[4] c_msdsi[4]
thermo 100

# ---------- 3. Run production -------------
timestep 0.003
run 200000
Per MPI rank memory allocation (min/avg/max) = 9.661 | 9.661 | 9.661 Mbytes
Step PotEng KinEng TotEng Temp Press Density c_msdli[4] c_msdsi[4] 
    3200   -942.26069    51.727912   -890.53278    1852.7062    5218.9625    2.1803507            0 2.8439566e-32 
    3300    -944.7873     50.32004   -894.46726    1802.2813   -7870.3885    2.1491325  0.077797982   0.12245785 
    3400   -933.88429    49.946892    -883.9374    1788.9165    219.56788    2.1467392    1.0950781   0.14714028 
    3500   -937.76072    50.192143   -887.56858    1797.7005    10413.979    2.1858803   0.28060331   0.15693975 
    3600   -940.65352    47.494088   -893.15943     1701.066   -2024.0674    2.1557376   0.24115374   0.18087421 
    3700   -939.22556    52.276654   -886.94891    1872.3602   -8282.2033     2.135841   0.15181176   0.15711443 
    3800   -937.02651    54.620542   -882.40596    1956.3097    8032.3001    2.1720355  0.097790153   0.14714123 
    3900   -941.25194    49.092805   -892.15914    1758.3262    3787.3629    2.1770172   0.12610949   0.17553782 
    4000   -936.99978    46.124894   -890.87489    1652.0264   -7088.3304    2.1390461   0.32812399   0.14284123 
    4100   -938.09421    54.192487   -883.90172    1940.9783    557.48993    2.1579168   0.44575837   0.14733274 
    4200   -943.39609    49.604072   -893.79202     1776.638    10818.146    2.1943953   0.25139832   0.15088936 
    4300   -942.79691    50.051749   -892.74517    1792.6721   -11411.538    2.1384069   0.15900562   0.15883676 
    4400   -935.51353    47.749574   -887.76396    1710.2166   -1711.0075    2.1457133  0.090529608   0.18321121 
    4500   -940.23703    47.439249   -892.79779    1699.1019    14900.787    2.1949463   0.86528102   0.18314583 
    4600   -946.12814    48.609836   -897.51831    1741.0281   -3210.0074    2.1676086   0.11066733   0.17770815 
    4700   -940.47018    51.361791   -889.10839    1839.5931   -12712.515    2.1289542   0.21189858   0.15369666 
    4800   -938.88588    49.996994   -888.88888     1790.711    8555.6873    2.1785341   0.20990027   0.15297886 
    4900   -944.38376    48.505018   -895.87875    1737.2738    5918.5287    2.1863552   0.15525482   0.13488166 
    5000    -935.1949    49.596273   -885.59862    1776.3586   -9667.9942     2.124018   0.11985628   0.15409258 
    5100   -938.50588    50.364363   -888.14152    1803.8688    2473.2469    2.1652768   0.13076828    0.1747781 
    5200   -943.24955     51.05212   -892.19743    1828.5018    6665.7787     2.182117  0.088494597   0.17497517 
    5300   -937.71831    51.431186   -886.28712    1842.0786   -6398.0363    2.1376844   0.28004905   0.17060595 
    5400   -930.85019    45.666917   -885.18327    1635.6234    1200.9388    2.1418891   0.40414936   0.18496208 
    5500   -942.91282    51.795328   -891.11749    1855.1208    8755.6465    2.1839508   0.36884012   0.14266061 
    5600   -943.46941     52.82417   -890.64524    1891.9702   -2037.5882    2.1595698    0.3132835   0.15120335 
    5700   -933.32048    50.761218   -882.55926    1818.0827   -8953.8482    2.1212433   0.19383607   0.18127918 
    5800   -944.63552    51.227448   -893.40807    1834.7814    9542.5242    2.1910638  0.036683116   0.13018954 
    5900   -945.77975    54.581563   -891.19819    1954.9137   -1095.9484    2.1659901   0.30945047    0.1462159 
    6000   -939.30531    51.758807   -887.54651    1853.8127   -9948.4544    2.1300427   0.15954776   0.14787356 
    6100    -944.8399    49.718902     -895.121    1780.7508    2424.2093    2.1749659   0.32766963   0.15424628 
    6200   -944.21433    49.250265   -894.96407    1763.9659    5470.5228    2.1834442   0.10025066    0.1598396 
    6300   -938.98376    49.924151   -889.05961    1788.1021   -5156.2283    2.1437645  0.036555621   0.15564287 
    6400   -939.41308    51.025208   -888.38787    1827.5379   -2242.7283    2.1524245   0.43569092   0.14355958 
    6500   -941.99306    45.002939   -896.99012    1611.8421    11290.665    2.1982144    0.1757266   0.13193497 
    6600   -940.55113    52.590579   -887.96055    1883.6038   -5910.2123    2.1447529   0.13036668   0.13833105 
    6700   -941.32603    52.541929    -888.7841    1881.8614   -7098.2719    2.1447168   0.29955244   0.15098023 
    6800   -937.10553     44.07093    -893.0346    1578.4609    12483.934    2.1914192   0.13866133   0.16518053 
    6900   -941.66591    44.752243   -896.91367     1602.863    4859.8041    2.1769373   0.15323159   0.14861657 
    7000    -937.1019    51.150464   -885.95143    1832.0241   -22316.473    2.0962604  0.091259368   0.16163729 
    7100   -942.49463    52.666152   -889.82848    1886.3106    13883.331    2.1962195   0.10331517   0.14347267 
    7200   -945.64379    54.518294    -891.1255    1952.6476    11743.217     2.196889   0.19323325   0.14822654 
    7300   -936.22575    48.320423   -887.90532    1730.6623   -12125.339    2.1200943   0.22949718    0.1680132 
    7400   -934.61083    53.933292   -880.67754    1931.6949    127.25319    2.1469041   0.17212751   0.18276816 
    7500   -941.69477     50.20176   -891.49301     1798.045    12130.168    2.1943049   0.22888504   0.12722576 
    7600   -937.38312       46.165   -891.21812    1653.4629   -5187.2958     2.144318   0.21238976   0.15199068 
    7700   -936.93895    50.951301   -885.98765    1824.8908   -5564.2911    2.1403827   0.23085603   0.17230284 
    7800   -943.72309    47.656325   -896.06676    1706.8767    10167.954    2.1936482  0.026498934    0.1530764 
    7900    -941.4548    48.458721   -892.99608    1735.6156   -4184.7222    2.1578508   0.21435722    0.1749327 
    8000   -936.41957    47.650832   -888.76874      1706.68   -3681.0955    2.1443622   0.20624243   0.18491499 
    8100    -942.2665     51.76309   -890.50341    1853.9662     4810.977    2.1753807   0.13268901   0.15474825 
    8200   -946.35741    48.169522   -898.18789    1725.2576    4161.0201    2.1832246   0.45665534   0.15975375 
    8300   -938.32996    49.138224   -889.19174     1759.953   -7633.6982    2.1357303   0.30778061   0.16678889 
    8400   -943.92072    55.291977   -888.62875    1980.3581   -1037.7614    2.1614377   0.14354612   0.15483163 
    8500   -946.45332    50.691713   -895.76161    1815.5933    6430.2963    2.1887719   0.32852396   0.15072343 
    8600   -940.49567    52.934134   -887.56154    1895.9087   -6515.4744    2.1397248   0.14652404   0.16147399 
    8700   -939.40011    52.074707    -887.3254    1865.1272    1058.7943    2.1547034  0.014601945   0.16954395 
    8800   -942.41881     51.01251    -891.4063    1827.0831    7481.6665    2.1829751   0.30507215   0.15595612 
    8900   -947.18968    50.726729   -896.46295    1816.8475   -5874.3068    2.1598399   0.23178373   0.15719108 
    9000   -938.84364    53.573148    -885.2705    1918.7959   -9714.9082    2.1307812   0.45771429    0.1479235 
    9100   -941.66277    53.978901   -887.68387    1933.3285    16941.259    2.2038544   0.29518237   0.14473348 
    9200   -940.43568    48.205161   -892.23052     1726.534    999.46898    2.1596417   0.10844927   0.13723596 
    9300   -938.43797    51.602018   -886.83596    1848.1972   -15651.055    2.1179593  0.083542233   0.15921411 
    9400   -933.83426    53.949361    -879.8849    1932.2705    9246.1544    2.1713023   0.96697954    0.1720282 
    9500   -938.76848    48.659464   -890.10901    1742.8055    8824.7177    2.1818713   0.15746345    0.1645592 
    9600   -940.28084    49.047622   -891.23322     1756.708   -8075.4241    2.1423414   0.26503791   0.15616835 
    9700   -934.41855    50.202701   -884.21585    1798.0787    2455.0089    2.1565079   0.54492114    0.1528304 
    9800   -937.20223    50.260967   -886.94126    1800.1656    2918.9052    2.1700613   0.26507835   0.14973005 
    9900   -942.50917     49.38974   -893.11943    1768.9614   -3250.2465     2.162413   0.39779721   0.14486289 
   10000   -939.79387    49.768587   -890.02529    1782.5303   -1396.0115    2.1637236   0.10807128   0.16424612 
   10100   -938.64199    52.827305   -885.81469    1892.0825     1159.323    2.1608729   0.36391805   0.16387192 
   10200   -934.80748    51.174949   -883.63253    1832.9011    611.80935    2.1491744   0.15239537   0.16518441 
   10300   -941.57941    47.214243   -894.36517     1691.043    4449.7114    2.1828302   0.15539608   0.15416997 
   10400   -938.43885    47.265506   -891.17334     1692.879    904.46293    2.1639218 0.0061900113   0.14606877 
   10500    -938.1301    48.966706   -889.16339    1753.8098   -7221.7405    2.1436402    0.1033752   0.15015543 
   10600   -933.12069    49.483992    -883.6367    1772.3371    6797.4817    2.1683578   0.17774615     0.148277 
   10700   -931.40262    55.911528   -875.49109    2002.5482    2602.2566    2.1450231    0.2930445   0.15446103 
   10800   -939.46119    51.661331   -887.79986    1850.3215   -5450.6423    2.1429797  0.080883876   0.15452413 
   10900   -944.68535    55.039852    -889.6455    1971.3279    1175.8846    2.1718425   0.17376881   0.14127722 
   11000   -940.89249    50.592556   -890.29994    1812.0419    5358.9484    2.1749435  0.016145998   0.15373724 
   11100   -942.24682    50.725309   -891.52151    1816.7966   -10075.091    2.1362434   0.62576632   0.16525175 
   11200   -949.91838    48.055302   -901.86308    1721.1666    5550.5544    2.1947802   0.23290262   0.14340351 
   11300   -947.50907      54.3486   -893.16047    1946.5698    4250.3251    2.1809831    0.4903939   0.14332272 
   11400   -942.59222    52.081145   -890.51108    1865.3577    -12277.85    2.1351701   0.14567767   0.14836976 
   11500   -938.35448    50.308692   -888.04579    1801.8749   -179.65363    2.1588272   0.42026516   0.13373445 
   11600   -946.59484    48.869903   -897.72494    1750.3427    10669.793    2.2037184  0.058624052   0.13938728 
   11700   -939.43019    47.497508   -891.93268    1701.1885   -6205.6981    2.1418945   0.12898447   0.16369937 
   11800   -942.17575    52.753145    -889.4226    1889.4263   -6146.9539    2.1494663   0.15020084   0.18294393 
   11900   -942.99367     53.39904   -889.59463      1912.56    4317.1311    2.1800849   0.46595536   0.18036773 
   12000   -946.39423    47.662963   -898.73127    1707.1145   -3033.1387    2.1681655   0.21809779   0.16398878 
   12100     -940.077    49.051737   -891.02526    1756.8553   -5893.2204    2.1486752   0.31924736   0.14539866 
   12200   -938.86875    50.853413   -888.01534    1821.3848    6360.9119    2.1709545  0.087611442   0.15773529 
   12300   -940.72814    47.866126   -892.86201    1714.3911    1236.6044    2.1641172   0.30782111   0.13847996 
   12400   -940.09127    43.615836   -896.47543    1562.1611    535.23498    2.1629581   0.17469744   0.14802957 
   12500   -935.63559    50.161261   -885.47433    1796.5945   -568.84054     2.145836   0.13790048   0.17048285 
   12600   -942.69846    53.644265   -889.05419     1921.343    2348.2783    2.1690687   0.13543999   0.16006743 
   12700   -938.88236    45.767255   -893.11511    1639.2171     3246.189    2.1640863   0.48494335   0.15098356 
   12800   -939.21055    54.654297   -884.55625    1957.5187   -2483.4552    2.1494631  0.094713962   0.14997069 
   12900   -940.59817    54.940643   -885.65753    1967.7746    806.26366    2.1581445   0.12639677   0.16131807 
   13000   -941.88033    49.753539   -892.12679    1781.9913   -3080.1424    2.1606512   0.14543889    0.1427661 
   13100     -940.279    50.836552   -889.44245    1820.7809     88.75146    2.1600307   0.20694585   0.13979289 
   13200   -937.18804     56.43944    -880.7486     2021.456   -909.98352    2.1464633   0.18865073   0.15406129 
   13300   -939.34216    48.099159     -891.243    1722.7374    6280.7121    2.1749514   0.15314394    0.1341797 
   13400   -938.95147    48.077144   -890.87433    1721.9489   -4795.5307    2.1499791   0.14129284   0.15897234 
   13500   -934.63038    48.920579    -885.7098    1752.1577   -1716.6855    2.1418011   0.24527012   0.17352197 
   13600   -946.57578    51.111398   -895.46438    1830.6249    8013.9382    2.1946805   0.15635217   0.14114939 
   13700    -942.8601    48.811485   -894.04862    1748.2504   -4358.3004     2.151813   0.38770086   0.14986422 
   13800   -939.62521    49.747073   -889.87814    1781.7597   -4827.1748    2.1450706   0.11009311    0.1409895 
   13900   -938.70865    53.116308   -885.59234    1902.4335    9672.5712    2.1803209   0.17944075   0.13761617 
   14000   -945.63731    49.944277   -895.69303    1788.8229   -2676.8896     2.164397   0.29115067   0.13503271 
   14100   -942.45792    48.631195   -893.82673    1741.7931   -10794.199    2.1386516   0.19610459   0.15668603 
   14200   -936.79887     49.65445   -887.14442    1778.4423    10101.955    2.1818572   0.32460598   0.16345466 
   14300   -942.85703    51.166646   -891.69039    1832.6037    2422.3895    2.1707902   0.61974985   0.15804512 
   14400   -942.55078    43.189284   -899.36149    1546.8835   -6764.6024    2.1507472   0.31703387   0.15765028 
   14500    -939.6554    49.742608   -889.91279    1781.5998    2599.7627    2.1668739   0.19775896   0.16015403 
   14600   -943.72326    55.716062   -888.00719    1995.5473    7154.4118    2.1812813   0.36594211   0.14586446 
   14700   -944.08548    49.197163   -894.88832     1762.064   -8186.7141    2.1502121   0.67108335   0.15160316 
   14800   -943.24492    52.473102   -890.77181    1879.3962   -1604.1384    2.1612768   0.23264639   0.13325322 
   14900    -942.4874    57.173054   -885.31435    2047.7314    2330.2136    2.1668843   0.22314685   0.13502638 
   15000   -939.80692    47.745421    -892.0615    1710.0678    -3354.924    2.1554375   0.32950696   0.15348169 
   15100   -942.67325    51.774019   -890.89923    1854.3576   -3395.9534      2.15564   0.22893541   0.15731752 
   15200   -936.03883    54.532349   -881.50648     1953.151    640.77653    2.1474686   0.51969219   0.17052018 
   15300   -939.06064    48.349894   -890.71074    1731.7179    4135.8705    2.1662632   0.76618866   0.15791821 
   15400   -942.11509    49.734618   -892.38047    1781.3136   -2277.0631    2.1569315   0.28924011    0.1631172 
   15500   -936.03821    52.939124   -883.09908    1896.0874   -726.90169    2.1516362   0.59270432   0.16495004 
   15600   -941.16445     51.47028   -889.69417    1843.4788    457.05477    2.1629877   0.10812292   0.15406807 
   15700   -943.58123    50.776138   -892.80509    1818.6171   -4423.5988     2.156657    0.4194937   0.16999838 
   15800   -937.43963    50.902199   -886.53743    1823.1322    3245.4327    2.1601781   0.57280113    0.1656432 
   15900   -940.10769    49.564517   -890.54317    1775.2213    1906.7122    2.1619763   0.15245589   0.15814485 
   16000   -945.70915    50.295787   -895.41337    1801.4127   -5268.4921    2.1574585   0.34612647   0.14429084 
   16100   -941.46681    53.003228   -888.46358    1898.3834    6968.5935    2.1780965   0.18280163   0.15497211 
   16200   -940.57356    51.347629   -889.22593    1839.0859    1842.7992    2.1607567   0.54399853   0.15810138 
   16300    -946.6983    47.608322   -899.08998    1705.1574   -10176.312    2.1458539   0.19581444   0.14156123 
   16400   -938.50869     46.10931   -892.39938    1651.4683    6523.3915    2.1754754  0.073312649   0.14536398 
   16500   -938.87427    51.971217   -886.90305    1861.4205    9384.8651     2.175923   0.28356694   0.14975254 
   16600    -944.0591    50.570954   -893.48815    1811.2682   -12172.844    2.1354518   0.18424529   0.14386402 
   16700   -944.82274    49.421972   -895.40077    1770.1158   -1724.7222    2.1651955   0.38488598    0.1516603 
   16800   -935.86744    50.741151   -885.12629     1817.364    9555.7354    2.1748444   0.54040463   0.15066007 
   16900   -938.52261    48.594963   -889.92765    1740.4954    -3986.529    2.1465923  0.097157142    0.1649282 
   17000   -940.47543    45.413522    -895.0619    1626.5477   -3134.3675     2.155878   0.19323309   0.15452199 
   17100   -938.54921    48.116484   -890.43273     1723.358    10153.389    2.1850326  0.054713273   0.15484612 
   17200   -939.29852    53.136667   -886.16185    1903.1627   -4488.1562    2.1448418   0.27960804   0.15436283 
   17300   -944.02588    50.839235   -893.18664     1820.877   -10973.859    2.1426251   0.17168908   0.15268215 
   17400   -939.96851    50.532444   -889.43607    1809.8889    8158.4835    2.1825877  0.055843511   0.15790927 
   17500   -936.23046    54.543189   -881.68727    1953.5392    1187.7316    2.1518926   0.26858218   0.15293534 
   17600   -943.12956    50.757623   -892.37194     1817.954   -6494.5526    2.1485424   0.27032989   0.14714826 
   17700   -942.00337    50.587178   -891.41619    1811.8493    1916.8441    2.1666716   0.41772778    0.1385399 
   17800    -938.2033    53.759739   -884.44356    1925.4789    3798.4188    2.1600375   0.16577397   0.14089601 
   17900   -944.88291    55.894845   -888.98807    2001.9506   -8533.5553     2.145696  0.052692087   0.15365976 
   18000   -942.49746    49.103046   -893.39442     1758.693    1071.3334    2.1661197   0.31588867     0.148937 
   18100   -939.85195    53.128313   -886.72364    1902.8635    4853.7869    2.1666406  0.046891725   0.14939734 
   18200    -939.5958    51.681957   -887.91384    1851.0603   -3657.4377    2.1478515  0.035334347   0.14392921 
   18300     -945.511    49.743049   -895.76795    1781.6156   -612.77284    2.1698653   0.27571044   0.12489006 
   18400   -940.39326    52.229969   -888.16329    1870.6881    674.45513    2.1629669    0.3287177   0.16387662 
   18500   -939.75528    50.842039   -888.91324    1820.9775    -1122.935    2.1509358   0.66740557   0.15899876 
   18600   -946.26998      48.5677   -897.70228    1739.5189    68.910729    2.1715671   0.26100826   0.14983656 
   18700   -940.54147    52.033389   -888.50808    1863.6473    -47.77218    2.1564365   0.33252019   0.15824133 
   18800   -941.22018    52.914752   -888.30543    1895.2145   -2321.2107    2.1529632  0.057010689    0.1753893 
   18900   -948.04566    51.142486   -896.90317    1831.7384   -3025.0976    2.1687106    0.1050975   0.15495638 
   19000    -945.5458    54.081628   -891.46418    1937.0078   -1440.5371    2.1652123   0.20673664   0.15654284 
   19100    -940.5959    53.298913   -887.29698    1908.9738    211.21213    2.1570819   0.22914084   0.12959495 
   19200   -941.98473     47.67137   -894.31336    1707.4156   -5782.0319    2.1490729   0.27786832   0.14580079 
   19300   -941.11467    50.929477    -890.1852    1824.1092    3407.1149    2.1681052   0.60663197   0.13525194 
   19400   -940.27715    56.335449   -883.94171    2017.7315    4823.3226     2.164864   0.79957014   0.13014329 
   19500   -938.64274    46.116681   -892.52606    1651.7323   -5413.6283    2.1442225   0.09593109   0.17480794 
   19600   -941.70944    51.044819   -890.66462    1828.2403   -1685.7051    2.1596245   0.10414941   0.16940876 
   19700    -937.5137    56.811052   -880.70264    2034.7659    10827.847    2.1769283   0.27174915   0.17633768 
   19800   -940.23083    50.176733    -890.0541    1797.1486   -5116.2189    2.1496438   0.34667365   0.16295312 
   19900   -939.22374    46.537547   -892.68619    1666.8062   -7668.6681    2.1412665   0.30869749   0.15901925 
   20000   -943.45102    59.465737   -883.98528     2129.847    6886.0408    2.1808705   0.78695269   0.13692784 
   20100   -942.65597    52.312057   -890.34391    1873.6282    1282.7081    2.1672476   0.20771748   0.13763943 
   20200   -942.62786    47.149682   -895.47818    1688.7306   -8664.5803    2.1422365   0.10991727   0.12826597 
   20300   -942.65905    55.311749   -887.34731    1981.0662    2909.8827    2.1692052    0.2233545   0.15240393 
   20400   -941.17202    51.049413   -890.12261    1828.4048    1764.7191    2.1726186   0.32293339    0.1714565 
   20500    -945.8896    48.120173   -897.76943    1723.4901     -4799.29    2.1647395   0.22964692   0.15900465 
   20600   -944.58597    55.885496   -888.70048    2001.6158   -5809.1655     2.155231   0.30297623   0.15622896 
   20700   -940.50553    51.435316   -889.07022    1842.2265    3708.9473     2.169026   0.44749984   0.16578913 
   20800   -944.00724     46.88811   -897.11913    1679.3621    -820.0672      2.17325   0.15965567   0.15791053 
   20900   -936.53041    48.911622   -887.61878    1751.8369    -1415.972    2.1480012   0.44346237    0.1498633 
   21000   -937.45231    49.592855   -887.85945    1776.2362     5897.308     2.170822   0.37807178   0.15729124 
   21100   -940.41755    45.541665   -894.87588    1631.1373    2753.9653     2.172296   0.14354191    0.1484839 
   21200   -938.14701     51.66683   -886.48018    1850.5185   -4635.9672    2.1475824  0.072221059   0.16226995 
   21300   -940.27984    53.221199   -887.05864    1906.1903    1476.0706     2.164476   0.19111464   0.18062906 
   21400   -940.48596    47.300464    -893.1855    1694.1311    3258.0899     2.173868   0.20210869   0.16380136 
   21500   -940.53768    53.431485   -887.10619     1913.722   -6805.7949    2.1460907   0.46725782   0.17383545 
   21600   -935.92443    50.545167   -885.37926    1810.3446   -1016.5375    2.1521332   0.85262898   0.20455397 
   21700    -939.1665    46.777697    -892.3888    1675.4075    9783.6893    2.1873264   0.25095361   0.16097167 
   21800   -943.73416    53.133649   -890.60052    1903.0546   -6059.9942    2.1523603   0.26361113   0.16347181 
   21900   -935.09157    50.380908   -884.71067    1804.4614   -8040.9601    2.1301574  0.063143256   0.17173981 
   22000   -944.99187    51.696418   -893.29545    1851.5782    8912.5788     2.190649  0.099723527   0.14277514 
   22100   -942.76925    51.295109   -891.47414    1837.2048    2326.0887    2.1691534    0.5653298    0.1500756 
   22200    -938.4896    51.653879   -886.83572    1850.0546   -12043.833    2.1244514   0.63858885   0.17398148 
   22300    -944.8954    49.027197   -895.86821    1755.9764    4310.7579    2.1807414   0.36249714   0.15752053 
   22400   -943.26269    50.653176   -892.60951    1814.2131    6913.7827    2.1813755   0.29277018   0.15291002 
   22500   -937.13109    48.915202   -888.21588    1751.9651   -5500.3376    2.1347661   0.21895192   0.16524945 
   22600    -940.7804    51.376519   -889.40388    1840.1206   -995.01756     2.153849   0.20717211   0.14574048 
   22700   -944.69095    48.917192   -895.77376    1752.0364    12621.414    2.2008235   0.12469957   0.13406188 
   22800   -939.05209    52.004365   -887.04773    1862.6077    -5723.542    2.1381591    0.1907485   0.15232675 
   22900   -940.12468     50.56915   -889.55553    1811.2036   -6575.4465    2.1432696  0.015214837   0.15759847 
   23000   -943.83745    49.658692   -894.17876    1778.5942    6736.9463    2.1857091   0.35783782   0.15134416 
   23100   -938.95722    54.231551   -884.72567    1942.3775    869.86552    2.1570119   0.20683775   0.17053992 
   23200   -939.87026    52.530641   -887.33962     1881.457   -4980.4483    2.1469274   0.40006436   0.16082382 
   23300   -942.35466    49.203525   -893.15113    1762.2918   -184.20196       2.1671   0.33678032    0.1711122 
   23400   -940.78838    52.056171   -888.73221    1864.4633     3621.531     2.169759   0.25369374   0.15361997 
   23500   -933.97335    49.274218   -884.69913    1764.8238   -2915.0853    2.1423174   0.53071884   0.17212036 
   23600   -941.94116    48.152802   -893.78835    1724.6587   -1832.9657    2.1621046  0.037141522   0.15639123 
   23700   -940.26608    50.903798   -889.36228    1823.1895    5068.1128    2.1732166   0.58099608   0.14501829 
   23800   -937.73532     52.82532      -884.91    1892.0114   -4386.4494    2.1455411   0.43310201   0.16532293 
   23900   -941.79093     46.10234   -895.68859    1651.2186   -2961.5568    2.1612514   0.35944575    0.1579159 
   24000   -940.81831    49.456874   -891.36144    1771.3659    4964.6557    2.1769147    0.2580226   0.16229163 
   24100   -939.17119    53.918854   -885.25233    1931.1778    3677.4411    2.1605848   0.25726754   0.17382264 
   24200   -940.90257    48.779121   -892.12345    1747.0912   -11070.523    2.1318208   0.15623642   0.18031795 
   24300   -940.54227    47.203089   -893.33918    1690.6435    6425.5005    2.1757419   0.12367442   0.14772608 
   24400   -937.45912    53.383439   -884.07568    1912.0012    8977.8211    2.1744311   0.17214528   0.15879748 
   24500   -935.77658    45.210086    -890.5665    1619.2613   -5480.1891    2.1367484   0.11780068   0.15316007 
   24600   -942.97477    48.548576   -894.42619    1738.8339   -2047.8277    2.1582478     0.232144   0.14208034 
   24700   -939.30907    54.333406   -884.97566    1946.0256     11640.43     2.184068   0.24790093   0.16662365 
   24800   -938.30946    50.840916   -887.46855    1820.9372   -1528.9412    2.1518953   0.29773507   0.17573935 
   24900   -944.04269    48.856623   -895.18607     1749.867   -11267.763    2.1412868   0.35417958   0.17010456 
   25000    -941.2109    53.130976   -888.07993    1902.9589    6951.3714    2.1793022   0.37424934   0.17812232 
   25100   -940.18764    54.576576   -885.61106     1954.735    4011.4826    2.1673299   0.18221122   0.16851366 
   25200   -943.85093    48.019041   -895.83189    1719.8679   -7899.2001    2.1518329   0.31913135   0.15488114 
   25300   -942.02983    51.070392   -890.95944    1829.1562   -1484.9339    2.1618451    0.2895758   0.15048988 
   25400   -938.73957    53.873841   -884.86573    1929.5656    6214.8162    2.1725842   0.18143936   0.17289463 
   25500   -941.75426    47.726594   -894.02766    1709.3935   -2936.7793    2.1598268   0.26810769   0.14815176 
   25600   -940.55539    47.672231   -892.88316    1707.4464   -5335.7612    2.1506455   0.78791121   0.17374717 
   25700   -941.13578    55.704428   -885.43136    1995.1306    6738.7206    2.1748617   0.20329031   0.17965412 
   25800     -943.766    51.230285   -892.53571     1834.883   -573.92382    2.1700849   0.22166575   0.16120347 
   25900   -941.98332    46.659081   -895.32424    1671.1591   -5920.6043    2.1471148   0.17922483   0.15558578 
   26000   -940.44159    54.997997   -885.44359    1969.8288   -34.367632    2.1546959   0.13374424    0.1497469 
   26100   -939.45307    49.742663   -889.71041    1781.6018    9447.7446     2.182141    0.2818626   0.13167786 
   26200   -943.38452    48.160393   -895.22413    1724.9306   -6826.9154    2.1533894   0.36638846   0.13889834 
   26300   -937.26975     51.89609   -885.37366    1858.7297   -5068.2153    2.1433576   0.27786723   0.16246945 
   26400   -938.32583    49.290802   -889.03502    1765.4178    8283.6815    2.1770667  0.082385656   0.13979392 
   26500   -942.64628    48.378129   -894.26815    1732.7291   -585.06064    2.1659061   0.52160331    0.1531042 
   26600   -935.92944    49.265041    -886.6644    1764.4951   -1026.3563     2.148556   0.04467238   0.15564909 
   26700   -940.77773    51.785964   -888.99177    1854.7854    575.48576    2.1594843   0.52816435   0.15039073 
   26800   -945.97674    51.001438    -894.9753    1826.6866    1414.8635     2.171989  0.041844483   0.14201564 
   26900   -939.49828    51.992251   -887.50603    1862.1739   -798.00725    2.1560485  0.091935483   0.14343906 
   27000   -941.63149    52.169608   -889.46188    1868.5262   -2928.8302    2.1544479   0.22623177   0.14473616 
   27100   -941.76444    45.424293   -896.34015    1626.9334    5474.1788    2.1763326   0.28991608   0.13912407 
   27200   -940.49012    53.577742   -886.91238    1918.9604   -2193.0884    2.1532909   0.26619248   0.16947748 
   27300   -940.18045    50.736625   -889.44382    1817.2019   -1884.3118    2.1571484   0.81355326   0.16785193 
   27400   -943.53383    47.355511   -896.17831    1696.1027    429.16958     2.173963   0.35388281   0.17552371 
   27500    -937.5716    51.282669   -886.28893    1836.7592   -691.98132    2.1575591   0.05454151   0.18571918 
   27600   -941.25689    53.780759   -887.47613    1926.2318   -699.79102    2.1623148    3.4785262   0.17902024 
   27700    -938.8288    45.085144   -893.74365    1614.7863     1513.161    2.1675746    4.4109301   0.16521516 
   27800   -937.25311    52.709411    -884.5437      1887.86   -3509.0713    2.1425018    2.9116982   0.17017278 
   27900   -937.98234    52.090907   -885.89144    1865.7074    4811.2711    2.1689167    4.9288353   0.16074533 
   28000   -941.48373    49.720799   -891.76294    1780.8187   -2980.8879    2.1594132    3.4375008   0.16770212 
   28100   -940.45661    52.417729   -888.03888     1877.413   -7804.2333    2.1385472    4.7212499   0.18907008 
   28200   -935.80493     55.95084   -879.85409    2003.9562    3693.0776    2.1595802    1.7864047   0.19738369 
   28300   -941.85661    52.590242   -889.26636    1883.5918    6190.9166    2.1781187    3.3155915   0.18221091 
   28400   -935.56855     44.68365    -890.8849    1600.4063   -6387.7466    2.1381243    4.2061296   0.17944488 
   28500   -935.16078    52.011349   -883.14943    1862.8579    125.62007    2.1484406    4.3678599   0.17651946 
   28600    -938.2238    52.398609   -885.82519    1876.7282    8459.2852    2.1752273    3.1711813   0.16288198 
   28700   -938.22122    46.438109   -891.78311    1663.2447   -5028.3436    2.1433708    4.3976019   0.19439937 
   28800   -936.98021    46.970123   -890.01009    1682.2995   -4535.4263    2.1488517    2.9687075   0.17881537 
   28900   -932.73891    48.979271   -883.75964    1754.2599    11826.851    2.1745755    5.5899731   0.18317508 
   29000    -937.9418    51.123648   -886.81815    1831.0637   -3409.4854    2.1440749    3.2086803   0.17188726 
   29100   -941.56391    48.383411   -893.18049    1732.9183   -5524.2945      2.14882    4.1535599   0.17493782 
   29200   -938.36788     50.81152   -887.55636    1819.8844    16477.494    2.1947489    3.8687686     0.183685 
   29300   -941.86625    52.859932   -889.00631    1893.2511   -5625.8119    2.1541043    4.5240763    0.1939377 
   29400   -948.05094    49.512529   -898.53841    1773.3592    -14118.48    2.1391182    3.7887185   0.16839334 
   29500   -943.64583     50.48526   -893.16057    1808.1989    5180.2619    2.1843505    4.0006493   0.18497738 
   29600   -938.20629    51.175936   -887.03035    1832.9364    6924.1907    2.1784859    4.3115808   0.19756065 
   29700    -940.2069    50.423176   -889.78373    1805.9753   -10694.996    2.1364002    4.4680611    0.1670651 
   29800   -943.35984    47.319727   -896.04012     1694.821    802.64564    2.1731504    4.4441419   0.17372268 
   29900   -938.20978    52.058569   -886.15121    1864.5491    3238.6942    2.1667369    4.5575349     0.188462 
   30000    -938.0892    50.871119   -887.21808     1822.019    -2181.269    2.1538248    3.8953754   0.19368774 
   30100   -943.89556    50.401183   -893.49438    1805.1876   -3719.7169    2.1579528     4.310439   0.18772809 
   30200   -938.68015     50.21554   -888.46461    1798.5385     4858.104    2.1721019    4.4491223   0.17535773 
   30300   -936.02313    52.287135   -883.73599    1872.7355   -1554.5048    2.1449403    4.1612251   0.17928752 
   30400   -938.75547    46.503847   -892.25162    1665.5991   -5870.8333    2.1488056    2.0329655   0.17627613 
   30500   -938.17859     49.83694   -888.34165    1784.9785    3325.0424    2.1676611    4.1218013   0.18776117 
   30600   -935.28325     55.45785    -879.8254    1986.2991    1991.8221    2.1543781    3.5526086   0.17277805 
   30700   -945.05608      54.4636   -890.59248    1950.6886   -6005.7817    2.1492212    3.5221391   0.16588651 
   30800   -939.31869     48.56313   -890.75556    1739.3552   -3972.4986    2.1555684    3.6371571   0.19240913 
   30900    -939.9236    54.730154   -885.19344    1960.2356    5412.1982    2.1729721    5.7953148   0.17766294 
   31000   -942.55524    53.310278   -889.24496    1909.3808   -6136.2593     2.152455    5.2509742   0.17971095 
   31100   -942.34883    47.560286   -894.78854     1703.437   -8241.5004    2.1476351    2.1960998    0.1781382 
   31200   -935.78912    47.981371   -887.80775    1718.5187    12284.707    2.1826495    4.9374915   0.19276738 
   31300   -935.36258    47.339079   -888.02351    1695.5141    2527.9278    2.1580968    5.6848254   0.20548513 
   31400   -941.59568     44.51212   -897.08356    1594.2627   -10835.315      2.13958    4.0238282    0.1673363 
   31500   -938.65138    45.715947   -892.93543    1637.3794    4008.2093    2.1702255    4.1525844   0.17294455 
   31600   -936.35089    50.720063   -885.63083    1816.6087    8887.2535    2.1796284    5.6057699   0.18291638 
   31700   -939.22477    47.644003   -891.58077    1706.4354   -11774.597    2.1343782    2.8695745   0.18692939 
   31800   -943.06297    50.235251   -892.82771    1799.2445   -5764.9528    2.1505117    5.4238017   0.18900638 
   31900   -933.36994    51.213814   -882.15613    1834.2931    13550.527    2.1775763    6.1062858   0.19919717 
   32000   -938.06375    50.139098   -887.92466    1795.8007    -1089.912    2.1513877    4.3884693   0.20619574 
   32100    -941.0896    48.404152   -892.68545    1733.6612   -3415.6917     2.149509    3.6806782   0.16486182 
   32200   -939.99297    51.870777   -888.12219    1857.8231    6155.4811    2.1736837    4.3235122   0.15671323 
   32300   -938.79438    56.094155   -882.70023    2009.0892   -3041.3782    2.1433898     5.845441   0.15349056 
   32400   -943.82346    52.339965    -891.4835    1874.6277   -3879.2997    2.1523458     4.793383   0.15336824 
   32500   -941.82424    52.359885   -889.46436    1875.3412    3985.8348    2.1688123    4.9588709    0.1644832 
   32600   -931.98672    51.804851   -880.18187    1855.4619    3290.0925    2.1455069    6.8712787   0.18133386 
   32700   -938.13582    50.035772   -888.10005    1792.0999   -4703.8116    2.1461305     2.913732   0.20039932 
   32800   -939.51439    49.060347   -890.45404    1757.1637    341.69192    2.1578159    4.1309934   0.19431962 
   32900   -937.07182    50.196044   -886.87577    1797.8403    8280.2477      2.17372     2.111623    0.1775773 
   33000   -934.23941     54.52832   -879.71109    1953.0067   -3709.0864    2.1298743    2.2035176    0.1981483 
   33100   -938.85021     50.38515   -888.46506    1804.6133   -5633.8115    2.1440071    8.2648732   0.16377765 
   33200   -939.47069    49.998645   -889.47204    1790.7701    3833.4742    2.1696372    11.154252   0.15848422 
   33300   -940.55097    52.059003   -888.49197    1864.5647    1253.0497    2.1647248    11.721644   0.15860576 
   33400   -939.91656    50.869833   -889.04672    1821.9729   -8230.6954    2.1420674    10.732458    0.2046444 
   33500   -945.50782    45.876123    -899.6317    1643.1164    4039.8147    2.1850032     10.60759   0.17295829 
   33600    -944.0991     52.62284   -891.47626    1884.7593    1656.9133    2.1713091    14.177787   0.15044306 
   33700   -937.23547    47.896218   -889.33925    1715.4688   -4897.4025     2.140429     11.77678   0.16105246 
   33800   -940.96297    51.660535   -889.30243     1850.293   -657.45582    2.1601629    13.160384   0.14257057 
   33900   -945.72876    47.213751   -898.51501    1691.0253    11362.734    2.2025169    13.375647   0.15399405 
   34000   -939.58224     50.37626   -889.20598     1804.295     -10906.4    2.1285384    11.766596   0.14034775 
   34100     -939.656    50.383497   -889.27251    1804.5541   -1804.8187    2.1503701     13.11337   0.15356531 
   34200   -941.13575    49.201339   -891.93441    1762.2135      13461.8    2.1965823    12.683137   0.16721055 
   34300   -941.74841    42.502976   -899.24544    1522.3025   -3884.9517    2.1573594    14.228039   0.15462817 
   34400    -942.3401    46.355135   -895.98497    1660.2728   -3576.5583    2.1534346    11.220973   0.17862162 
   34500   -941.53322    51.510693   -890.02253    1844.9262    9828.4912     2.187719    12.143782   0.17107189 
   34600   -942.47187     52.25774   -890.21413    1871.6827   -5431.5766    2.1498368    12.365503   0.16175655 
   34700   -940.00335    49.456482   -890.54687    1771.3518   -5827.6033    2.1453646    13.574925   0.17472278 
   34800   -944.97172    44.492817    -900.4789    1593.5713    7699.7319    2.1933377    14.336341   0.14705034 
   34900   -942.62336    50.843116   -891.78025     1821.016   -5278.8407    2.1572388    15.985531   0.16637711 
   35000    -939.1404    49.377724   -889.76267     1768.531    121.15491    2.1572874    12.946103   0.16256542 
   35100   -942.96011    52.658494   -890.30162    1886.0363    1956.1717    2.1699533    13.751504   0.16656323 
   35200   -946.40025    45.826062   -900.57419    1641.3234   -831.05531    2.1742861    12.056212   0.16483878 
   35300   -940.79136    47.373975   -893.41738     1696.764   -1957.6143    2.1576118    11.330505   0.17142445 
   35400   -941.08221    51.613333   -889.46888    1848.6024    3418.1664    2.1729302    14.565458   0.17115221 
   35500   -939.00467    48.265331   -890.73934    1728.6891    450.10005    2.1629478    15.535942   0.15056813 
   35600   -943.52778    44.337311   -899.19047    1588.0017   -6196.3604    2.1557126    15.733736   0.15874599 
   35700   -943.85046    48.201878   -895.64858    1726.4165    2268.4354     2.176433    11.687614   0.15323243 
   35800   -937.38608    48.533096   -888.85299    1738.2795     12322.38      2.18629    12.445404   0.14939847 
   35900   -939.23869    48.348482   -890.89021    1731.6673   -14956.432    2.1186317     12.80157   0.16908854 
   36000   -937.05692    51.916622    -885.1403    1859.4651   -871.75574    2.1484056    13.130625   0.15968533 
   36100    -936.8992    60.129732   -876.76947    2153.6289    16850.958    2.1891019    14.347346   0.17595858 
   36200   -937.99478    50.731131   -887.26365    1817.0051   -8659.1483    2.1309154    12.601587   0.15869825 
   36300   -941.27665    50.662386   -890.61426    1814.5429   -5828.8591    2.1468318     13.35325   0.17820353 
   36400   -940.82373    51.309511   -889.51422    1837.7206    10073.646    2.1852149    14.506461   0.16667672 
   36500   -937.34303    55.608138   -881.73489    1991.6819    379.46271    2.1491304    13.809969   0.14188067 
   36600   -935.60475    51.667223   -883.93753    1850.5325   -6479.7801    2.1313273    15.183232   0.17689885 
   36700   -939.69133    49.460143   -890.23118     1771.483    5559.4976    2.1713309    11.169274   0.13475828 
   36800   -944.14178    53.545836   -890.59594    1917.8176    2268.2134    2.1746327    11.460596    0.1457475 
   36900   -937.43713    54.917998   -882.51914    1966.9635   -6078.0564     2.134325     10.44027   0.18086677 
   37000   -939.83347    55.119768    -884.7137    1974.1902   -4376.8665    2.1479718    11.888186    0.1729364 
   37100   -941.57024     51.15628   -890.41396    1832.2324    4505.0183    2.1725254    13.865234   0.16968545 
   37200   -936.47026    45.855162    -890.6151    1642.3656    2045.0558    2.1617716    14.344059   0.17746381 
   37300   -934.04928    51.818779   -882.23051    1855.9607   -3332.1433    2.1354736    12.273579   0.16826755 
   37400   -935.05762    50.333818    -884.7238    1802.7748    4722.2714    2.1592511     13.54703   0.14618721 
   37500   -942.77509    52.204987    -890.5701    1869.7933    21.078991    2.1625271     9.665433   0.13253274 
   37600   -940.37046    49.975661    -890.3948    1789.9469   -183.36381    2.1585643    13.301383   0.16061745 
   37700   -944.31429    59.093033   -885.22126    2116.4982   -3563.3974    2.1570923    12.308391   0.14460634 
   37800   -932.44943    51.224873   -881.22456    1834.6892   -1876.8308    2.1411188     15.46699    0.1860108 
   37900   -938.66685    48.414418   -890.25243    1734.0289   -740.94923    2.1564113     14.97273    0.1744846 
   38000   -941.85744    51.851906   -890.00553    1857.1472    3482.7626    2.1711874    19.836104   0.16486806 
   38100   -934.48799    52.132982   -882.35501    1867.2143    2426.8936    2.1529926    16.032498   0.17802708 
   38200   -934.64972    51.760819    -882.8889    1853.8848    293.84875    2.1451047    19.696556   0.15077048 
   38300   -937.55311     47.61295   -889.94016    1705.3232    3645.8891    2.1631932    16.035078   0.16148708 
   38400   -936.99782    51.074313    -885.9235    1829.2967  0.061208346    2.1531099    21.842652   0.19518546 
   38500   -932.72047    52.096333   -880.62414    1865.9017   -4116.4948    2.1331399    17.925303   0.19692981 
   38600   -939.53726    48.660665    -890.8766    1742.8485    4409.9271    2.1748625    18.654647   0.18052131 
   38700   -934.63264    47.346378   -887.28626    1695.7756     3858.509    2.1563155    19.556965   0.18630394 
   38800   -934.83117    50.122942   -884.70823     1795.222     -3125.07    2.1395598    38.387616   0.19005098 
   38900   -942.76975    47.477713   -895.29203    1700.4795     5456.754    2.1756036    30.714538   0.17422636 
   39000   -934.72525     46.05763   -888.66762    1649.6173    4867.1718    2.1653897    33.516008   0.17662208 
   39100   -937.51107    50.719107   -886.79197    1816.5745   -6702.5223     2.140652    33.674556   0.19751508 
   39200   -940.81242    45.448819    -895.3636    1627.8119    774.91235    2.1601113    30.687785   0.16846867 
   39300   -945.53994    53.626235   -891.91371    1920.6973    2247.1513    2.1720323    30.650515   0.15793588 
   39400   -937.78738    51.991144   -885.79624    1862.1342    627.05362    2.1543288    28.583908   0.19019253 
   39500    -937.7184    46.139957   -891.57845    1652.5659   -9193.0167    2.1341704    31.002849   0.17208027 
   39600   -941.80066    49.406227   -892.39444    1769.5519    5324.4933    2.1766321    35.043376   0.18313866 
   39700   -932.01853    50.133775   -881.88475      1795.61    9644.1737    2.1626503    32.171562   0.20207361 
   39800   -937.28732    48.976882   -888.31044    1754.1743   -8318.8728     2.137145    27.034593   0.18378003 
   39900   -940.07325    49.239924   -890.83332    1763.5955   -3307.0342    2.1539961    48.854493   0.19638049 
   40000   -937.46673    55.131218   -882.33552    1974.6003    10085.509    2.1747813    47.117883    0.1831593 
   40100   -937.93929    53.372929   -884.56637    1911.6248   -3382.7598    2.1428938    50.158634   0.18399419 
   40200   -938.30846    46.137728   -892.17073    1652.4861    -8395.745    2.1341397    56.051525   0.19025968 
   40300   -939.54329    52.863593    -886.6797    1893.3822    9923.8355    2.1815933     33.00938   0.16667312 
   40400   -937.83478    52.224916   -885.60987    1870.5071    3288.5558    2.1669542    33.928169   0.20145924 
   40500   -941.70671    46.584765   -895.12195    1668.4974   -8352.0343    2.1471299    45.313902   0.18257206 
   40600   -941.54558    51.009542   -890.53604    1826.9768   -2014.8035    2.1615835    33.742646   0.16688874 
   40700   -936.51321    51.308772   -885.20444    1837.6941    3795.4268    2.1624128    30.237319    0.1842043 
   40800   -943.06543    51.816168   -891.24926    1855.8672    -2633.013    2.1550143    34.876225   0.15694307 
   40900   -939.55315    46.628553   -892.92459    1670.0657    1883.3238     2.163485    22.421674   0.15354726 
   41000   -938.09314    52.399864   -885.69327    1876.7731    823.96273    2.1555175    20.392714    0.1722854 
   41100   -947.60421    54.715419   -892.88879    1959.7079   -5490.1289    2.1594955    23.086726   0.14836886 
   41200   -944.18091    50.017322   -894.16359    1791.4391    827.41641    2.1653872    22.482171   0.14764165 
   41300   -937.76099     52.67769    -885.0833    1886.7238     676.8525    2.1523281    22.693754   0.15542236 
   41400   -942.46528     50.34764   -892.11764    1803.2699    201.79814    2.1633463     21.45247   0.15689905 
   41500   -941.22079    47.466678   -893.75411    1700.0843   -2443.8262    2.1611992     19.47661    0.1560664 
   41600   -939.24745      55.0927   -884.15475    1973.2207    -4102.957    2.1448888    20.365304   0.17940194 
   41700   -938.27088    46.807824   -891.46306    1676.4865    8049.0049    2.1728182      17.1368   0.16150624 
   41800   -938.67915    45.692575   -892.98657    1636.5423    3507.5696    2.1668621    21.169568   0.15289912 
   41900   -934.41381    50.302526   -884.11128    1801.6541   -6075.9828     2.132631    20.512543    0.1805454 
   42000   -943.39315    50.968774   -892.42437    1825.5166    4184.4774    2.1767817    18.729715   0.12774665 
   42100   -939.58172    46.964833   -892.61688      1682.11    4097.5233     2.171467    19.963281    0.1480956 
   42200   -937.96009    50.895028   -887.06506    1822.8753   -7604.9956    2.1389489    18.898673   0.16053865 
   42300   -930.06338    48.192248   -881.87113    1726.0715     5396.899    2.1539888    18.318976   0.17962916 
   42400   -940.48881    47.591068   -892.89774    1704.5395    11354.509    2.1924802    16.429154   0.17418588 
   42500   -937.82027    47.935997   -889.88428    1716.8936   -10098.454    2.1349124    19.901567   0.15592939 
   42600   -936.54799    49.148392    -887.3996    1760.3172   -1427.5338    2.1514609    22.661802   0.17452659 
   42700   -946.79377    51.070185   -895.72358    1829.1488    11845.705    2.2068676    21.027264   0.14659379 
   42800   -939.14207    49.582163    -889.5599    1775.8533   -3762.0375    2.1507632    18.713613   0.16704481 
   42900   -943.69554    55.723093   -887.97245    1995.7991   -9477.3469    2.1437717    23.354928   0.16158357 
   43000   -940.77899    48.772182   -892.00681    1746.8427    7153.3606    2.1784459    22.722285   0.15292993 
   43100   -940.49674     43.84207   -896.65467     1570.264    4036.0235    2.1750519    23.159664   0.15914747 
   43200   -936.80534    51.298918   -885.50642    1837.3412   -10111.417    2.1260819    19.293182    0.1641651 
   43300   -940.60707    51.168979   -889.43809    1832.6873    3333.5416    2.1690704    18.528003   0.13994797 
   43400   -941.88231    49.162177   -892.72013    1760.8109    5023.0872     2.175716    20.449581   0.14629149 
   43500   -937.07225    54.109627   -882.96262    1938.0106   -6130.4331    2.1329945    22.976278   0.16343286 
   43600   -938.63451    51.058971   -887.57554    1828.7472    1868.6233    2.1565296     19.97174   0.14984912 
   43700   -941.74176    49.852247   -891.88951    1785.5267    2774.3179    2.1671463    22.039658   0.13330205 
   43800   -940.07193    51.732448   -888.33948    1852.8687   -755.45881    2.1537781    20.068436   0.15728103 
   43900   -938.97503    57.106804   -881.86823    2045.3586    -5371.013    2.1382022    21.012467   0.15205091 
   44000   -940.39546    47.971264    -892.4242    1718.1567    4182.6608    2.1753267     17.63275    0.1407413 
   44100   -941.86381    51.258521   -890.60529    1835.8943   -101.05838    2.1613975    22.659738   0.15746789 
   44200   -936.09433    51.683138   -884.41119    1851.1026   -3932.5796    2.1391555    18.702414   0.16220852 
   44300   -939.07529     44.97752   -894.09777    1610.9316    3512.8495    2.1703365    18.350356   0.14846224 
   44400   -939.64494    46.470445   -893.17449    1664.4028    -299.8647    2.1616269    18.371578   0.17597387 
   44500   -938.93558     50.34112   -888.59446    1803.0363   -452.37994    2.1558888    22.910037   0.15876207 
   44600   -937.25875    51.227831   -886.03092    1834.7951    2047.7104     2.160324    23.927836   0.15091567 
   44700    -943.7043    46.704065   -897.00023    1672.7702    3591.4171    2.1816942    20.532762   0.14960032 
   44800   -941.79044    50.133706   -891.65674    1795.6075   -9718.3297    2.1419686    21.437201   0.14649488 
   44900   -940.73575    52.560136   -888.17562    1882.5135   -2403.2109    2.1564298      18.4585   0.14913721 
   45000   -944.44078    49.430801   -895.00998     1770.432    10658.254    2.1970424    20.322626    0.1557327 
   45100   -944.21007    47.759686   -896.45039    1710.5788   -8468.3123    2.1473608    21.099611   0.14904241 
   45200   -941.43348    51.091221   -890.34226    1829.9023    -8501.644    2.1419549     20.51234   0.17233025 
   45300   -937.94316    49.971808   -887.97135    1789.8089    14108.675    2.1937341    22.060733   0.16311816 
   45400   -946.39329    49.768823   -896.62446    1782.5387   -3435.1066    2.1647434    20.373741   0.17241296 
   45500    -940.7442     49.95568   -890.78851    1789.2313   -10232.755    2.1331995    20.468587    0.1537703 
   45600   -935.91987    49.232895   -886.68697    1763.3438    11742.832    2.1810705    21.033399   0.14616759 
   45700   -942.10698     51.08416   -891.02282    1829.6493    103.14635     2.164555    20.030009   0.15066225 
   45800   -941.38252     46.97878   -894.40374    1682.6095   -9967.3144    2.1427846     19.99966   0.15312479 
   45900    -948.1539    45.576106    -902.5778    1632.3708    3651.9875    2.1885988    18.494211   0.15023888 
   46000   -939.13643    45.402806   -893.73362    1626.1638    6998.6345    2.1757209    21.724652   0.17829245 
   46100   -942.50322    50.811759   -891.69146    1819.8929   -4349.0319    2.1530712    21.453418   0.16586389 
   46200   -939.79603     49.47651   -890.31952    1772.0692   -2515.1418    2.1518096    24.739728   0.16947214 
   46300   -943.69657    56.474257   -887.22232    2022.7031     941.0677    2.1635683    22.369551    0.1529011 
   46400    -934.5548    57.769647   -876.78516    2069.0993   -1770.5785    2.1365056     19.83459   0.17907872 
   46500   -943.25495    54.786457   -888.46849    1962.2522   -1248.0526    2.1619655    22.418842   0.14798342 
   46600   -938.77754    48.965771   -889.81177    1753.7764    2067.8958    2.1625442     20.72043   0.15622324 
   46700   -942.73311    51.458505   -891.27461     1843.057   -4862.5413    2.1506712    22.089358   0.15079837 
   46800   -947.01543    45.943404   -901.07203    1645.5261    3182.8356    2.1831485    21.102567     0.151347 
   46900   -942.92385    47.867936   -895.05591    1714.4559    2750.6062    2.1782901    19.958852   0.18349641 
   47000   -941.21662    50.776907   -890.43971    1818.6447   -3922.3171    2.1536198    21.640984   0.19306336 
   47100   -935.70413    48.087322    -887.6168    1722.3135   -2269.9495    2.1420891    23.127464    0.1616113 
   47200   -934.42597    50.830471   -883.59549    1820.5631    8192.0995    2.1658914    18.455336   0.17444598 
   47300   -946.43496    51.537667    -894.8973    1845.8923   -1226.8076      2.16808    18.036788   0.13645799 
   47400   -940.73853    47.913844   -892.82469    1716.1001   -11070.623    2.1291641    19.585303   0.15047882 
   47500   -944.08482    55.294342   -888.79048    1980.4428    3700.8482    2.1731557    21.603154   0.17060636 
   47600   -944.43307    53.292571    -891.1405    1908.7466    4460.2953    2.1771302    28.429862   0.17713277 
   47700   -940.42096    44.861717   -895.55924     1606.784   -10582.457     2.133567    23.286034   0.15136097 
   47800   -947.47844    47.894684   -899.58376    1715.4139    3637.0018    2.1835715    37.058961    0.1785224 
   47900   -944.50912    54.306802   -890.20232    1945.0727    4400.0418    2.1740255    40.281426   0.17571897 
   48000   -937.88188    48.818302   -889.06358    1748.4945   -6517.8875    2.1347067    35.445521   0.16456333 
   48100   -940.67228    52.919128   -887.75316    1895.3712   -2064.1276    2.1499499    37.644889   0.16806047 
   48200   -945.38857    47.949612   -897.43895    1717.3812    12126.642    2.1968403    35.099883   0.16417373 
   48300    -936.6497    47.785185   -888.86452     1711.492   -4556.3578     2.140383    39.198142   0.16607382 
   48400   -937.60132    49.540765   -888.06055    1774.3706   -2005.5546     2.147027    42.169679   0.17032512 
   48500   -942.24213    48.977594   -893.26453    1754.1998    4034.0018      2.17754    20.668701    0.1555044 
   48600   -944.86736    49.022315   -895.84505    1755.8015   -2349.2096      2.16456    30.694998   0.14919247 
   48700   -938.90011    52.801209    -886.0989    1891.1478   -8656.5447    2.1363043    37.811781   0.18512455 
   48800   -939.32337    50.315474   -889.00789    1802.1178    2232.2346    2.1642394    32.298893   0.15685854 
   48900   -939.69634    48.117531   -891.57881    1723.3954    5439.7411    2.1718893     30.63225   0.18298441 
   49000   -939.05219    44.039857   -895.01234     1577.348   -2423.5945    2.1549254    33.661674   0.16729027 
   49100   -947.13295    44.756581   -902.37636    1603.0184    1644.3516    2.1843862    30.874967   0.15281757 
   49200   -940.45965    48.000024   -892.45962    1719.1868   -527.63312    2.1605674    46.660843   0.16792209 
   49300   -940.94239    50.756074   -890.18632    1817.8985   -5696.0867    2.1510732    28.704992   0.16542804 
   49400   -939.92023    53.601252   -886.31898    1919.8024    1369.7051    2.1595211    27.641001   0.16237967 
   49500   -940.26972     57.90294   -882.36678    2073.8733   -3793.6667    2.1449514    47.266325   0.18341765 
   49600   -943.07136    50.880452    -892.1909    1822.3533   -3068.4777    2.1536432    68.478309   0.13007226 
   49700   -942.12715    49.924806   -892.20234    1788.1255   -1498.0737    2.1611747    63.533358   0.15392908 
   49800   -938.55884    48.496216   -890.06262    1736.9586    3471.7217    2.1699697    65.404051   0.14113711 
   49900   -942.17983    52.974911   -889.20492    1897.3692   -3192.3695    2.1541453    64.967157   0.14722147 
   50000      -941.01     46.28395   -894.72605    1657.7233   -2618.2261    2.1584074    67.858375   0.13935732 
   50100   -946.82296    49.298348   -897.52461     1765.688    1680.0533    2.1819811    71.363505   0.14721241 
   50200     -943.239    52.463271   -890.77573    1879.0441    1481.5553    2.1667781    67.247136    0.1526527 
   50300   -935.76326    46.665146   -889.09812    1671.3763   -2075.4698    2.1454604    64.745777   0.15998581 
   50400   -940.48909    47.791483    -892.6976    1711.7176    1568.5064    2.1649219    65.530285   0.15761794 
   50500    -943.7144    46.104635   -897.60977    1651.3008    6813.7679    2.1884688    64.760351   0.16157222 
   50600   -940.40602    50.798265   -889.60775    1819.4096   -5610.5206    2.1488925    68.221019   0.16580911 
   50700   -941.21283    51.355461   -889.85737    1839.3664   -5882.3911    2.1465676    67.820199   0.15560671 
   50800   -942.64203    45.779633    -896.8624    1639.6604    10673.603    2.1938204    68.262716   0.15062129 
   50900   -945.60857    50.603147   -895.00543    1812.4212   -750.48611    2.1717855    67.221841   0.14955802 
   51000   -939.20367    49.920609   -889.28306    1787.9752   -12266.029    2.1286698    67.345278   0.16448553 
   51100   -940.95165    50.508122   -890.44353    1809.0178    4683.6015    2.1703848    70.193462   0.15685745 
   51200   -945.42902    52.095719    -893.3333    1865.8797    13447.084    2.2043928    69.788189   0.14422607 
   51300   -935.78944    54.791247   -880.99819    1962.4238   -18624.957    2.0986783    70.404291   0.18759769 
   51400   -938.86835    50.720846    -888.1475    1816.6367    192.22118    2.1566472    67.958327   0.16840626 
   51500   -943.74923    53.980297   -889.76893    1933.3785    10640.027    2.1924681    65.681144   0.16101485 
   51600   -942.18492    49.621557   -892.56336    1777.2642   -5976.8037    2.1483799    68.804917   0.15830311 
   51700   -937.35313    55.655197   -881.69794    1993.3673   -5495.1831    2.1378653     63.65254   0.16894737 
   51800   -936.65737    49.676754   -886.98062    1779.2412    9282.1969    2.1774281    67.150464   0.14165455 
   51900   -942.14947    50.528399   -891.62107     1809.744   -3567.7763    2.1540247    70.547588   0.15094018 
   52000   -942.88814    54.267818   -888.62033    1943.6765   -6198.6799    2.1517894    66.744804    0.1724002 
   52100   -937.81731    58.962438   -878.85487    2111.8207    2717.7209    2.1583297     69.47908   0.16495433 
   52200   -938.99956    49.574642   -889.42492    1775.5839    1822.1019     2.167105    66.830014   0.16148839 
   52300   -937.81493    46.557861   -891.25707    1667.5338   -7340.4832    2.1441531    71.162709   0.15248177 
   52400   -936.98984    49.484744    -887.5051    1772.3641    6069.1175    2.1685598    66.621248   0.15410434 
   52500   -939.12097    56.653105   -882.46786    2029.1088    4533.1959    2.1674291    70.386591   0.15919764 
   52600   -932.37801    53.935558   -878.44245    1931.7761   -11758.892     2.112459    68.377833   0.17952593 
   52700   -942.64521     53.79585   -888.84936    1926.7723    2518.4904    2.1688273     65.34603   0.14197589 
   52800   -941.25627    51.806293   -889.44998    1855.5135    7553.8386    2.1832632      67.9854   0.15022798 
   52900   -940.53466    47.314823   -893.21984    1694.6454   -6734.2705    2.1477979    66.029268   0.16138104 
   53000   -946.64295    45.587278   -901.05567     1632.771   -2251.6533     2.172217    69.386064    0.1373445 
   53100   -942.46143    47.735591   -894.72583    1709.7157    5725.8735    2.1846648    65.082831   0.14973356 
   53200    -940.6851    49.674956   -891.01015    1779.1768   -1331.9731    2.1623553    67.248192   0.15555672 
   53300   -938.11958    47.599668   -890.51992    1704.8475   -3923.6638    2.1512701    68.875207   0.14590748 
   53400   -931.08201     46.26893   -884.81308    1657.1853     7856.527    2.1668361    66.875522   0.16577822 
   53500   -934.58621    53.686598   -880.89961    1922.8592   -2298.5704    2.1432767    67.393431   0.16097046 
   53600   -940.73127    49.740092   -890.99118    1781.5097   -1351.8206    2.1578329    67.854255   0.15962176 
   53700   -943.02958    52.860456   -890.16912    1893.2698    1173.0122    2.1730196    67.157761   0.15802517 
   53800   -938.59036    47.464243   -891.12612     1699.997   -34.324978    2.1555822     69.31456   0.17098112 
   53900   -946.73527    44.839696   -901.89558    1605.9953   -3753.0637    2.1668549    66.823505   0.11283282 
   54000   -942.86618    48.083902   -894.78228     1722.191    862.60101    2.1660634    68.816666   0.13346489 
   54100   -941.59244    51.894375   -889.69806    1858.6683    5979.9658    2.1744789    66.765803   0.14677435 
   54200    -937.9559    48.397672   -889.55823    1733.4291   -4488.2669    2.1429262    64.058033   0.16086018 
   54300    -935.6126     51.20814   -884.40446    1834.0899    -362.1975    2.1461651    61.711981   0.17176446 
   54400   -933.27992    54.651569   -878.62836     1957.421    9130.8606    2.1662457    69.183819   0.16920285 
   54500    -938.3179     51.19403   -887.12387    1833.5845   -4278.3814    2.1439822    67.224231   0.15381162 
   54600   -938.35617    47.432361    -890.9238    1698.8551   -1202.2945    2.1526083    68.823479   0.16360393 
   54700   -943.71198    53.143642   -890.56834    1903.4125    7348.1294     2.186086    68.472181   0.15521776 
   54800   -934.83699    55.960232   -878.87676    2004.2926   -1084.7845    2.1394961    64.725846   0.16899568 
   54900   -939.29595    52.086358   -887.20959    1865.5445   -5097.7647    2.1411157    65.858686   0.15743048 
   55000   -942.13925    51.506948    -890.6323    1844.7921    2504.6037    2.1716022    61.629438   0.15476813 
   55100   -942.04153    50.774201   -891.26733    1818.5477    2730.4517    2.1726568    62.021763   0.15591646 
   55200     -934.766    54.906629   -879.85937    1966.5563   -8875.7319    2.1223191     64.30431   0.17262119 
   55300    -939.3344    50.864136   -888.47026    1821.7689     4928.517    2.1674267    60.608653   0.18100997 
   55400   -937.70565    47.247783   -890.45787    1692.2443    8863.6957    2.1741523    64.860858   0.17511804 
   55500   -940.07012    49.100001   -890.97012     1758.584   -9401.4773    2.1360448    64.855527   0.17314662 
   55600   -935.12865    54.305917   -880.82273     1945.041    1802.0307    2.1447244    59.501439   0.15785169 
   55700   -939.99368    50.955917   -889.03776    1825.0561    14829.674    2.1951736    62.049236    0.1430193 
   55800   -940.37333    48.020841   -892.35249    1719.9324   -10866.621    2.1291364    62.381775   0.14001293 
   55900   -937.06509    48.086945   -888.97814       1722.3   -1603.7235    2.1496357    62.162599   0.17401394 
   56000   -942.58157    53.113517   -889.46805    1902.3336    10843.249    2.1894326    61.653297   0.14980689 
   56100    -946.8735     47.38405   -899.48945    1697.1248      -2538.1    2.1691368    61.323847   0.15435339 
   56200   -941.66623    48.779945   -892.88629    1747.1207   -9657.7071    2.1424898    62.862664   0.14973639 
   56300    -941.4325     52.96275   -888.46975    1896.9336    3093.5926    2.1698963    64.507329   0.16207783 
   56400   -940.73346    48.208408   -892.52505    1726.6503    2483.4389    2.1670264    58.102528   0.15710073 
   56500   -945.07999     45.62685   -899.45314    1634.1883   -3130.8317    2.1638726     60.86315   0.14745552 
   56600   -939.03513    48.892547   -890.14259    1751.1537   -57.250354    2.1569078    61.488709   0.14962242 
   56700   -937.10214    48.055087   -889.04705    1721.1589    6387.1592    2.1699944    63.221077   0.14754327 
   56800    -941.7564    46.300529   -895.45587    1658.3171    -1292.878    2.1626058    59.789972    0.1434077 
   56900   -943.60808    45.387964   -898.22011    1625.6323   -2791.5544     2.164586    62.474287   0.16687205 
   57000   -940.57757     51.33239   -889.24518    1838.5401    1665.0391    2.1672744    66.353677   0.16504779 
   57100   -940.32562    50.431077   -889.89455    1806.2583   -721.16517    2.1574452    60.951307   0.16725484 
   57200   -941.84856    47.188149   -894.66041    1690.1084   -4398.3313    2.1520948    67.060045   0.15551627 
   57300   -948.04105    49.452719   -898.58833    1771.2171    8310.4127    2.1954238    64.392587    0.1451406 
   57400   -942.65306    54.304914   -888.34815    1945.0051   -2633.7704     2.155624    59.210037   0.15841154 
   57500    -934.9426    44.381176   -890.56143    1589.5728   -9197.1295    2.1277035    67.661811   0.16235177 
   57600    -943.9619    55.352998   -888.60891    1982.5436    8431.9038    2.1866304     63.39247   0.16508951 
   57700   -932.43849    54.704463   -877.73402    1959.3155    8399.9996    2.1622946    62.629365   0.17637106 
   57800   -939.39616    54.415836   -884.98032    1948.9779   -11771.066    2.1235793    64.796111   0.17530822 
   57900   -940.93281    50.405871   -890.52694    1805.3555    285.92587    2.1603518    63.598001   0.17555709 
   58000   -941.91436     51.85398   -890.06038    1857.2215    9307.4352    2.1858015    62.002803   0.17143405 
   58100   -934.44068    52.320328   -882.12035    1873.9244   -3621.8912    2.1341885    67.850528   0.19267252 
   58200   -936.74333      51.8946   -884.84873    1858.6764   -5362.1112    2.1366206    62.091954   0.18302204 
   58300   -941.02013    50.524715   -890.49542    1809.6121    4928.1441    2.1779929    65.731084   0.16169908 
   58400   -938.61087    48.817921   -889.79295    1748.4809    2100.1882    2.1637418    61.417219   0.16061454 
   58500   -938.75946    55.959194   -882.80027    2004.2554   -7661.2841     2.134817    63.374846   0.15424694 
   58600   -941.00588    50.265761   -890.74012    1800.3373   -50.044827    2.1636289    57.469974   0.17887972 
   58700   -939.35822    47.073104   -892.28512    1685.9879    3804.1934    2.1700733    58.333623   0.20054292 
   58800   -940.16531    50.662495   -889.50281    1814.5469   -1349.2867    2.1613222    63.083009     0.180235 
   58900   -937.72774    51.973978   -885.75376    1861.5194   -984.31863    2.1533215    61.118204   0.17609592 
   59000   -940.51222    45.610804   -894.90142    1633.6136   -94.801089    2.1638597    61.490616   0.16215707 
   59100   -941.26006    46.717458    -894.5426    1673.2499   -1747.7808    2.1633346     66.00012   0.17553056 
   59200    -942.5885     53.13012   -889.45838    1902.9282    1422.7839    2.1690199     65.50679   0.16414919 
   59300   -941.55646    52.833937   -888.72252      1892.32    -763.3284     2.158245    59.118982    0.1535875 
   59400   -949.17258    49.985247   -899.18734    1790.2903   -5689.4455    2.1679307    64.050231   0.14048651 
   59500   -938.05211    46.092941   -891.95917     1650.882   -761.83383    2.1580368    69.373411   0.16882916 
   59600   -940.10711     52.55436   -887.55275    1882.3066     1989.826    2.1636875    138.79971   0.15839894 
   59700   -943.27931    50.539832   -892.73948    1810.1535   -2153.3516    2.1565992    136.95927   0.14580081 
   59800   -944.22234    47.314987   -896.90735    1694.6512    1820.4442    2.1695596    145.63827   0.15817131 
   59900   -937.27529    50.562949   -886.71235    1810.9815   -656.87261    2.1515232    152.85998   0.18502358 
   60000    -937.8698    48.001049   -889.86875    1719.2235    1803.0766    2.1617686    139.60877   0.17003943 
   60100   -941.96013    46.943423   -895.01671    1681.3432    636.11537    2.1670569    146.95606   0.15515377 
   60200   -939.24123     52.85337   -886.38786    1893.0161    724.66665     2.154871    139.90141   0.15150212 
   60300   -937.77751    51.324899   -886.45261    1838.2718    592.74103    2.1586024    138.20976   0.16949563 
   60400    -939.1629    46.842904   -892.31999     1677.743   -3064.4699     2.156973     145.2445   0.15903037 
   60500   -942.09298    51.873233   -890.21975    1857.9111    1737.0012    2.1664549    139.08257   0.13739187 
   60600   -936.96105    55.122219   -881.83883     1974.278   -1788.9024    2.1461679    141.88847   0.15811408 
   60700   -942.65123    51.161495   -891.48973    1832.4192   -486.62789     2.166397    135.50013   0.13838774 
   60800   -940.28536     49.60573   -890.67963    1776.6974    1810.4161    2.1624097    143.83024   0.15715696 
   60900   -936.76266    53.880581   -882.88208     1929.807   -1157.9332    2.1464995    140.45273   0.17165056 
   61000   -945.07983    53.294624   -891.78521    1908.8202    285.83924    2.1675004    140.59643   0.14659229 
   61100   -940.53518    48.137227   -892.39795    1724.1009   -4745.3634    2.1506513    142.09447   0.15093445 
   61200   -937.67424    50.178596   -887.49564    1797.2153    3897.0345    2.1663613    145.84306   0.14249119 
   61300   -941.94346    52.377426   -889.56603    1875.9695    2417.2761    2.1723747    142.17963   0.15620708 
   61400   -945.28865    48.049985   -897.23867    1720.9762   -4564.0781    2.1606244     138.8039   0.15757571 
   61500   -941.39408    50.688843   -890.70523    1815.4905    98.455552    2.1629896    133.62029    0.1440191 
   61600   -938.81595    51.216992   -887.59896    1834.4069    2398.3365    2.1681678    145.08783   0.16284955 
   61700   -943.13516    47.714156   -895.42101     1708.948   -2944.0378    2.1592196    148.95807   0.14508126 
   61800   -941.08184    46.313299   -894.76855    1658.7744   -539.50515    2.1621699    144.48155   0.16226685 
   61900   -941.82052    54.305216    -887.5153    1945.0159      6359.04    2.1754248    140.96843   0.15789908 
   62000   -942.67737     50.89081   -891.78656    1822.7243   -3085.0386    2.1567665     139.0447   0.15804852 
   62100   -945.41556     46.60544   -898.81012    1669.2378    -5942.892    2.1560727    146.82191   0.14740767 
   62200   -942.31865    52.896985   -889.42167    1894.5782    6127.2346    2.1767227    136.45695   0.14186406 
   62300   -942.12668    54.011443   -888.11523     1934.494    5030.3682    2.1735813    152.65061   0.15154487 
   62400   -941.50396    49.763902   -891.74006    1782.3625   -13039.002    2.1340877    162.35786   0.17100729 
   62500   -940.09488    47.770285   -892.32459    1710.9584    1644.6405    2.1669017    137.10693   0.16505074 
   62600   -937.25671    55.308462   -881.94824    1980.9485    4222.4739    2.1629172    135.50152   0.18192856 
   62700   -935.45016    47.522409   -887.92776    1702.0803   -3283.7319    2.1491193    139.16347   0.17444689 
   62800   -937.90373    46.207301   -891.69643     1654.978   -1303.5484    2.1577051    146.02507   0.15579401 
   62900   -941.53434    50.662031   -890.87231    1814.5302    5435.7541    2.1781813    144.16611   0.14770708 
   63000   -934.94832    53.909459   -881.03886    1930.8413   -6033.3435     2.133634    143.79379   0.16994451 
   63100   -941.32672    50.575006   -890.75171    1811.4133   -3121.2059    2.1553236    140.73817   0.16985057 
   63200   -941.38174     50.97793   -890.40381    1825.8446    10933.706    2.1905107    135.05077   0.16465092 
   63300   -942.41699     53.67301   -888.74398    1922.3726   -7696.1542    2.1447107     138.1722    0.1527394 
   63400   -935.02758    52.690921   -882.33666    1887.1977   -16296.867    2.0995202    147.89594   0.17439833 
   63500   -942.71404    50.979215   -891.73482    1825.8906    17168.816    2.2059163     141.0328   0.14980991 
   63600   -942.55682    51.277806   -891.27901    1836.5851    3670.4765    2.1743167    143.41577   0.14686737 
   63700   -939.64435    52.139105   -887.50524    1867.4337   -16377.186    2.1165204    147.30897   0.15414915 
   63800   -941.86125    46.192328   -895.66892    1654.4417    4660.8861    2.1725258    135.38355    0.1348929 
   63900   -942.87698    48.140083    -894.7369    1724.2032    9261.9631    2.1883375    140.56481   0.14505306 
   64000   -941.32678    52.084834   -889.24194    1865.4899   -5745.9386    2.1430158    143.40034   0.14754551 
   64100    -937.2844    48.470879   -888.81352    1736.0511   -2516.0986    2.1459862    149.02103   0.16629061 
   64200    -946.6776    49.484835   -897.19277    1772.3673    10157.428    2.1952784    137.93831   0.16042175 
   64300   -941.56085    53.811625   -887.74922    1927.3373   -3336.1627     2.152751    141.30787   0.15842787 
   64400   -940.83075      51.9776   -888.85315    1861.6491    -6006.974    2.1475827    137.76024   0.16691786 
   64500   -942.74549    49.242492     -893.503    1763.6875    5060.3028    2.1803569    138.81529   0.15502952 
   64600   -945.43853    47.721214   -897.71731    1709.2008    1614.6076    2.1790293     144.1178   0.13998098 
   64700   -937.77747    51.000324   -886.77715    1826.6466   -9763.8718    2.1286143    137.12754   0.17429135 
   64800   -940.18813    50.008636    -890.1795     1791.128     6397.545    2.1771411    136.12942   0.15497841 
   64900   -941.56933    49.585898   -891.98344     1775.987    8387.0432    2.1895708    131.97401   0.17209385 
   65000   -933.59961    51.883939   -881.71567    1858.2945   -16990.934    2.1063152    138.79866   0.23501974 
   65100   -938.73532    50.147207   -888.58812    1796.0911    1747.7746    2.1607259      141.215    0.1969151 
   65200   -941.42295    51.035122   -890.38783     1827.893    10200.574    2.1900519    144.29885   0.16338433 
   65300   -941.16324    49.106354   -892.05688    1758.8115   -6406.6963    2.1454613    142.40793   0.16562339 
   65400   -939.49619    58.463922   -881.03227    2093.9657   -4922.6279    2.1401805     145.0618   0.15626141 
   65500    -941.8441    54.549399    -887.2947    1953.7616    6165.9284    2.1736266    142.15459   0.15393338 
   65600    -942.3495    50.184466   -892.16504    1797.4256   -4258.3355     2.154385    140.21557   0.16629419 
   65700   -939.88819    51.832225   -888.05597    1856.4423   -2086.7406    2.1523102    145.02132   0.15426311 
   65800   -936.94205    56.615195   -880.32686     2027.751    1538.4798    2.1508709    147.13803   0.16479529 
   65900   -941.51215    50.073335   -891.43881    1793.4453    3363.4926    2.1709495    139.31278   0.16449059 
   66000   -939.08523    47.990843   -891.09439     1718.858   -4589.1667    2.1450596    145.79188    0.1631764 
   66100   -936.28254    51.281277   -885.00126    1836.7094    1314.4589    2.1548769    138.89402   0.17809808 
   66200   -941.11399    49.801642   -891.31235    1783.7142    3564.6008    2.1695887    141.82826   0.13579439 
   66300   -940.97019    46.792098    -894.1781    1675.9232   -3479.5708    2.1532029    148.94218   0.14854072 
   66400   -943.30632    53.680117    -889.6262    1922.6271   -243.93935    2.1660364    151.18565   0.14188778 
   66500   -936.58611    49.785149   -886.80096    1783.1235    7924.6243    2.1693646    143.91548   0.14960169 
   66600   -942.51187    46.549701   -895.96216    1667.2415   -9317.9545    2.1452746    138.76779   0.17055207 
   66700   -943.58495    48.719053    -894.8659    1744.9398   -5919.3839    2.1566326    136.03331   0.16561328 
   66800   -941.16388    54.006641   -887.15724     1934.322    14622.923    2.2001135    139.36711   0.15806392 
   66900   -939.62524    48.640006   -890.98523    1742.1086   -5305.8043    2.1459513    140.44777   0.15700692 
   67000   -945.04322    46.821769   -898.22145     1676.986   -10753.682    2.1412074    147.95477   0.13344737 
   67100   -941.89295    48.073329   -893.81962    1721.8123    12955.714    2.1976726     142.1967   0.14521115 
   67200   -937.86983    49.899944   -887.96989     1787.235    4677.6825    2.1639363    144.10308   0.15325679 
   67300    -942.2803    50.579428   -891.70087    1811.5717   -8474.9313     2.141041    140.62372    0.1567809 
   67400   -944.56748    47.493102   -897.07438    1701.0307    3046.0271    2.1798597    140.53817   0.15212485 
   67500   -936.36271    50.017578   -886.34514    1791.4483    4068.9943    2.1621645    141.43084   0.15542639 
   67600   -936.73007    48.172034   -888.55803    1725.3476   -46.105635    2.1561321    131.52785    0.1803287 
   67700   -940.61364    47.555338    -893.0583    1703.2597   -250.89148    2.1595238     140.8391    0.1372143 
   67800   -941.27541    50.019763   -891.25565    1791.5265    2793.0565    2.1703217    135.38292   0.16068063 
   67900   -931.80215    47.710187   -884.09196    1708.8059    182.37241    2.1475078    142.11257   0.17635164 
   68000   -943.98855     52.55767   -891.43088    1882.4251   -6568.8784    2.1491101    141.03353   0.14082671 
   68100   -942.62004    52.032962   -890.58708     1863.632    6278.8792    2.1758797    145.78991   0.14372108 
   68200   -932.83818    52.624371   -880.21381    1884.8141    2663.1142    2.1515691    140.86402   0.18733106 
   68300   -937.66564     48.68637   -888.97927    1743.7692    -7239.454    2.1398545    138.34704   0.15239191 
   68400   -941.34681    49.545674   -891.80114    1774.5464    46.753854    2.1630278    135.33391   0.16335765 
   68500   -941.49451    54.426517   -887.06799    1949.3605    10588.456    2.1875871      139.255   0.14309598 
   68600   -935.03743    51.890557   -883.14687    1858.5316   -10083.611    2.1206384    143.52191   0.15427803 
   68700   -939.22492    44.548782   -894.67614    1595.5758   -1061.2149    2.1573016    138.38391   0.14974298 
   68800   -946.02937    55.856284   -890.17308    2000.5695    9997.4673    2.1941452    138.72763   0.13249258 
   68900   -939.62743    50.737791   -888.88964    1817.2437   -4625.1114    2.1440741     142.4569   0.16353254 
   69000   -936.93836    55.839587   -881.09877    1999.9715   -10151.734    2.1238754    147.80158   0.17145874 
   69100   -941.89632    52.773132   -889.12318    1890.1422    4396.2638     2.173835    139.05416    0.1556677 
   69200   -940.88202    49.959141   -890.92288    1789.3553     -3134.38    2.1524838    142.96929   0.15236117 
   69300   -939.72521      49.1671   -890.55811    1760.9872    -832.8731    2.1502235    143.23676   0.13828401 
   69400   -941.33094    53.459276   -887.87166    1914.7174    3186.8854    2.1673557    141.62344   0.15148263 
   69500   -931.97161    54.766479   -877.20513    1961.5367   -1179.3066    2.1363917    144.56444   0.19286632 
   69600   -942.78307    54.487546   -888.29552    1951.5463   -2494.4154    2.1576303    147.00128   0.15266124 
   69700   -944.58045    54.164032   -890.41641    1939.9592   -2467.9986    2.1561772    146.79054   0.15552915 
   69800      -941.84    51.047914   -890.79208    1828.3511   -674.21903    2.1600053    139.19205   0.17511773 
   69900    -933.9734    50.518342   -883.45506    1809.3838    2031.6542    2.1532653    143.68635      0.19179 
   70000   -935.34923      52.0285   -883.32073    1863.4722    -1608.369    2.1444906    146.13207   0.20868277 
   70100   -938.27731    48.785007    -889.4923     1747.302   -3304.4738    2.1522196    153.39912   0.21425935 
   70200   -939.61163    50.324589   -889.28705    1802.4443    881.83155    2.1602821    156.72376   0.19045549 
   70300   -934.81294    54.668283   -880.14466    1958.0196    2527.7148    2.1514776    154.77345   0.18409079 
[...]
  186800   -942.53773    49.966348   -892.57138    1789.6134    3171.6556    2.1744409    591.72191   0.15982319 
  186900   -939.69692    52.323036   -887.37388    1874.0214   -8215.9891    2.1377974     588.2782   0.15402872 
  187000   -936.86583    53.530243   -883.33559    1917.2592    662.56024    2.1520969    600.68032   0.16909343 
  187100   -938.63016    46.172604   -892.45755    1653.7352    13153.014    2.1902222    577.58778   0.16265325 
  187200   -937.55455    47.941566   -889.61298     1717.093   -3172.0139    2.1464043    598.88923   0.16355681 
  187300   -933.47025    48.012949    -885.4573    1719.6497   -4517.3965    2.1324854    610.86094   0.14805152 
  187400   -944.71314     49.18496   -895.52818    1761.6269    12455.187    2.2038593    552.01249   0.15524571 
  187500   -941.42775    51.154947    -890.2728    1832.1847   -2150.4785    2.1584091    596.94285   0.14624569 
  187600   -938.80784    50.503837   -888.30401    1808.8643   -9306.2524    2.1310476     585.6749   0.15424133 
  187700   -943.43578    48.828397   -894.60739    1748.8561    5721.9743    2.1813553    569.76234   0.13506965 
  187800   -944.05904    48.937972   -895.12107    1752.7807     4923.464    2.1791115    584.58999   0.13852552 
  187900   -938.33552    50.551761   -887.78376    1810.5808   -7846.7637    2.1382006    578.71887   0.15479149 
  188000   -939.96295    48.567344   -891.39561    1739.5061    -510.4831    2.1603315    581.64112   0.15484936 
  188100   -947.18337    50.841483   -896.34189    1820.9575    1606.3467    2.1785968    581.91293   0.14343428 
  188200   -940.67288    55.165072   -885.50781    1975.8128   -7182.9263    2.1346872    595.10895    0.1611535 
  188300   -937.35419    47.100124   -890.25407    1686.9556    3338.8086    2.1588725    584.64866   0.17400343 
  188400    -940.9334    47.645751   -893.28765     1706.498    6764.2592    2.1779569    586.83689   0.14692165 
  188500   -930.88352    47.728669   -883.15485    1709.4678   -182.03074    2.1364151    599.66018    0.1473591 
  188600   -938.80101    49.361684   -889.43932    1767.9565   -189.24742    2.1566588    577.78958   0.14813747 
  188700   -940.85713    48.532535   -892.32459    1738.2594    3354.2535    2.1685863    571.64477   0.15266676 
  188800   -937.47931    51.949601   -885.52971    1860.6463   -848.66122    2.1500284    598.91667   0.14875386 
  188900   -934.98697    49.243354   -885.74362    1763.7184   -1522.7614    2.1463309    575.08327    0.1776716 
  189000   -944.00274    50.714942    -893.2878    1816.4253    1802.4369    2.1742555    588.75914   0.15257266 
  189100   -939.64118     51.82918     -887.812    1856.3333    5765.8227    2.1684153    595.08085   0.16575972 
  189200   -938.07304    50.839825   -887.23322    1820.8981   -9236.0635    2.1333829    591.88512    0.1718197 
  189300   -944.35009    47.278922   -897.07117    1693.3595    2590.1335     2.179224    572.27107   0.15472617 
  189400   -939.23107    50.101502   -889.12957    1794.4541    9032.7386     2.182678    585.77452    0.1607211 
  189500   -942.52416    53.389626   -889.13454    1912.2228   -10220.625    2.1367011    589.27881   0.15963677 
  189600   -944.38857    47.223878   -897.16469     1691.388   -4386.4911    2.1585634    587.03183   0.15007548 
  189700    -942.9529    49.678326   -893.27458    1779.2975    11529.651    2.1953901    591.53062   0.15872611 
  189800   -939.04511    51.571193   -887.47391    1847.0931   -867.91139    2.1577196    572.99329   0.18219737 
  189900   -942.53483    49.909904   -892.62492    1787.5918    -13063.11    2.1365613     592.2912   0.18526846 
  190000   -943.15741    49.347882   -893.80953    1767.4622    7532.4162    2.1863474    588.36662   0.16112546 
  190100   -940.56285    57.025244    -883.5376    2042.4374    467.07342    2.1599577    590.83694   0.17255286 
  190200   -940.93109    50.351138   -890.57995    1803.3952   -6885.2287    2.1436059    594.57261   0.15763183 
  190300   -942.57866     50.10458   -892.47408    1794.5644   -1330.3926    2.1677121    568.72355   0.15942545 
  190400   -938.16178    55.586698   -882.57508    1990.9139    3002.0829    2.1624644    578.40374   0.17785715 
  190500     -938.189    51.064693   -887.12431    1828.9521    -1559.942    2.1525896    584.11633   0.15948848 
  190600   -941.67112    48.740344   -892.93078    1745.7024   -3618.3448    2.1580764    585.90664   0.16491617 
  190700   -937.26007    50.394609   -886.86546    1804.9522    6681.7522    2.1702222    586.02174   0.17508394 
  190800    -935.8278    51.191939   -884.63586    1833.5096     884.9644    2.1496661    584.11489   0.16371579 
  190900   -939.85021    45.750838   -894.09937    1638.6291    750.59507    2.1650653    579.66106   0.16024237 
  191000   -935.55547     46.46392   -889.09155    1664.1691    4371.0497    2.1672878    568.02336   0.17657698 
  191100   -940.32797    54.213368    -886.1146    1941.7262   -4468.6546    2.1497976    584.93102   0.15178103 
  191200   -944.44744    47.683868   -896.76357    1707.8632    983.09204    2.1743078    571.52056   0.13371246 
  191300   -942.83457     51.56018   -891.27439    1846.6987   -2562.9919    2.1590919    563.91415   0.13944688 
  191400   -938.22544     51.06969   -887.15575    1829.1311    1374.4646    2.1569087    582.93205    0.1724283 
  191500   -946.78743    50.961764   -895.82566    1825.2656   -1738.9033    2.1692679     577.7049   0.15583086 
  191600   -943.62079    49.759753   -893.86104    1782.2139   -1847.4658    2.1623988    581.56795   0.15209078 
  191700   -939.86033    52.184965   -887.67536    1869.0762    1359.4057    2.1587089    590.07732   0.15789585 
  191800   -947.47918    54.811715   -892.66747    1963.1569   -2225.7832    2.1632811    587.87373   0.13882458 
  191900   -942.79149    45.727443   -897.06405    1637.7912     916.0916    2.1655647    592.16015   0.16419808 
  192000    -941.6617    54.528237   -887.13346    1953.0037   -3226.9734    2.1547411    594.09182   0.18078244 
  192100    -936.7769    47.020907   -889.75599    1684.1184    5644.0612    2.1693366    582.91576   0.15852168 
  192200   -942.04901    46.216751   -895.83226    1655.3164   -270.15178    2.1647243    588.24306   0.15655975 
  192300   -939.80069    53.541934   -886.25875    1917.6779   -2179.8513    2.1496979    590.70704   0.16927345 
  192400   -937.03931    50.065811    -886.9735    1793.1758     5919.697    2.1733603    571.66432   0.18669939 
  192500   -942.62468    49.139258   -893.48542      1759.99   -3923.3629    2.1611343    605.45664   0.17720664 
  192600   -938.22157    50.478024   -887.74354    1807.9397   -3220.7899    2.1473813    596.70957   0.16892813 
  192700   -938.37804    54.702286   -883.67576    1959.2375    3251.9835     2.161053    570.46475    0.1625706 
  192800   -944.30821    52.344431   -891.96378    1874.7877   -2736.2634    2.1628244    597.57994   0.16136629 
  192900   -939.93468     49.27671   -890.65797     1764.913   -2854.5236    2.1532076    586.09134   0.17753399 
  193000   -936.25417    55.095321   -881.15885    1973.3146    3337.9793    2.1528908    587.79609   0.17768691 
  193100   -940.67181    49.694841   -890.97697     1779.889    4558.6401    2.1739045    592.38671   0.16858332 
  193200   -938.16993    45.727099   -892.44284    1637.7789   -7463.4882     2.143253    589.05191   0.15419569 
  193300   -936.13579    50.970793     -885.165     1825.589    3327.4734    2.1571214    586.64238   0.14845833 
  193400   -940.61517    47.899595   -892.71558    1715.5898     10352.03    2.1898133    566.60756    0.1551268 
  193500   -944.93784    50.347718   -894.59012    1803.2727   -12588.549    2.1401389    567.42962   0.16958798 
  193600    -940.6024    51.470568   -889.13183    1843.4891    -3444.739    2.1544042    587.20533   0.16627829 
  193700   -939.07509    50.951237   -888.12386    1824.8885    11920.899    2.1905081    570.41319   0.17360315 
  193800   -944.35783     46.14038   -898.21745    1652.5811    -3682.512    2.1612068    576.13128   0.16031542 
  193900   -937.34758    45.758736   -891.58884     1638.912   -9907.0629    2.1389364    574.45121   0.16781026 
  194000   -938.55513     51.90392   -886.65121    1859.0102    10451.909    2.1856765    564.23472   0.14891139 
  194100    -941.3899    47.456285   -893.93361     1699.712     1362.605    2.1713528    576.32858    0.1570448 
  194200    -938.5367     46.43349   -892.10321    1663.0792   -4706.8271    2.1534451    571.91457   0.14959161 
  194300   -936.39095    51.323237   -885.06772    1838.2122   -155.25998    2.1530452    579.11475   0.17421293 
  194400   -942.54843    51.386123   -891.16231    1840.4646    1303.4137    2.1690645    583.55111    0.1635361 
  194500   -938.77265    45.518182   -893.25447    1630.2962    674.53332    2.1641245    578.05705   0.18354053 
  194600   -934.88508    51.971899   -882.91318    1861.4449   -1926.6394    2.1434871    581.37242   0.18311586 
  194700   -939.68327    49.066409   -890.61686    1757.3808    6261.6973    2.1747797    590.65781   0.15066973 
  194800   -941.04543    48.060313   -892.98512    1721.3461   -1515.1777    2.1657623    579.27299   0.15309847 
  194900   -936.36665    51.428741   -884.93791     1841.991   -6680.0902    2.1456072    593.59447   0.16823475 
  195000    -939.2271    48.855993   -890.37111    1749.8445    6102.5887    2.1756279    589.58447   0.16334621 
  195100   -942.93374    49.468588   -893.46515    1771.7854   -1047.5716    2.1692699    587.12017   0.17560165 
  195200   -938.21212    50.481616    -887.7305    1808.0684   -2898.3664    2.1484545    600.82809   0.18697507 
  195300   -937.66077    51.476413   -886.18436    1843.6985    2830.8497    2.1634298    586.18123   0.18850016 
  195400   -940.67683    45.195098   -895.48174    1618.7245    7066.1778     2.187845    581.21209   0.18752515 
  195500   -939.57331    50.324471   -889.24884      1802.44   -9617.2995    2.1339256    583.77994   0.17427913 
  195600   -935.45277    48.076466    -887.3763    1721.9247    305.12126    2.1550931    586.17636   0.18194256 
  195700   -943.50174    49.101807   -894.39994    1758.6486    13415.962    2.2045899    566.74213   0.15228989 
  195800   -941.68584    51.158522   -890.52732    1832.3127   -6123.9896    2.1496237    584.25968   0.15254396 
  195900   -937.97787     50.65781   -887.32006     1814.379   -9120.0498    2.1314278    594.45211   0.19111853 
  196000   -940.74617    49.278312   -891.46786    1764.9704    9999.2443    2.1860877    582.51584   0.17936522 
  196100   -945.43864    50.140817   -895.29783    1795.8622      1808.36    2.1767793    588.21619   0.19260777 
  196200   -935.31124     49.76239   -885.54885    1782.3083   -10591.034    2.1229927    607.21208   0.20275926 
  196300   -937.08153    46.683538   -890.39799     1672.035    7567.4465    2.1772175     564.2498    0.1867233 
  196400   -941.54382    49.051861   -892.49196    1756.8598     6680.414    2.1796916    557.57195   0.16733737 
  196500   -935.66966    49.875463   -885.79419    1786.3582   -9565.6689     2.133635    497.51397   0.18984325 
  196600   -937.14474    49.285564   -887.85917    1765.2301   -1505.2897    2.1470903    523.00322   0.20517673 
  196700   -940.89422    48.159576   -892.73465    1724.9014    13042.515     2.195707    503.56919   0.20562026 
  196800   -937.37762    52.302663   -885.07495    1873.2917    -1604.202    2.1495506    499.54935   0.18565837 
  196900   -937.12326    49.871902   -887.25136    1786.2307   -8689.6163    2.1411786    484.97913   0.17614787 
  197000   -941.67893    48.574063   -893.10487    1739.7468    3919.8137    2.1764765    494.86525   0.17577711 
  197100   -936.91382    52.442992   -884.47082    1878.3178    2975.1637    2.1636032    490.87968   0.18974497 
  197200   -934.89741    49.802119   -885.09529    1783.7313   -5037.2256    2.1408982    561.46362   0.21071876 
  197300   -943.14812    50.959283   -892.18883    1825.1767   -613.41545     2.166444    517.47081   0.19778935 
  197400   -942.24372     55.14076   -887.10296    1974.9421    4466.5946    2.1690639    537.11259   0.16870143 
  197500   -939.51088    55.961361   -883.54952     2004.333    -5214.988    2.1412487    524.78234   0.17753166 
  197600   -944.13543    50.171709   -893.96372    1796.9687    -2012.274    2.1652163    515.72643   0.17595466 
  197700   -938.07845    49.355027   -888.72342    1767.7181    6245.4032    2.1693278    524.67473   0.16680743 
  197800   -936.13686     50.07903   -886.05783    1793.6492   -3387.5905      2.14433    516.02963   0.18486174 
  197900   -942.62236    46.016424   -896.60594    1648.1414   -2982.0202    2.1603719    550.55414   0.17222792 
  198000   -945.94488    54.479941   -891.46494    1951.2739    3634.5106    2.1748107    512.31032   0.18010314 
  198100   -937.37562    51.420187   -885.95543    1841.6846     1860.747    2.1589226    515.48856   0.19469778 
  198200   -938.22911    45.456722   -892.77239    1628.0949   -4258.4983    2.1406669    534.12797   0.18065338 
  198300   -940.91975    48.222935   -892.69682    1727.1707    2267.1932     2.167008    512.59929   0.16995675 
  198400    -938.0054    54.523446   -883.48196    1952.8321    6340.2438    2.1689602    506.24202   0.15521694 
  198500   -941.76148    51.004905   -890.75658    1826.8107   -6018.3789    2.1457824    516.71817   0.18400764 
  198600   -940.85348    49.307031   -891.54645    1765.9991     -2813.32    2.1504584    542.74516   0.19188056 
  198700   -934.11877    53.213482   -880.90528     1905.914    9424.9449    2.1675166    526.09554   0.20050945 
  198800   -934.52109    47.074876   -887.44622    1686.0513    2683.8528    2.1599057    527.63994   0.19390105 
  198900   -940.09138    47.409939   -892.68144    1698.0521   -8393.5348    2.1402763    518.38177   0.18568428 
  199000   -938.24368    53.950484    -884.2932    1932.3107    5591.9249     2.170862    520.85665   0.18537971 
  199100   -939.12266     53.53102   -885.59164     1917.287    4326.6547    2.1679847    535.02526   0.18653774 
  199200   -940.06112    47.418483   -892.64264    1698.3581   -10872.896    2.1373344    516.27699   0.19325487 
  199300   -941.11654    53.089972   -888.02657    1901.4903    3801.1749    2.1656555    499.82827   0.16511399 
  199400   -936.29205    51.256417   -885.03564     1835.819    8309.5467     2.173634    505.48964   0.17054718 
  199500    -937.5302    45.981397    -891.5488    1646.8869   -9428.8781    2.1337978    532.50203   0.19759335 
  199600   -941.68088    48.395266   -893.28561    1733.3429   -1615.7951    2.1616037    533.70576   0.16706455 
  199700   -941.38262    53.175244   -888.20738    1904.5444     5093.784    2.1758813     509.2979   0.19031315 
  199800   -937.67859    48.424135   -889.25445    1734.3769   -1689.5434    2.1471245    490.62072   0.17671335 
  199900   -944.42012    45.256614   -899.16351    1620.9278     2148.705    2.1710251    505.32035   0.15864619 
  200000   -938.60784    47.889749   -890.71809    1715.2371    1085.3874    2.1581289    527.47212   0.16115395 
  200100   -941.27817    53.689309   -887.58886    1922.9563   -3048.9802    2.1590871    518.21467   0.20111993 
  200200   -944.97591    51.574463   -893.40145    1847.2102   -3166.0576    2.1614702    542.56236   0.18717737 
  200300   -941.07053    44.875136    -896.1954    1607.2646   -169.03372    2.1645456    525.12654   0.17931198 
  200400   -940.17433    53.112224    -887.0621    1902.2872   -2787.8562    2.1525499    530.11909   0.18578998 
  200500   -939.13499      49.8383   -889.29669    1785.0272    8.7639616    2.1566026    515.70292   0.18300958 
  200600   -944.89337    49.590659   -895.30271    1776.1576   -2384.5649    2.1655825    519.39281   0.18184787 
  200700   -938.73302    51.584764   -887.14826    1847.5792   -412.28337    2.1492122    441.60163   0.17154183 
  200800   -943.14989    56.306371   -886.84352      2016.69    2887.2673     2.164581    435.00779   0.15339036 
  200900   -939.96099     47.84191   -892.11908    1713.5237   -3368.4415    2.1505594    431.99928   0.16471018 
  201000   -941.24429    49.905403   -891.33889    1787.4306   -5094.2967    2.1456359    435.34212   0.17620614 
  201100   -938.41251    56.768618   -881.64389     2033.246    2761.3607    2.1573463    417.54114   0.15749298 
  201200    -942.6667    53.268061   -889.39864    1907.8688    67.980609    2.1623859    435.88345   0.14962613 
  201300   -941.94063    48.973776   -892.96686    1754.0631    -8282.439    2.1404423    422.58107    0.1576896 
  201400   -938.28749    53.577393    -884.7101    1918.9479     3492.921    2.1603934    418.06669   0.16390698 
  201500    -937.2585    51.416716   -885.84179    1841.5603    7457.1941    2.1718961    410.60325   0.16691263 
  201600   -941.52665     48.18306   -893.34359    1725.7425   -9649.8929     2.137663    433.46241   0.16806017 
  201700   -942.31671    52.678164   -889.63855    1886.7408    268.50793    2.1587745    424.69791   0.15519214 
  201800   -943.25037    58.454544   -884.79583    2093.6298    6279.9934    2.1746836    419.61881   0.15801299 
  201900   -939.04287    53.452843   -885.59002     1914.487   -9981.1161    2.1227537    429.88398   0.16121176 
  202000   -944.77199    50.603867   -894.16812     1812.447   -2852.6002    2.1585908    415.92912   0.16463204 
  202100   -941.21613    52.189325   -889.02681    1869.2323        11602    2.1855914    412.95921   0.13547218 
  202200   -942.04978    51.699415   -890.35037    1851.6856   -5598.1199    2.1389278    438.16188   0.13958381 
  202300   -946.61016    46.007358   -900.60281    1647.8167   -3903.6118    2.1614959    430.89565   0.15217576 
  202400   -944.41401    50.801698   -893.61231    1819.5326    3873.4045    2.1734043    433.68156   0.15825984 
  202500   -941.17062    52.054703   -889.11591    1864.4107      950.412    2.1627335    432.34343    0.1558616 
  202600   -941.23921    50.227862   -891.01135    1798.9799   -4106.9337    2.1505781     428.9308   0.15331314 
  202700   -945.37396    45.303703   -900.07025    1622.6143     2313.802    2.1806498    417.10922   0.13752348 
  202800    -942.7046    52.196454   -890.50814    1869.4877   -1215.6427     2.162994    432.47461   0.12935236 
  202900   -940.84307    51.473989   -889.36908    1843.6116    14.405667    2.1584172    421.25703   0.15232625 
  203000   -944.20321    51.270415    -892.9328    1836.3203   -2500.4011    2.1605465    424.52437    0.1516499 
  203100   -947.05961     46.66342   -900.39619    1671.3145    2732.5661     2.181186    423.50488   0.11708038 
  203200   -935.75007      45.9327   -889.81737    1645.1427   -2001.4774     2.150412     427.4388   0.16382442 
Loop time of 141.401 on 1 procs for 200000 steps with 217 atoms

Performance: 366.618 ns/day, 0.065 hours/ns, 1414.420 timesteps/s
100.0% CPU use with 1 MPI tasks x no OpenMP threads

MPI task timing breakdown:
Section |  min time  |  avg time  |  max time  |%varavg| %total
---------------------------------------------------------------
Pair    | 134.5      | 134.5      | 134.5      |   0.0 | 95.12
Neigh   | 3.6713     | 3.6713     | 3.6713     |   0.0 |  2.60
Comm    | 0.95021    | 0.95021    | 0.95021    |   0.0 |  0.67
Output  | 0.069126   | 0.069126   | 0.069126   |   0.0 |  0.05
Modify  | 1.8875     | 1.8875     | 1.8875     |   0.0 |  1.33
Other   |            | 0.3196     |            |       |  0.23

Nlocal:    217 ave 217 max 217 min
Histogram: 1 0 0 0 0 0 0 0 0 0
Nghost:    953 ave 953 max 953 min
Histogram: 1 0 0 0 0 0 0 0 0 0
Neighs:    4118 ave 4118 max 4118 min
Histogram: 1 0 0 0 0 0 0 0 0 0
FullNghs:  8236 ave 8236 max 8236 min
Histogram: 1 0 0 0 0 0 0 0 0 0

Total # of neighbors = 8236
Ave neighs/atom = 37.9539
Neighbor list builds = 6226
Dangerous builds = 90
Total wall time: 0:02:23
