LAMMPS (3 Mar 2020)

# ---------- 1. Initialize simulation ----------
units metal
atom_style atomic
dimension 3
boundary p p p
read_data /home/modeler/RemLabs/Project/Si_3x3x3_supercell_MD/1800/20201204-035746/lammps.data
  orthogonal box = (0 0 0) to (17.469 17.469 17.469)
  1 by 1 by 1 MPI processor grid
  reading atoms ...
  217 atoms
  read_data CPU = 0.00121215 secs

pair_style meam/c
pair_coeff * * library.meam Li Si LiSi.meam Li Si
Reading potential file library.meam with DATE: 2012-06-29
Reading potential file LiSi.meam with DATE: 2020-11-07

group Li type 1
1 atoms in group Li

velocity all create 1800 3320 dist gaussian

# ---------- 2. Describe computed properties----------
compute msdli Li msd
thermo_style custom step pe ke etotal temp press density c_msdli[4]
thermo 100

# ---------- 3. Specify ensemble  ----------
#fix 1 all nve
fix 1 all nvt temp 1800 1800 0.041702513430001475
#fix 1 all npt temp 1800 1800 0.041702513430001475 tchain 2 iso 1.0 1.0 1.0 pchain 2

# ---------- 4. Run -------------
timestep 0.0008340502686000295
run 5995
Neighbor list info ...
  update every 1 steps, delay 10 steps, check yes
  max neighbors/atom: 2000, page size: 100000
  master list distance cutoff = 6
  ghost atom cutoff = 6
  binsize = 3, bins = 6 6 6
  2 neighbor lists, perpetual/occasional/extra = 2 0 0
  (1) pair meam/c, perpetual
      attributes: full, newton on
      pair build: full/bin/atomonly
      stencil: full/bin/3d
      bin: standard
  (2) pair meam/c, perpetual, half/full from (1)
      attributes: half, newton on
      pair build: halffull/newton
      stencil: none
      bin: none
Per MPI rank memory allocation (min/avg/max) = 9.266 | 9.266 | 9.266 Mbytes
Step PotEng KinEng TotEng Temp Press Density c_msdli[4] 
       0   -951.06911    50.256344   -900.81276         1800    -114182.3    1.8918427            0 
     100   -918.78313    32.892871   -885.89026    1178.1034   -80274.675    1.8918427   0.11381265 
     200   -908.85116    48.603445   -860.24771    1740.7991   -70343.723    1.8918427   0.42716458 
     300   -900.38238    55.702617   -844.67977    1995.0657   -61473.256    1.8918427  0.091928738 
     400    -905.9378    50.164243   -855.77356    1796.7013   -65205.889    1.8918427  0.095426676 
     500   -905.40551    50.692807   -854.71271    1815.6325   -62450.532    1.8918427   0.13298711 
     600    -902.5416    50.234242   -852.30735    1799.2084   -66303.834    1.8918427   0.26449747 
     700   -905.38483    51.653519   -853.73131    1850.0417   -65418.707    1.8918427   0.19934615 
     800   -906.84508    50.062184    -856.7829    1793.0459   -67477.792    1.8918427  0.067516268 
     900   -898.01416    46.102247   -851.91191    1651.2153   -60772.433    1.8918427   0.19029076 
    1000   -898.75233    48.433432   -850.31889    1734.7099   -61288.556    1.8918427  0.094057893 
    1100   -902.28092    42.025876   -860.25505    1505.2145   -66425.739    1.8918427   0.13730472 
    1200   -908.41088    53.913255   -854.49763    1930.9773   -67060.206    1.8918427    0.1485365 
    1300   -898.73003    47.518941   -851.21109    1701.9561    -62009.21    1.8918427  0.040297459 
    1400    -899.5853    51.754783   -847.83051    1853.6686   -61960.643    1.8918427  0.046734336 
    1500   -904.29827    48.822026   -855.47624    1748.6279   -66888.938    1.8918427   0.35430485 
    1600   -903.70754     51.34998   -852.35756    1839.1701   -64963.189    1.8918427  0.030716345 
    1700   -903.61901    50.547477   -853.07154    1810.4273   -65245.089    1.8918427 0.0049710203 
    1800   -900.75593    46.678722   -854.07721    1671.8626    -65200.38    1.8918427   0.18153802 
    1900   -901.61889    49.876137   -851.74275    1786.3823   -60275.498    1.8918427  0.028520928 
    2000   -902.56674    47.289961   -855.27678    1693.7549   -64227.871    1.8918427   0.10954563 
    2100   -905.18009    52.623522   -852.55657    1884.7837   -66018.377    1.8918427   0.23597567 
    2200   -905.33732    49.019783   -856.31753    1755.7108    -69566.96    1.8918427   0.20519674 
    2300   -906.04122    44.929549   -861.11167    1609.2135   -71932.859    1.8918427  0.033450932 
    2400    -906.0329    53.588544   -852.44436    1919.3473   -67377.231    1.8918427  0.096983801 
    2500   -904.53329    52.539489    -851.9938     1881.774   -65055.028    1.8918427  0.031121289 
    2600   -907.44013     52.87182   -854.56831    1893.6769   -69151.219    1.8918427   0.27663014 
    2700   -906.95439    50.382177   -856.57221    1804.5069   -70064.935    1.8918427   0.03058768 
    2800   -900.69233    49.637276   -851.05506    1777.8272   -61926.991    1.8918427   0.15498527 
    2900   -903.27191    50.605436   -852.66647    1812.5032   -65591.146    1.8918427   0.85295401 
    3000   -904.21598    47.239466   -856.97651    1691.9464    -68913.15    1.8918427  0.085150435 
    3100   -903.49769    48.394952   -855.10274    1733.3317   -66270.647    1.8918427  0.012102853 
    3200   -901.30742    55.552983   -845.75444    1989.7064   -64341.217    1.8918427   0.24815549 
    3300   -905.24804    53.559956   -851.68808    1918.3234   -65657.377    1.8918427  0.042714902 
    3400   -902.47718    50.134998   -852.34218    1795.6538   -64432.191    1.8918427   0.16346806 
    3500   -901.56964     49.30128   -852.26836    1765.7931   -64924.332    1.8918427   0.22409274 
    3600   -906.28873     49.26753    -857.0212    1764.5843   -68771.944    1.8918427  0.089938904 
    3700   -906.89897    54.068745   -852.83022    1936.5464   -69832.863    1.8918427   0.13543884 
    3800   -903.19376    52.570675   -850.62309    1882.8909   -67151.665    1.8918427   0.50301161 
    3900   -903.70734    49.052766   -854.65458    1756.8922   -66268.546    1.8918427 0.0047965926 
    4000   -908.07572    44.945732   -863.12999    1609.7931     -72327.7    1.8918427  0.081674306 
    4100   -904.57075    50.722184   -853.84856    1816.6847   -66273.675    1.8918427  0.044066756 
    4200   -901.99945    51.853073   -850.14637     1857.189   -65539.108    1.8918427  0.041970247 
    4300   -907.54035     50.19026   -857.35009    1797.6331   -67782.153    1.8918427    0.2316365 
    4400   -905.38258     49.73953   -855.64305    1781.4896   -69373.707    1.8918427   0.50824949 
    4500   -902.10574    50.516832   -851.58891    1809.3297   -63580.084    1.8918427   0.61490947 
    4600   -899.53745    47.127636   -852.40981     1687.941   -63400.489    1.8918427   0.64604199 
    4700    -900.3511    52.457101     -847.894    1878.8231   -62524.703    1.8918427   0.30265021 
    4800   -907.34288    51.448926   -855.89396     1842.714   -68273.455    1.8918427   0.27965746 
    4900   -900.96053    49.380032    -851.5805    1768.6137   -64502.928    1.8918427   0.32577065 
    5000   -902.66806    53.593206   -849.07486    1919.5143   -69147.038    1.8918427   0.13745485 
    5100   -899.79139    44.081933   -855.70946     1578.855   -65298.989    1.8918427  0.077618665 
    5200   -893.92784    48.010079   -845.91776    1719.5469   -58234.491    1.8918427   0.15885433 
    5300   -893.39082    52.815085   -840.57573    1891.6448    -57346.57    1.8918427   0.38849797 
    5400   -906.04181    54.972089   -851.06972    1968.9009   -67893.596    1.8918427  0.022279223 
    5500   -906.43887    51.673335   -854.76553    1850.7515   -67571.655    1.8918427   0.44542741 
    5600   -901.32071    54.876373   -846.44434    1965.4727    -62991.33    1.8918427    0.1208258 
    5700   -901.22991    48.385448   -852.84446    1732.9913   -65309.284    1.8918427  0.099014548 
    5800   -903.30133    50.183528    -853.1178     1797.392   -65636.502    1.8918427   0.23061296 
    5900   -901.66334    50.210664   -851.45267    1798.3639   -65848.243    1.8918427   0.29220467 
    5995   -903.66831    51.155704   -852.51261    1832.2118   -68325.886    1.8918427  0.022658678 
Loop time of 3.27832 on 1 procs for 5995 steps with 217 atoms

Performance: 131.778 ns/day, 0.182 hours/ns, 1828.679 timesteps/s
100.0% CPU use with 1 MPI tasks x no OpenMP threads

MPI task timing breakdown:
Section |  min time  |  avg time  |  max time  |%varavg| %total
---------------------------------------------------------------
Pair    | 3.1977     | 3.1977     | 3.1977     |   0.0 | 97.54
Neigh   | 0.019349   | 0.019349   | 0.019349   |   0.0 |  0.59
Comm    | 0.025913   | 0.025913   | 0.025913   |   0.0 |  0.79
Output  | 0.0019913  | 0.0019913  | 0.0019913  |   0.0 |  0.06
Modify  | 0.025464   | 0.025464   | 0.025464   |   0.0 |  0.78
Other   |            | 0.007887   |            |       |  0.24

Nlocal:    217 ave 217 max 217 min
Histogram: 1 0 0 0 0 0 0 0 0 0
Nghost:    920 ave 920 max 920 min
Histogram: 1 0 0 0 0 0 0 0 0 0
Neighs:    3609 ave 3609 max 3609 min
Histogram: 1 0 0 0 0 0 0 0 0 0
FullNghs:  7218 ave 7218 max 7218 min
Histogram: 1 0 0 0 0 0 0 0 0 0

Total # of neighbors = 7218
Ave neighs/atom = 33.2627
Neighbor list builds = 35
Dangerous builds = 0
Total wall time: 0:00:03
