LAMMPS (3 Mar 2020)

# ---------- 1. Initialize simulation ----------
units metal
atom_style atomic
dimension 3
boundary p p p
read_data /home/modeler/RemLabs/Project/arrhenius_3/T1425.0/n3_T1425.0_timestep3.000000e-03_eqsteps3200_time600_rseed3327/20201205-085317/lammps.data
  orthogonal box = (0 0 0) to (17.469 17.469 17.469)
  1 by 1 by 1 MPI processor grid
  reading atoms ...
  217 atoms
  read_data CPU = 0.00101752 secs

pair_style meam/c
pair_coeff * * library.meam Li Si LiSi.meam Li Si
Reading potential file library.meam with DATE: 2012-06-29
Reading potential file LiSi.meam with DATE: 2020-11-07

group Li type 1
1 atoms in group Li
group Si type 2
216 atoms in group Si

velocity all create 1425.0 3327 dist gaussian

# ---------- 2. Specify equilibration ensemble  ----------
fix 1 all npt temp 1425.0 1425.0 0.15 tchain 2 iso 1.0 1.0 1.0 pchain 2
# fix 1 all nvt temp 1425.0 1425.0 0.15

# ---------- 3. Run equilibration -------------
timestep 0.003
run 3200
Neighbor list info ...
  update every 1 steps, delay 10 steps, check yes
  max neighbors/atom: 2000, page size: 100000
  master list distance cutoff = 6
  ghost atom cutoff = 6
  binsize = 3, bins = 6 6 6
  2 neighbor lists, perpetual/occasional/extra = 2 0 0
  (1) pair meam/c, perpetual
      attributes: full, newton on
      pair build: full/bin/atomonly
      stencil: full/bin/3d
      bin: standard
  (2) pair meam/c, perpetual, half/full from (1)
      attributes: half, newton on
      pair build: halffull/newton
      stencil: none
      bin: none
Per MPI rank memory allocation (min/avg/max) = 8.895 | 8.895 | 8.895 Mbytes
Step Temp E_pair E_mol TotEng Press Volume 
       0         1425   -951.04357            0   -911.25729   -116259.55    5330.9442 
    3200    1376.3418   -955.45318            0   -917.02545    7446.9064    4548.3314 
Loop time of 2.32265 on 1 procs for 3200 steps with 217 atoms

Performance: 357.109 ns/day, 0.067 hours/ns, 1377.737 timesteps/s
100.0% CPU use with 1 MPI tasks x no OpenMP threads

MPI task timing breakdown:
Section |  min time  |  avg time  |  max time  |%varavg| %total
---------------------------------------------------------------
Pair    | 2.2577     | 2.2577     | 2.2577     |   0.0 | 97.20
Neigh   | 0.015641   | 0.015641   | 0.015641   |   0.0 |  0.67
Comm    | 0.014138   | 0.014138   | 0.014138   |   0.0 |  0.61
Output  | 2.4322e-05 | 2.4322e-05 | 2.4322e-05 |   0.0 |  0.00
Modify  | 0.030125   | 0.030125   | 0.030125   |   0.0 |  1.30
Other   |            | 0.005046   |            |       |  0.22

Nlocal:    217 ave 217 max 217 min
Histogram: 1 0 0 0 0 0 0 0 0 0
Nghost:    957 ave 957 max 957 min
Histogram: 1 0 0 0 0 0 0 0 0 0
Neighs:    4171 ave 4171 max 4171 min
Histogram: 1 0 0 0 0 0 0 0 0 0
FullNghs:  8342 ave 8342 max 8342 min
Histogram: 1 0 0 0 0 0 0 0 0 0

Total # of neighbors = 8342
Ave neighs/atom = 38.4424
Neighbor list builds = 26
Dangerous builds = 0

# ---------- 4. Describe computed properties----------
compute msdli Li msd
compute msdsi Si msd
thermo_style custom step pe ke etotal temp press density c_msdli[4] c_msdsi[4]
thermo 100

# ---------- 3. Run production -------------
timestep 0.003
run 200000
Per MPI rank memory allocation (min/avg/max) = 9.665 | 9.665 | 9.665 Mbytes
Step PotEng KinEng TotEng Temp Press Density c_msdli[4] c_msdsi[4] 
    3200   -955.45318    38.427727   -917.02545    1376.3418    7446.9064    2.2173644            0 8.8500047e-32 
    3300   -957.77166    38.957184   -918.81447    1395.3051   -7265.1224    2.1874414   0.19916576  0.086086784 
    3400   -952.04309    39.229274   -912.81382    1405.0503   -8333.9113    2.1690571   0.11511991   0.10177382 
    3500   -955.67472    41.771598   -913.90312    1496.1072     525.0142    2.1975062   0.25856787  0.085300414 
    3600   -956.46411    37.393988   -919.07012     1339.317    12555.114    2.2330168   0.14312669   0.10475345 
    3700   -956.59515    44.429349    -912.1658    1591.2981    1086.7705    2.2043029   0.21352423  0.095763843 
    3800   -951.36781    38.961657   -912.40616    1395.4653   -5232.0603    2.1765156  0.070383012    0.1216548 
    3900   -956.35565    41.257871   -915.09778    1477.7073   -8463.0892    2.1775982   0.15309412   0.10783102 
    4000   -955.00591     39.11595   -915.88996    1400.9915    3738.8715    2.2049902  0.075369799  0.095683602 
    4100   -952.54206    45.187622   -907.35444    1618.4567    5101.9641    2.1994167   0.33724784  0.083433397 
    4200    -950.7278    38.374113   -912.35369    1374.4216    3102.3549    2.1950808  0.032667384  0.095625801 
    4300    -951.2405    35.612659   -915.62784    1275.5163   -4139.4368     2.182439   0.15732722  0.087548183 
    4400   -950.73842    40.152619    -910.5858    1438.1212   -2681.7393    2.1806082   0.13917706  0.081149861 
    4500   -951.38691    42.449233   -908.93768    1520.3776    3855.2437    2.1973307  0.037219421  0.097770083 
    4600   -955.47837    40.905613   -914.57275    1465.0907    4482.6115    2.2077469   0.10945734  0.087737177 
    4700   -953.44349    39.761214   -913.68227    1424.1025   -109.16992    2.1929766  0.091854003  0.098378516 
    4800   -949.57402    42.726891   -906.84713    1530.3223   -5631.7684    2.1685935   0.25167135    0.1376512 
    4900    -954.3939    38.948969   -915.44493    1395.0108    359.20729    2.1981982  0.037429912   0.11500251 
    5000   -953.75859     39.08529    -914.6733    1399.8933    3174.1399    2.2045726   0.14416374  0.096153914 
    5100   -955.86428    44.487946   -911.37633    1593.3969   -1663.0937     2.193264     0.421023  0.082884864 
    5200   -948.91255    40.762522   -908.15003    1459.9657   -3321.7379    2.1745171    0.2156723   0.10115192 
    5300   -956.50661    39.283149   -917.22346      1406.98    796.55684    2.2032051   0.19627478  0.089709937 
    5400   -954.20111    39.896569   -914.30454    1428.9504    3847.1599    2.2051548  0.094722111  0.082038054 
    5500   -953.99686    42.117566    -911.8793    1508.4985   -2109.1618    2.1904797   0.09787003  0.089425075 
    5600   -952.80725    38.527483   -914.27977    1379.9147   -3512.0917    2.1815394   0.14506929  0.083985455 
    5700   -956.85367     38.22451   -918.62916    1369.0633    -1790.907    2.1988187   0.10148407   0.10530837 
    5800   -953.15034    39.744901   -913.40544    1423.5182    4722.6454    2.2079332  0.097841208   0.11204723 
    5900   -954.39337    42.034086   -912.35928    1505.5085    3751.5675    2.2036763   0.16646971    0.1106082 
    6000   -957.41654    37.360531   -920.05601    1338.1187   -4204.1726     2.195922   0.18091217   0.10433639 
    6100   -956.47232    40.592722    -915.8796    1453.8841   -9057.5842    2.1792015   0.32197671   0.10594935 
    6200   -951.89873    39.386959   -912.51177     1410.698    1099.6481    2.1941463   0.12820018   0.10964918 
    6300   -957.03528    41.753268   -915.28201    1495.4507    5992.7466    2.2166271   0.24380905  0.096949396 
    6400   -958.19215    37.587237   -920.60491    1346.2385      3398.32    2.2147601   0.28952521  0.090757162 
    6500   -951.68669     39.56989    -912.1168      1417.25   -8136.3889     2.170036   0.17283889  0.086509399 
    6600   -953.20043    39.639707   -913.56072    1419.7505   -6584.7624    2.1769965   0.16937245  0.088817076 
    6700   -953.94806     37.13521   -916.81285    1330.0486    5167.1977    2.2100729   0.14052135  0.097610689 
    6800   -958.44985    38.920193   -919.52966    1393.9802    9034.8966    2.2261238   0.15587896  0.091901659 
    6900   -952.37946    41.627443   -910.75201     1490.944   -4738.7901    2.1794627   0.10307044   0.11364291 
    7000   -952.90487    39.715146   -913.18972    1422.4525     -9532.18    2.1675289   0.34603781   0.10878077 
    7100   -953.82929    38.882931   -914.94636    1392.6456    146.99514    2.1950954   0.27445349   0.11837093 
    7200   -956.05462    36.901678   -919.15294    1321.6843    11254.915     2.227058  0.013802659   0.10938857 
    7300   -961.62276     39.06355   -922.55921    1399.1147     4017.243    2.2220255  0.035664591  0.083946381 
    7400   -952.25302    37.965663   -914.28736    1359.7924   -6201.6478    2.1759878   0.23999937   0.10721761 
    7500   -955.15822    41.070038   -914.08818    1470.9798   -9752.8359    2.1732826  0.084502575  0.096341919 
    7600    -952.7275    39.721154   -913.00635    1422.6677    2017.8838    2.1970042  0.065524533  0.096374517 
    7700   -953.50565    34.755594   -918.75006    1244.8193    8466.8933    2.2155785  0.053912448  0.088769192 
    7800   -957.93503    38.935879   -918.99915     1394.542    543.07607    2.2058101 0.0014908945  0.083993259 
    7900   -953.06274    39.038632   -914.02411    1398.2222   -1502.4582    2.1895639  0.093516665  0.095858969 
    8000   -953.33374    40.432032   -912.90171    1448.1288   -2659.6729    2.1859343   0.33665134  0.099504666 
    8100   -960.08025    41.089361   -918.99089    1471.6719   -2188.8112    2.2013606    0.1077327   0.10911266 
    8200   -956.69483    38.775196   -917.91964    1388.7869   -301.51047    2.2047164   0.11472162   0.10681958 
    8300   -952.86163    39.967256   -912.89437    1431.4822    3410.3407    2.1983679   0.23784206   0.10707004 
    8400   -954.86768    40.700925   -914.16675    1457.7595   -3475.1274    2.1897639   0.50123144   0.10206124 
    8500   -956.35766    35.166814   -921.19084    1259.5478   -429.19113    2.2010805   0.30554985  0.092547247 
    8600   -954.86337    40.368654   -914.49471    1445.8588   -1892.7019    2.1906222   0.05244664  0.093309561 
    8700   -951.86151    38.864076   -912.99743    1391.9703    5007.2879    2.2037477    0.1498947  0.090430343 
    8800   -951.24256     36.18483   -915.05773    1296.0094    6795.9389    2.2074348  0.083697615  0.094656118 
    8900   -957.91165    35.900664   -922.01099    1285.8316   -4278.7302    2.1963915   0.23086497  0.090332844 
    9000      -953.33    37.887461   -915.44254    1356.9914   -8977.9659    2.1740898   0.11322181   0.10368443 
    9100   -952.23241     38.66608   -913.56633    1384.8788    4070.4462    2.2006562   0.21558399  0.099897375 
    9200   -954.90392    41.849095   -913.05482    1498.8828    8526.3242    2.2177898   0.14243906  0.094705684 
    9300   -956.88882    39.011166   -917.87765    1397.2385    26.579176    2.2014204   0.13169034  0.095193793 
    9400   -956.08238    35.847414   -920.23497    1283.9244   -8655.3233    2.1816629   0.15774598   0.10136636 
    9500   -953.31587    38.784152   -914.53172    1389.1077   -3111.1656    2.1841332  0.063264055   0.10250512 
    9600   -954.47555    41.548773   -912.92678    1488.1264    2214.6469    2.2066907  0.069611207  0.098113639 
    9700   -956.13507    39.504448   -916.63062    1414.9061    5413.8611    2.2125926  0.036024845   0.10229898 
    9800   -957.92042    37.357551   -920.56287     1338.012   -2892.0381    2.2000128    0.1411435   0.09226846 
    9900   -954.84038    41.049273   -913.79111    1470.2361   -7067.8937    2.1752804   0.11275055   0.09724871 
   10000   -953.16716    39.921892   -913.24527    1429.8574   -2591.1856    2.1861483  0.018728149   0.10119181 
   10100   -957.07513    39.040091   -918.03504    1398.2745    4461.9265    2.2147097   0.14306307  0.086588438 
   10200    -955.9855    37.083331   -918.90217    1328.1904    9605.6749    2.2236922   0.25707187   0.10428043 
   10300   -951.25634    38.250677   -913.00566    1370.0005   -1222.6743    2.1878626   0.26419627    0.1050194 
   10400   -951.48369    37.650359   -913.83333    1348.4993   -12668.711    2.1597568   0.26125667   0.10515293 
   10500   -954.69979    37.140217   -917.55957    1330.2279   -5744.6991    2.1857182   0.12355699  0.098447572 
   10600   -959.39957    39.688284   -919.71129    1421.4904     15318.37    2.2454654   0.17352448  0.094003884 
   10700   -952.53849    40.174667   -912.36382    1438.9109    11974.638    2.2210394   0.16258246   0.10666464 
   10800   -952.26728    38.430853   -913.83642    1376.4538   -5537.5547    2.1786476  0.093741761   0.10867598 
   10900   -954.84726    39.830269   -915.01699    1426.5758    -9145.931    2.1750125    0.2607163  0.093931416 
   11000   -959.31191    36.205598   -923.10631    1296.7532    2298.1607    2.2118761   0.10258957  0.086214843 
   11100   -955.76899    40.105692    -915.6633    1436.4404    4127.3536     2.209031  0.048416326  0.092965504 
   11200   -953.76461     40.23443   -913.53018    1441.0514    2660.7811    2.1999379   0.16572908  0.088025248 
   11300   -955.71204    42.340929   -913.37111    1516.4985   -4140.7286    2.1852729  0.048119511   0.10025641 
   11400   -956.15905    34.631586   -921.52746    1240.3778   -2554.7215    2.1958109   0.18976687  0.097502291 
   11500   -955.34792    38.432898   -916.91502     1376.527   -1051.4241    2.1959434   0.14098583  0.093722768 
   11600   -951.54625    38.537772   -913.00848    1380.2832    5468.9842    2.2034685  0.083139092   0.10395561 
   11700   -954.58755    40.987933   -913.59961    1468.0391    3323.8734    2.2025428   0.15626568  0.099210454 
   11800   -958.32419    36.835922   -921.48827    1319.3291   -1160.7068    2.1997202  0.012699535  0.093411999 
   11900   -952.74261    37.747806    -914.9948    1351.9895   -8381.0036    2.1740331   0.17992715   0.10897047 
   12000   -954.55099    41.520191   -913.03079    1487.1027   -588.30202    2.1934679  0.053440545  0.095240602 
   12100   -952.78286    37.765619   -915.01724    1352.6275    12260.199    2.2256697   0.12816351   0.10151339 
   12200   -956.85752    35.531187   -921.32633    1272.5983    8392.1718    2.2245821  0.011719456  0.091756431 
   12300   -948.58344    36.168779   -912.41466    1295.4345   -9496.0214    2.1607935   0.18953984    0.1148021 
   12400   -951.32198    37.824353   -913.49763    1354.7312   -9049.0035    2.1670186   0.23445076   0.10186009 
   12500   -952.83912    38.100994   -914.73813    1364.6394    5729.7346    2.2102163   0.30262749   0.10052655 
   12600   -961.16916    39.482569    -921.6866    1414.1224    7351.6484    2.2294296   0.15221877  0.087396601 
   12700   -952.75016    36.002237   -916.74792    1289.4696    1070.6697    2.1981088 0.0031544618   0.10573226 
   12800   -952.52616    38.232167     -914.294    1369.3376   -3322.0263     2.184002   0.09228332   0.10745141 
   12900     -954.227    40.649407    -913.5776    1455.9143   -777.36016    2.1897344   0.15503318   0.10726213 
   13000   -954.80967     40.92622   -913.88345    1465.8288     1755.141    2.1995771   0.09953997   0.10938758 
   13100   -958.46941    35.899428   -922.56998    1285.7873    3964.4914    2.2164965   0.07925149  0.094815665 
   13200   -955.97399     39.12025   -916.85374    1401.1455   -4932.6692    2.1879008   0.19229605  0.095150429 
   13300   -951.28963    37.476727    -913.8129    1342.2805   -3987.3213    2.1832135  0.025840124   0.10976751 
   13400   -953.49874     41.51889   -911.97985    1487.0561    1034.0668    2.1984221   0.17364093   0.10255219 
   13500   -958.20882     38.24835   -919.96047    1369.9172    5740.6845    2.2209224  0.044949179  0.090812547 
   13600   -956.13698    39.863834   -916.27314     1427.778   -2057.1318     2.195118   0.22281536   0.10215575 
   13700   -952.79567    39.860392   -912.93528    1427.6547   -7446.1999      2.17424   0.14396551   0.10929742 
   13800   -950.45328     36.49837   -913.95491    1307.2393   -1475.2392    2.1851174   0.14528465   0.11019259 
   13900   -956.77184    36.705874   -920.06597    1314.6713    13813.982    2.2387758   0.18010449   0.10556528 
   14000   -953.61316    41.624087   -911.98908    1490.8238    9926.5604     2.220423  0.098587401   0.11129523 
   14100     -951.961    38.887737   -913.07326    1392.8177   -7878.8865    2.1717309  0.071152577   0.11629122 
   14200   -955.26465    39.174446   -916.09021    1403.0866   -15896.833    2.1594217   0.15101313   0.11738175 
   14300   -958.25543    40.396679   -917.85875    1446.8625    371.65211    2.2032791   0.09697214  0.099826475 
   14400   -952.44252    42.715435   -909.72708     1529.912    8308.8143    2.2070559   0.25339017  0.095576614 
   14500   -953.49898    40.391016   -913.10796    1446.6597    1468.6934    2.1961227   0.13043478  0.092364173 
   14600    -954.2216    38.025665   -916.19593    1361.9414   -3342.4693    2.1857948  0.020647028   0.09021676 
   14700    -950.0561    39.217968   -910.83814    1404.6454   -83.105177    2.1852005  0.039673372   0.10528806 
   14800   -950.70024    40.915131   -909.78511    1465.4316    2925.5189    2.1936928   0.16626307   0.10676251 
   14900   -953.35022    38.624153   -914.72606    1383.3771     2587.835      2.20067   0.22741721   0.10221182 
   15000   -955.59941     40.85893   -914.74048    1463.4187   -992.58489    2.1949653   0.17747687   0.10653457 
   15100   -950.38209    43.777882   -906.60421     1567.965   -4968.5565    2.1728409  0.066714711   0.11924451 
   15200   -952.69507    38.283506   -914.41157    1371.1763    1698.5057    2.1992803  0.063577681   0.12581313 
   15300   -953.54109    39.017979   -914.52311    1397.4825    5622.8058    2.2097657   0.08740316   0.11449884 
   15400    -954.6468    45.315981   -909.33082    1623.0541    254.06593    2.1918922   0.18103456   0.10817248 
   15500   -949.42888    38.410992   -911.01789    1375.7424   -4439.0167    2.1731405   0.19399853   0.10879629 
   15600   -954.81549    38.729623   -916.08586    1387.1546   -6851.8063    2.1815896   0.02655097  0.095775802 
   15700   -951.29095    39.141176   -912.14978     1401.895    9218.0719    2.2150073  0.036651208  0.091813042 
   15800   -952.63616    41.712418   -910.92374    1493.9875    12724.942     2.222724  0.083601548  0.092742189 
   15900   -956.98337    37.818485   -919.16488     1354.521   -164.89713    2.2011382   0.24845329  0.095836693 
   16000   -953.60776    38.762129   -914.84563    1388.3189   -13419.536    2.1661129   0.10748989   0.10629999 
   16100   -952.94517    40.662478   -912.28269    1456.3825   -5442.8963    2.1785084   0.25474478   0.10930623 
   16200   -956.70305    39.112307   -917.59074     1400.861    5949.1399    2.2186231   0.20955654   0.11148484 
   16300   -956.61326    38.708672   -917.90458    1386.4043    5878.2666    2.2212963   0.18432005   0.10820198 
   16400   -949.47172    37.174321    -912.2974    1331.4493    654.97284    2.1918395   0.11263762   0.12429532 
   16500   -954.34705    39.645252    -914.7018    1419.9492   -6971.0094    2.1794546   0.14467865   0.11463312 
   16600    -959.3583    38.997533   -920.36077    1396.7502   -3272.1448    2.2003469  0.081180113  0.098343426 
   16700    -954.1367    41.704841   -912.43186    1493.7162    2809.9904    2.2029881   0.29323344   0.10391666 
   16800   -956.66271    44.011481   -912.65123    1576.3316    2125.5767    2.2068501    0.1902897  0.091561031 
   16900   -957.78759    41.715777   -916.07181    1494.1078    -2781.753    2.1959775  0.068829562  0.089575904 
   17000   -954.35444    37.109507   -917.24494     1329.128   -2922.8471    2.1898443   0.16324525   0.10031504 
   17100   -949.89299     40.75586   -909.13713    1459.7271   -3899.9098    2.1763941  0.022381567    0.1125106 
   17200   -955.50941    42.504159   -913.00526    1522.3448    1562.9871    2.2020448   0.12472516    0.1007597 
   17300   -953.18403    38.210073   -914.97396    1368.5463    7430.3507    2.2127389   0.13916348   0.10806095 
   17400   -951.24607    41.617242   -909.62883    1490.5787    2055.0727    2.1924188   0.24080611     0.110052 
   17500   -950.01817    40.288054   -909.73012     1442.972   -5687.9942    2.1738052  0.048456842   0.12542911 
   17600   -955.94648    40.690376   -915.25611    1457.3817    -7166.175    2.1795313  0.087503957   0.10918317 
   17700   -954.91456    41.842083   -913.07248    1498.6317    5120.9196    2.2080391  0.071784183  0.094724386 
   17800   -953.89844    48.638066   -905.26037    1742.0391    10968.704    2.2174204   0.13295781  0.097732883 
   17900   -955.64959    42.530422   -913.11917    1523.2855   -212.44024    2.1959161   0.13242723  0.097875166 
   18000   -951.83867    36.849799   -914.98887    1319.8262   -14689.344    2.1563527   0.10590879   0.10119637 
   18100   -953.88644    42.978446   -910.90799    1539.3321   -8372.3944    2.1718087   0.14532327   0.10296804 
   18200   -951.65408    45.798854   -905.85523    1640.3489    7355.7899     2.206342   0.17512419    0.1074745 
   18300   -957.14708    42.572939   -914.57414    1524.8083    11069.368    2.2277175   0.16177126  0.098653022 
   18400   -957.36772    43.366928    -914.0008    1553.2461   -2410.7855    2.1916258  0.032908857  0.098172603 
   18500   -953.75115    42.113392   -911.63775     1508.349   -10459.618    2.1681987  0.084962962   0.10590737 
   18600   -951.25258      36.7698   -914.48278    1316.9609   -2438.0272    2.1874427  0.087468047   0.10880814 
   18700   -954.34033    36.145825   -918.19451    1294.6124     7625.347    2.2200629  0.063053695   0.10653057 
   18800   -955.27251     41.54602   -913.72649    1488.0278    5562.0413    2.2137509  0.064146204   0.10241086 
   18900   -954.50522    41.920179   -912.58504    1501.4288    -4132.286    2.1856696   0.12443066  0.085522217 
   19000   -956.22956    37.946963   -918.28259    1359.1226   -8376.2491    2.1790673  0.020163528  0.084434332 
   19100   -953.07683     35.40036   -917.67647    1267.9125    15.202774     2.196562   0.13255746  0.099274638 
   19200   -953.50711    41.206228   -912.30088    1475.8576     6103.726    2.2111165   0.11253275  0.096547639 
   19300   -953.28665    38.996612   -914.29004    1396.7172    5903.7917    2.2080253  0.065665513   0.09978388 
   19400   -956.64582    35.742929   -920.90289    1280.1821   -3224.1497    2.1967545   0.06018592  0.093901335 
   19500   -952.06855     39.23731   -912.83124    1405.3381   -7892.9074    2.1721635   0.18969151   0.10742136 
   19600   -953.74761    40.862657   -912.88496    1463.5522    650.45051     2.195584  0.061536328   0.10506806 
   19700   -955.54285    39.114923   -916.42793    1400.9547    6457.0753    2.2153236   0.17776727   0.10950695 
   19800   -956.51644    36.263105   -920.25333    1298.8129    1372.8583    2.2082055   0.11303071  0.096651576 
   19900   -949.67893    38.639994   -911.03894    1383.9445   -5025.8681    2.1744854  0.071190945   0.10250407 
   20000   -951.39854    38.458182   -912.94036    1377.4326    400.88594    2.1895345   0.10425063   0.10447267 
   20100   -954.29335    39.647466   -914.64588    1420.0284     3746.811    2.2073663   0.24484876  0.085456356 
   20200   -955.07669    37.013685     -918.063     1325.696    2279.5618    2.2091129  0.065593644  0.099294946 
   20300   -960.13156    36.426524   -923.70503     1304.666   -795.39932    2.2079622   0.18327706  0.086691601 
   20400   -953.28402    37.256773   -916.02725    1334.4025   -3619.9627     2.186778   0.16857176  0.099419112 
   20500   -951.80781    37.745506    -914.0623    1351.9072   -511.15935    2.1927424   0.24959483    0.1086253 
   20600   -952.27182    40.522839   -911.74898    1451.3811    5356.4198    2.2030937  0.092539063   0.10666243 
   20700   -952.71188    40.067452   -912.64442    1435.0708    2780.8883    2.2016354    0.1602356   0.10152867 
   20800   -955.57188    36.589426   -918.98245    1310.5006   -437.63329    2.2022607   0.14251894  0.098481903 
   20900   -955.08505    40.012259   -915.07279     1433.094   -2206.1793    2.1922987  0.061208221   0.10022614 
   21000    -952.0176    39.549679   -912.46793    1416.5261   -504.02072    2.1896455  0.054618434   0.10403745 
   21100   -953.76612    38.057538   -915.70858     1363.083    3411.6714    2.2030083   0.17083773   0.10310098 
   21200   -954.62393    35.548362   -919.07557    1273.2134    5647.7747     2.214172   0.10522928  0.095603448 
   21300   -953.82649    40.911903   -912.91459     1465.316    708.45712     2.195583   0.34225626  0.091841864 
   21400   -953.63566    40.241464   -913.39419    1441.3033   -5655.0046    2.1805461   0.23343601  0.095417583 
   21500    -957.7703    37.231384   -920.53892    1333.4931   -3758.8612    2.1970523   0.19382073  0.094789289 
   21600   -952.80171    37.714148   -915.08756     1350.784    3089.5337    2.2039472   0.19541702   0.11513149 
   21700   -952.06186    39.873228   -912.18863    1428.1144    7202.7815    2.2126141    0.1134903  0.098932316 
   21800    -955.4695    39.196649   -916.27285    1403.8818   -1459.5345    2.1993296  0.011325782   0.10716292 
   21900   -957.56473    36.799835    -920.7649    1318.0366   -7571.7544    2.1861366   0.11633059    0.1019509 
   22000   -954.89723    42.603111   -912.29412    1525.8889   -9387.4507    2.1747424    0.1128556   0.10448136 
   22100   -950.18942    37.049336   -913.14008    1326.9728    8271.5604    2.2113099    0.1731236   0.11168861 
   22200   -952.98579    37.875858   -915.10993    1356.5759    12390.333    2.2241685  0.080841273  0.089038268 
   22300   -952.44062    42.553359   -909.88726     1524.107    263.51234    2.1910948   0.29463066  0.099996982 
   22400   -951.00479    41.628033   -909.37676    1490.9652   -8426.5354    2.1670845   0.30487666   0.10415283 
   22500    -953.4529    38.803697   -914.64921    1389.8077   -5478.2526    2.1846191  0.090997872   0.11668224 
   22600   -955.22127    41.138601   -914.08267    1473.4355    3997.2115    2.2090732  0.067467612  0.098568507 
   22700   -948.89771    42.994883   -905.90283    1539.9208    6371.8279    2.2005921   0.11013889   0.11160883 
   22800   -953.47451    40.256135   -913.21837    1441.8288    417.58109    2.1971777   0.12528946   0.11697727 
   22900   -952.06711    36.931328   -915.13578    1322.7462   -2071.2027    2.1895331  0.058907347   0.10808852 
   23000   -949.06937    38.696031   -910.37334    1385.9515   -1160.1737    2.1870236   0.13050373   0.12732302 
   23100   -948.50266    40.085667     -908.417    1435.7232     2701.149    2.1905955  0.073453288   0.11690934 
   23200   -954.80488    39.597286   -915.20759    1418.2312    3503.9343    2.2065187  0.051536426   0.10201536 
   23300   -952.54173    39.166681   -913.37505    1402.8085    1968.0804     2.198692   0.26572663    0.1029868 
   23400   -949.52606    40.150891   -909.37517    1438.0593    265.51071    2.1840926   0.19071845   0.10667118 
   23500   -952.45458    38.233643   -914.22094    1369.3904   -2000.1588    2.1867649    0.1166598   0.10732533 
   23600   -953.01409    36.615901   -916.39818    1311.4488     795.2635    2.1958781   0.34922523  0.098860953 
   23700   -952.22492    38.763621    -913.4613    1388.3723    5096.6968    2.2057781   0.14600618   0.10202074 
   23800   -952.85775     41.10903   -911.74871    1472.3764    3315.5502    2.2008465  0.050196578   0.10059123 
   23900   -953.97559    36.356206   -917.61939    1302.1474   -2854.2133    2.1884431   0.15551384   0.10570084 
   24000   -957.49624    39.440117   -918.05612     1412.602   -10626.142    2.1797795  0.088170181   0.10422229 
   24100   -953.94683     40.28999   -913.65684    1443.0413    2738.8347     2.199492   0.22440742  0.096443897 
   24200    -950.3415     38.96405   -911.37745     1395.551    13514.022    2.2252985    0.1759248   0.11561987 
   24300   -954.80318    35.964108   -918.83907    1288.1039    5043.4135    2.2127883    0.3044232   0.10016415 
   24400   -953.50335    37.094901   -916.40845    1328.6048   -17309.392    2.1516953   0.15560554   0.10789088 
   24500   -954.76032     41.52277   -913.23755     1487.195   -12804.864    2.1659684  0.081873434  0.093503686 
   24600   -955.14644    42.292303   -912.85413    1514.7569    7742.2742    2.2190904  0.079961475   0.10306837 
   24700   -957.19195    37.556975   -919.63497    1345.1546    10356.547    2.2287121   0.10483099   0.09363982 
   24800   -952.98071    38.760744   -914.21996    1388.2693   -1055.1527    2.1946742  0.014464198   0.10211566 
   24900    -951.3195    38.588524   -912.73098     1382.101   -3979.9989    2.1816206  0.012433997   0.11389326 
   25000    -954.4701    39.268545   -915.20155    1406.4569    -3166.661    2.1917947   0.38859654  0.093363222 
   25100   -956.65705    38.066213   -918.59083    1363.3937    3530.0696    2.2109512  0.073861296  0.098088973 
   25200   -949.80765    40.215878   -909.59177    1440.3869     3501.786    2.1902389   0.13420739   0.10473066 
   25300   -953.39909    41.115446   -912.28364    1472.6062    58.666019    2.1907084   0.11778691    0.1066348 
   25400   -953.87533    38.701497   -915.17384    1386.1473   -1782.9002    2.1930304   0.12843527   0.10452158 
   25500   -953.42902    37.779184   -915.64984    1353.1134    416.82757    2.1954998   0.39240888  0.095981435 
   25600   -947.23855    39.765474   -907.47308    1424.2551   -837.25869    2.1786753    0.1253822   0.10284234 
   25700   -953.45167     40.33939   -913.11228    1444.8107    798.75913    2.1956434   0.06123756  0.093900542 
   25800   -952.78121    37.884176   -914.89704    1356.8738    5133.9617    2.2041611  0.090072539   0.10566598 
   25900    -949.9881    41.029543   -908.95856    1469.5294    807.40793    2.1902151   0.19724568   0.10667937 
   26000   -953.43064    43.208502   -910.22214    1547.5718   -4884.1045    2.1807669  0.098714266   0.10351902 
   26100    -953.9371    38.557138   -915.37996    1380.9769   -4861.5391    2.1817528   0.23803305   0.10766529 
   26200   -952.03782     39.54342    -912.4944    1416.3019    2566.3315    2.1966969   0.18578543   0.10771155 
   26300   -950.31647    44.173035   -906.14343    1582.1179    7019.3062    2.2026301   0.12006838   0.10902045 
   26400   -954.92618    40.147976    -914.7782    1437.9549    4103.6453    2.2089168  0.091954189  0.089337574 
   26500   -954.64778     40.05952   -914.58826    1434.7867   -9558.5981    2.1710736   0.29132507    0.1005501 
   26600   -949.79766    38.884067   -910.91359    1392.6863   -7006.5306    2.1647164  0.020689738  0.095897567 
   26700   -956.63194    38.206757   -918.42518    1368.4275     3561.648     2.209853  0.027660949  0.097459443 
   26800   -954.91475    37.932391   -916.98235    1358.6007    9008.7862    2.2205213   0.11688656  0.097625893 
   26900   -954.31696    41.456575   -912.86039    1484.8242   -301.14176    2.1936045  0.082017344   0.09008566 
   27000   -953.02455    39.720672   -913.30387    1422.6504   -6638.1988    2.1720346  0.033599081   0.10658097 
   27100    -957.0123    36.223191   -920.78911    1297.3833   -2325.2989    2.1946136   0.19204253   0.10397166 
   27200     -955.458    41.604936   -913.85307    1490.1379    1567.5418    2.1991512   0.23896011   0.11185181 
   27300   -954.49525    41.826052    -912.6692    1498.0575    3275.7968    2.2008646    0.2355415   0.11010825 
   27400   -957.59101    39.290936   -918.30008    1407.2589   -1872.7743     2.197246   0.20450081  0.091916607 
   27500   -955.16371    38.413067   -916.75065    1375.8168   -1855.6346    2.1896117   0.12772311   0.10258553 
   27600   -952.25198     40.27957   -911.97241    1442.6681   -1221.2872    2.1869101  0.022589455    0.1117779 
   27700    -954.5323    39.880769   -914.65153    1428.3845     1270.543    2.1963803   0.19903776  0.099629066 
   27800    -956.2713    38.526412   -917.74489    1379.8763    1375.0597    2.2027772  0.013468064  0.092407186 
   27900   -952.20857    43.113912   -909.09466     1544.184   -2155.5826    2.1833886   0.14964517   0.10290814 
   28000   -953.90486    41.932497   -911.97236      1501.87    -641.5456    2.1913573   0.11068971  0.098616635 
   28100   -954.57812    39.349611   -915.22851    1409.3604    1595.1593     2.198567  0.021495386  0.091135872 
   28200   -955.70817    40.930294   -914.77788    1465.9747   -205.07923    2.1964184  0.063025886  0.098506774 
   28300   -949.70984    42.029268   -907.68057     1505.336   -3836.4757    2.1750367   0.13865433   0.10129762 
   28400   -957.39418    43.083966   -914.31022    1543.1114   -4300.2973     2.188516  0.092280064    0.1050318 
   28500   -954.62036    39.835522   -914.78484    1426.7639    1698.1825    2.2019074   0.11779933  0.095561036 
   28600   -950.72238    43.480408   -907.24197    1557.3105    3564.6545    2.1895877  0.078224359   0.10816672 
   28700   -952.99066    40.239236   -912.75142    1441.2235     1283.548    2.1922101  0.080205506   0.10592491 
   28800   -953.93003    38.395103   -915.53493    1375.1734   -7126.0762    2.1758315  0.054035752  0.098677189 
   28900   -946.58121    35.285872   -911.29533     1263.812    276.33861    2.1796138   0.10200788   0.10974006 
   29000   -951.84682    44.358862   -907.48796    1588.7736    9196.9642    2.2083407   0.20893842  0.095311126 
   29100   -954.98318    38.838743   -916.14444    1391.0629    14523.381    2.2322895  0.020350532   0.09005876 
   29200   -953.27328    39.111819   -914.16146    1400.8435   -5987.4342    2.1764426   0.15304864  0.092013121 
   29300   -955.15425    42.636899   -912.51735    1527.0991   -15568.479    2.1526988   0.16566754  0.092165112 
   29400   -957.60559    37.724079   -919.88151    1351.1397   -2246.6407    2.1965704   0.26177466   0.10088022 
   29500   -952.98004    36.191525   -916.78851    1296.2492    10311.073     2.219066   0.15664441   0.10361311 
   29600   -951.90517    39.602425   -912.30274    1418.4152    5493.6526    2.2035089   0.10117851   0.10217532 
   29700   -954.28004    39.167774   -915.11226    1402.8476    -4009.554    2.1851579   0.10002741   0.10951376 
   29800   -955.46781    34.767506   -920.70031     1245.246   -3817.4677    2.1913639  0.081713137   0.10742885 
   29900   -950.80235    38.123847    -912.6785    1365.4579    432.28199    2.1912682  0.015105868   0.10484607 
   30000   -954.51845    41.332324   -913.18613    1480.3739    4220.7169    2.2055989   0.11229513  0.097652031 
   30100   -955.57631    37.875306     -917.701    1356.5561    3539.6509    2.2082037   0.10480939    0.1082432 
   30200   -955.60524    37.689146   -917.91609    1349.8885   -2382.0294    2.1943379   0.22493217  0.091968729 
   30300   -950.67699    39.147784    -911.5292    1402.1316   -5019.6763    2.1771682   0.41240091   0.11463354 
   30400    -953.3512    39.325521   -914.02567    1408.4975   -1305.9719    2.1918371  0.066896189   0.10075666 
   30500   -953.98054    38.421738   -915.55881    1376.1273    7762.4495    2.2144352  0.037809838   0.10038294 
   30600   -949.84688    43.147225   -906.69966    1545.3771     6169.893     2.202102   0.14581691   0.12215416 
   30700   -953.28592    42.052615   -911.23331    1506.1722   -3056.3343    2.1851767  0.015695825   0.10228042 
   30800   -955.23777    39.943587   -915.29418    1430.6344   -13991.381    2.1661394   0.12063369   0.12139836 
   30900   -954.01695    41.630715   -912.38624    1491.0612   -2339.6358    2.1888889   0.11210243   0.11370042 
   31000   -950.56007     45.26318   -905.29689    1621.1629    13731.984    2.2177788   0.26062171    0.1059807 
   31100   -953.72089    40.295128   -913.42577    1443.2253     9797.897    2.2175774   0.12897948   0.09755372 
   31200   -954.84678    39.976678   -914.87011    1431.8196     -9235.44    2.1754015   0.23813705   0.10135632 
   31300   -951.52594    42.115826   -909.41011    1508.4362   -9260.2025    2.1642456    0.1979513   0.10789039 
   31400   -953.11693    43.670921   -909.44601     1564.134   -307.99294    2.1907489  0.070248345  0.096924761 
   31500   -955.20313    40.161306   -915.04182    1438.4323    8054.8796    2.2170576  0.026443579  0.097672979 
   31600   -955.77228    42.538798   -913.23348    1523.5855    3541.5538    2.2037781   0.15719124  0.085529432 
   31700   -954.35732    43.098284   -911.25904    1543.6242   -5840.2564     2.178623   0.19403219   0.10898526 
   31800   -958.03648    38.146229   -919.89025    1366.2596   -4862.7033     2.194388  0.079676067   0.10248089 
   31900   -955.93838    39.290157   -916.64822    1407.2309   -1325.3566    2.1992077   0.21267198   0.12169361 
   32000   -953.91429     41.29787   -912.61642    1479.1399    2790.3289    2.2036363   0.15750132   0.11777439 
   32100   -953.57312    40.095527   -913.47759    1436.0764    1780.9089    2.2001373   0.17077561   0.10297744 
   32200   -957.65452    37.236376   -920.41814     1333.672   -715.02586    2.2032635   0.21025172   0.10222538 
   32300   -952.97128    39.388402   -913.58288    1410.7497   -2386.0763    2.1851424  0.078583576  0.089096863 
   32400   -951.88787    39.195625   -912.69225    1403.8451   -1153.3159    2.1899444   0.23163349   0.11153647 
   32500   -956.58625    37.701622   -918.88462    1350.3354    4354.0466    2.2154689  0.015483455  0.094694384 
   32600   -956.16789    39.669011   -916.49888    1420.8001    5041.1383    2.2114054   0.21595286   0.10259157 
   32700   -953.62633    41.197339   -912.42899    1475.5393   -5396.2541    2.1821394 0.0058771519    0.1149096 
   32800   -952.49789    37.299964   -915.19793    1335.9494   -6686.1794    2.1722225   0.11930566  0.099792291 
   32900   -955.11359    36.922403   -918.19118    1322.4266    2234.4318    2.2034431  0.035907404    0.1010944 
   33000   -950.66071    41.067324   -909.59339    1470.8826    7942.2992    2.2104398  0.032656731   0.10952289 
   33100   -950.74353    38.346308   -912.39723    1373.4257    5552.3135    2.2042941   0.10153935   0.12501287 
   33200   -954.40439    38.269502   -916.13489    1370.6748   -6521.9236    2.1828766   0.45242704   0.10962427 
   33300   -952.11977    41.042706   -911.07707    1470.0009   -6888.2878    2.1748937  0.024727382   0.11213142 
   33400   -952.36346    42.920163    -909.4433    1537.2446    1777.0598    2.1948423   0.11361617   0.11004611 
   33500   -956.72455    42.347179   -914.37737    1516.7224     7269.447    2.2147167   0.13598167  0.092821488 
   33600   -953.26585    38.982454   -914.28339    1396.2101    2527.0416    2.2008484  0.043807986   0.10948317 
   33700   -949.50817    42.828231   -906.67994    1533.9519   -7436.6185    2.1651077   0.14915116   0.10498144 
   33800   -956.81808    41.652704   -915.16538    1491.8488   -6575.5685    2.1875278   0.12977454  0.099998716 
   33900     -954.148    39.556747   -914.59125    1416.7792    4204.4012    2.2085834   0.12544057  0.093212348 
   34000   -953.27855    42.774567   -910.50398    1532.0299    7166.6579    2.2083819   0.35081741   0.10184872 
   34100   -948.64748    39.467188   -909.18029    1413.5716    -3528.434    2.1760062   0.12317827   0.12765076 
   34200   -955.41912    38.709223    -916.7099     1386.424   -11363.375    2.1698008  0.039736201   0.10732609 
   34300   -954.70093    40.560944   -914.13998    1452.7459    2703.7803    2.2023441   0.11353747   0.10730562 
   34400    -953.3883    43.360782   -910.02752     1553.026    15547.876    2.2333223  0.079287681   0.10928602 
   34500    -953.5092    37.547391   -915.96181    1344.8114    2734.8993    2.2065846  0.098277235    0.1171327 
   34600   -955.61559    38.179387   -917.43621    1367.4472   -11113.806     2.170613  0.074418415   0.10409825 
   34700   -951.90921    38.789413    -913.1198    1389.2961    -4858.897    2.1783267   0.15111905   0.10478358 
   34800   -954.19014    42.019801   -912.17034    1504.9969    3521.0086    2.2046388  0.089311277  0.096390504 
   34900   -958.82215    38.658612   -920.16354    1384.6113    7343.8357    2.2241925   0.10681665  0.089714252 
   35000   -952.79631    38.997067   -913.79925    1396.7335   -1527.7256    2.1889185   0.15764889   0.10585325 
   35100   -954.91157    41.968587   -912.94298    1503.1626   -7223.9216    2.1794846   0.14193117   0.10566773 
   35200    -956.1188    38.680284   -917.43851    1385.3875   -2579.9285    2.1956129  0.039283788   0.10310388 
   35300   -956.63843    38.758818   -917.87961    1388.2003    5313.3706    2.2149962   0.16794228   0.10075285 
   35400   -951.49683      40.1145   -911.38233    1436.7559     4708.608    2.2021806   0.12120133   0.11864441 
   35500    -954.2479    39.660497    -914.5874    1420.4952   -4729.7899    2.1849569   0.41721272   0.11475562 
   35600   -956.40566    38.815286   -917.59037    1390.2228   -7022.2639    2.1832469  0.050309041   0.10191624 
   35700   -953.39386    41.518854   -911.87501    1487.0548     1922.621    2.2010645   0.10005725   0.10749369 
   35800   -956.39228     45.85242   -910.53986    1642.2674    8847.9401    2.2194832   0.23003015  0.092411821 
   35900   -955.16708    41.235133   -913.93194    1476.8929   -822.62954    2.1955169  0.062023133  0.087499992 
   36000   -951.90413    35.487137   -916.41699    1271.0206   -11296.527    2.1687457   0.47588809   0.10546251 
   36100   -950.61234    39.082859   -911.52949    1399.8063   -2103.3758    2.1847671   0.20871405  0.099123253 
   36200   -950.54396    41.409711   -909.13425    1483.1457    7751.7055    2.2070743   0.29253098  0.089321953 
   36300   -953.09096    39.612306   -913.47865    1418.7691    3520.5342     2.201829   0.15213396  0.096723395 
   36400    -953.7398    38.012391   -915.72741     1361.466   -2101.5165    2.1897153  0.061352791  0.099826999 
   36500   -949.04623    40.870874   -908.17536    1463.8465   -2247.7466    2.1804176   0.15873953   0.11986385 
   36600   -949.67077    38.693549   -910.97722    1385.8626     3065.681    2.1948593   0.16173935   0.11175483 
   36700   -951.63005    36.857063   -914.77299    1320.0863    3984.9582    2.1997006   0.14821908    0.0930036 
   36800   -951.53012    38.721912    -912.8082    1386.8785   -49.668251    2.1922261    0.0341952   0.10249548 
   36900   -952.76149    46.115856   -906.64563    1651.7027   -5405.5658    2.1751222   0.24259315   0.10131133 
   37000   -953.85735    38.634055   -915.22329    1383.7318    1687.1898    2.2011955   0.12883833  0.094271221 
   37100   -951.76816    37.754505   -914.01366    1352.2294    5182.8596    2.2069425   0.10415112   0.10256843 
   37200   -948.10809    38.552515   -909.55557    1380.8113    2486.1813    2.1894314   0.33330595   0.10893792 
   37300   -950.90597    41.075497   -909.83047    1471.1753   -6174.8498    2.1719379   0.11577621   0.10950415 
   37400   -951.10353    35.190505   -915.91302    1260.3963   -377.63916    2.1900898   0.17214058   0.10405358 
   37500   -954.69074    41.602896   -913.08785    1490.0649    8700.8275      2.21767   0.32146771    0.1017502 
   37600   -953.38216    41.656555    -911.7256    1491.9867     9031.715    2.2147826  0.050260683   0.11464067 
   37700   -948.74562    43.097634   -905.64799     1543.601     -6172.78    2.1705948   0.13021211   0.11699581 
   37800   -947.39051    40.832449   -906.55806    1462.4702   -11106.337    2.1513938  0.029992319   0.12657284 
   37900   -952.50445    40.335611   -912.16884    1444.6753   -1675.1944    2.1876395   0.10261158   0.11094722 
   38000   -953.64969    39.882313   -913.76738    1428.4398      11036.7    2.2233393  0.098734512  0.098918077 
   38100   -955.99898    39.898538   -916.10044    1429.0209    5532.7237    2.2158578   0.13053522  0.097551551 
   38200   -950.58191    43.799825   -906.78209    1568.7509   -6968.4392    2.1673959   0.34556315   0.10386877 
   38300   -950.76372    38.371697   -912.39202     1374.335   -2117.4804    2.1821142   0.22994689   0.10390183 
   38400    -952.2933    37.270441   -915.02286     1334.892    2064.4584    2.2001672   0.11529503    0.1009623 
   38500   -954.58795    42.545033   -912.04291    1523.8088    3260.3122    2.2029913   0.24919506   0.09876129 
   38600   -951.32784    43.634096   -907.69374    1562.8151   -2988.8392    2.1822961   0.14662483   0.10030795 
   38700   -951.08819    35.944147   -915.14404     1287.389   -2594.5117    2.1898152  0.050353221   0.11023266 
   38800   -948.03326    34.280345   -913.75292    1227.7976    2582.9888     2.195275    0.1433683   0.10957201 
   38900   -946.52506    39.067444   -907.45761    1399.2542    4840.2472    2.1939792   0.14426975   0.12669099 
   39000   -952.68308    38.266619   -914.41646    1370.5715     4035.651    2.2033891   0.02055329   0.11282876 
   39100   -954.38684    39.194573   -915.19227    1403.8074    -5910.496    2.1836501   0.24240441   0.10459108 
   39200   -952.33509    40.255398   -912.07969    1441.8024   -3703.2319    2.1804884   0.15521849   0.11226587 
   39300   -951.85867    41.563304   -910.29537    1488.6468    3455.1647    2.1999795   0.30352069   0.11007903 
   39400   -957.10802    38.735509   -918.37251    1387.3655    11301.883    2.2338297   0.10395345   0.10463409 
   39500   -951.83938    37.644242   -914.19514    1348.2802    1691.4803    2.1976357   0.11104242   0.10706538 
   39600   -952.60621     39.76164   -912.84457    1424.1177   -14746.428    2.1560154   0.13083934   0.12037674 
   39700   -952.80511    37.084512    -915.7206    1328.2327   -8468.2757    2.1710762   0.19245259   0.10655998 
   39800   -957.17461    38.135808    -919.0388    1365.8864    11670.725    2.2298669  0.019217189  0.098869765 
   39900   -949.92969    38.171372   -911.75831    1367.1601      13677.7    2.2181557   0.10173872   0.10756189 
   40000   -952.92059    38.914516   -914.00607    1393.7768   -2368.5167    2.1878421   0.20364826   0.11119889 
   40100   -955.25384    35.982111   -919.27173    1288.7487   -7315.3022    2.1823304 0.0017668413   0.10749788 
   40200   -952.79858    37.566459   -915.23212    1345.4943    931.40189    2.1935516  0.021679695   0.10284888 
   40300   -952.37279    40.226983   -912.14581    1440.7846    6510.6497    2.2057168   0.14465253   0.11157584 
   40400   -954.33655    39.768976   -914.56758    1424.3805    4226.3441    2.2032346   0.18374012  0.099093012 
   40500   -953.97817    35.695492   -918.28268    1278.4831   -3388.4265    2.1853389 0.0036729251  0.094289376 
   40600   -959.51358    34.930878    -924.5827    1251.0974   -5240.8602    2.1946398   0.10618377  0.086616881 
   40700   -956.61762     40.50731   -916.11031    1450.8249   -1313.0769    2.1938732  0.067848981  0.087834129 
   40800   -955.23299    40.743117   -914.48988    1459.2707    4837.7126    2.2098617   0.22683341   0.09655798 
   40900   -951.04127    38.310248   -912.73103    1372.1342    5607.5841    2.1997197   0.23199012  0.092164022 
   41000    -951.9832    40.756438   -911.22676    1459.7478   -4277.2559    2.1758703   0.14748074  0.097284662 
   41100   -954.09074    33.978205   -920.11254    1216.9761   -2803.2276    2.1899513   0.31121766  0.095520262 
   41200   -954.20719     37.45031   -916.75688    1341.3343    871.40793    2.1969089   0.17679382  0.098484861 
   41300   -953.04442    40.169375   -912.87504    1438.7214    6936.4483    2.2109281   0.12155789   0.10220824 
   41400   -953.03428    40.094714   -912.93957    1436.0472    3830.2182    2.2017929  0.024876208   0.10304101 
   41500   -959.44054    38.741282   -920.69926    1387.5722    -8727.707    2.1827077   0.10034032  0.083957216 
   41600   -950.87007    35.779064   -915.09101    1281.4763   -10488.768      2.16376  0.057660509    0.1067449 
   41700   -952.32831    40.065344   -912.26296    1434.9953    3276.7574    2.2001902  0.055663407  0.097012057 
   41800   -955.11224    39.222029   -915.89021    1404.7908    14047.143    2.2324971  0.058175656  0.090234605 
   41900   -955.46701    35.602372   -919.86464    1275.1479    3999.6522    2.2132606   0.14826671  0.099026983 
   42000   -955.74281     43.37848   -912.36433    1553.6599   -12787.602    2.1638046   0.08205907  0.091932794 
   42100   -953.26736    39.172078   -914.09529    1403.0018   -7299.4654    2.1762807  0.072455353   0.10303114 
   42200   -955.19515    36.906789   -918.28836    1321.8673    3147.0955    2.2108474   0.36560248  0.098952257 
   42300   -954.63283    43.762929    -910.8699    1567.4294    5488.3118    2.2086009  0.053823618   0.10228418 
   42400   -952.44461     40.83875   -911.60586    1462.6959    3230.6149    2.1992417   0.15511642  0.099946618 
   42500   -953.34267    37.592525   -915.75014    1346.4279   -4872.6019    2.1865881  0.056010927   0.10396716 
   42600   -954.44472    41.336431   -913.10829    1480.5211    -5142.444    2.1839575   0.11289451   0.10229442 
   42700   -950.35674    41.773812   -908.58293    1496.1864    720.73998    2.1901971    0.2140352   0.11052144 
   42800   -954.27165    39.765563   -914.50609    1424.2582    3596.1887    2.2083215   0.39966356  0.098112305 
   42900   -953.91334    39.057396   -914.85594    1398.8943    1330.7867    2.2004367   0.07245675  0.091199665 
   43000   -950.17698    43.350797   -906.82619    1552.6683   -5865.1854    2.1711438  0.051099196   0.10393363 
   43100   -953.75646    39.625869   -914.13059    1419.2549   -3335.7764    2.1874315   0.36488018  0.095085018 
   43200   -955.19393    40.420142   -914.77379    1447.7029    3990.7877     2.204356  0.030698249  0.092767404 
   43300   -949.89381    39.745799   -910.14801    1423.5504    8380.9728    2.2067113  0.068474005  0.094450376 
   43400    -950.1319    39.353824   -910.77808    1409.5112   -3101.1597    2.1770987   0.10925811   0.10332485 
   43500   -954.74435    37.957021   -916.78733    1359.4828   -11899.078    2.1662222   0.10760725   0.10702389 
   43600   -956.84194    43.387627   -913.45432    1553.9874   -3499.4495    2.1947339  0.085316298  0.094832112 
   43700   -954.06517    44.578772    -909.4864    1596.6499    13460.802    2.2238527  0.045590493  0.094350222 
   43800   -953.93212    36.547296   -917.38482    1308.9916    6999.3836    2.2119246  0.083381401   0.10292426 
   43900   -954.11146    37.860433   -916.25103    1356.0234   -10103.011    2.1690676  0.028504213  0.096178366 
   44000   -950.77131    38.373504   -912.39781    1374.3998   -5819.0708    2.1705078   0.11058634   0.09371273 
   44100   -953.86544    39.698322   -914.16712    1421.8499    3579.9087    2.2024342 0.0069208052  0.095142896 
   44200   -957.59196    37.996712   -919.59525    1360.9044     8723.105    2.2252634  0.034226761   0.08093102 
   44300   -953.30663    41.075736   -912.23089    1471.1839    481.99845    2.1920816  0.057934534    0.1007566 
   44400   -951.16047    37.544738   -913.61573    1344.7163   -5070.5763    2.1785035   0.20124942   0.10546045 
   44500   -957.25422    38.105828   -919.14839    1364.8126   -3087.1515    2.1955117   0.13658529  0.097605141 
   44600   -955.66448    41.815436   -913.84905    1497.6773    4591.8511    2.2083616   0.15868393  0.099505627 
   44700   -953.55576     41.87239   -911.68337    1499.7172    6819.9055    2.2107976   0.15997045  0.098597407 
   44800   -954.83697    39.382104   -915.45487    1410.5241    -1891.071    2.1921847  0.065417481  0.099842669 
   44900   -954.24728    37.251689   -916.99559    1334.2204   -6591.6894    2.1797238   0.41611784   0.10262454 
   45000   -952.10285    43.447632   -908.65522    1556.1366   -5503.0052    2.1761603   0.40005461   0.10717874 
   45100   -951.94554    39.157798   -912.78774    1402.4903    7771.5411    2.2089224   0.22234897  0.098573172 
   45200   -956.90375    41.584486   -915.31927    1489.4055    4151.2715    2.2120265   0.14850604   0.10008696 
   45300   -951.80579    43.227075   -908.57871    1548.2371   -4206.8278    2.1796938   0.43059732   0.10232874 
   45400   -954.24374    43.548767   -910.69497    1559.7589    -7918.693     2.174272  0.041102001    0.0950277 
   45500   -955.29961    40.039462   -915.26015    1434.0683   -2140.9869    2.1930314   0.22102485   0.10211418 
   45600   -952.60137    40.091928   -912.50944    1435.9475    5143.0709    2.2063383  0.058411534   0.10667899 
   45700   -951.09701       44.505   -906.59201    1594.0077    1903.7287    2.1925662   0.25008966   0.12348744 
   45800    -951.4804    36.421072   -915.05933    1304.4707     1756.134    2.1954046  0.073257492  0.098477969 
   45900   -957.04932    42.747776   -914.30154    1531.0703   -5330.9056    2.1893916   0.10936745   0.10676656 
   46000   -952.26506    42.429332   -909.83573    1519.6648   -1899.8665    2.1881856  0.092561399    0.1076833 
   46100    -951.9006    41.563876   -910.33672    1488.6673   -1562.7093    2.1875953  0.085932985   0.11393664 
   46200   -953.12504    36.846773   -916.27827    1319.7178    2698.2318    2.2013749   0.16032811   0.12133974 
   46300   -954.54133    41.079454   -913.46188    1471.3171    2857.5872    2.2024709   0.31822883   0.10164434 
   46400    -953.4529    42.092841   -911.36006    1507.6129    1661.3479    2.1913935   0.11654063   0.11014901 
   46500   -958.30757    40.114547   -918.19302    1436.7576   -7096.9545    2.1855975   0.11266467  0.091994142 
   46600   -953.94642    36.467045   -917.47937    1306.1173   -4493.5131     2.185546   0.15932564   0.10564922 
   46700   -954.00026    40.909043   -913.09122    1465.2136    3887.2333    2.2024456   0.17019716   0.10528197 
   46800   -951.42423    39.248747   -912.17548    1405.7478    9084.5571    2.2110343  0.080907114   0.10754168 
   46900   -955.82854    35.513447   -920.31509    1271.9629    1479.1148    2.2037019   0.12979771   0.10348091 
   47000   -952.36775    37.811597   -914.55615    1354.2743   -8848.0768    2.1678639   0.14026834   0.10453889 
   47100   -952.29776    39.613673   -912.68409    1418.8181   -3184.7672    2.1816788  0.025496729    0.1053079 
   47200   -955.70063    39.636501   -916.06413    1419.6357    8650.4194    2.2190835   0.18118312  0.098145568 
   47300   -956.75114    37.226635   -919.52451     1333.323      7956.67    2.2243067  0.079612305   0.10567461 
   47400   -952.64123    40.862935   -911.77829    1463.5622   -6832.0395    2.1778511   0.16370504   0.11867944 
   47500   -952.55649    38.321414   -914.23508    1372.5341   -6334.2568    2.1766804  0.044975286   0.10453937 
   47600   -956.68745    38.858579   -917.82887    1391.7734   -324.74503     2.200907   0.20072021  0.098012152 
   47700    -955.0743    44.396132   -910.67817    1590.1085    4474.7187    2.2035743   0.18835993  0.096564146 
   47800   -953.88967    42.505609   -911.38406    1522.3968    2055.6998    2.2014655  0.070265046  0.096064188 
   47900   -955.89848    40.415246   -915.48324    1447.5275   -3182.4459    2.1908907  0.049800063   0.11284377 
   48000   -954.03625    40.573834   -913.46242    1453.2076   -5731.6129    2.1828842   0.20458547    0.1040528 
   48100   -951.77626    43.453044   -908.32321    1556.3305   -2655.8194     2.183096   0.23625348   0.11061213 
   48200    -955.2821     40.57665   -914.70544    1453.3085    1929.1548    2.2057144   0.27094762   0.11494803 
   48300   -956.64988    42.015176   -914.63471    1504.8313     2469.338    2.2058323  0.084061158  0.099608448 
   48400   -950.06662    42.951895   -907.11472    1538.3811   -3776.8563    2.1800927   0.22350582   0.11652822 
   48500   -954.25928    39.568536   -914.69074    1417.2014    -1270.735     2.193891 0.0051429112  0.094674253 
   48600   -953.79648    38.795681    -915.0008    1389.5206   -1133.2691    2.1957856  0.071305099   0.10584356 
   48700   -950.51762    40.448152   -910.06947    1448.7061    440.19332    2.1941953    0.1729793   0.10430428 
   48800    -952.1273    39.646721   -912.48057    1420.0018    2128.9346    2.1971393  0.053761228  0.099811915 
   48900   -955.07397    38.348245   -916.72572    1373.4951   -1670.4846    2.1956103   0.14069251  0.094247399 
   49000   -950.76924    37.930043   -912.83919    1358.5166    2372.0826    2.1961622   0.13365405   0.11041631 
   49100   -950.19439    38.784996   -911.40939    1389.1379    3277.7784    2.1991534   0.18105923   0.11274133 
   49200   -956.75331    37.084691   -919.66862    1328.2391    2790.9584    2.2143874   0.14819289   0.10261534 
   49300    -950.6158    36.415045   -914.20076    1304.2548   -3709.2739    2.1864172  0.075057119   0.11536499 
   49400    -951.8508     39.50248   -912.34832    1414.8356   -5846.1471    2.1784037   0.10707314   0.10842793 
   49500   -955.24782    36.626954   -918.62087    1311.8447    2997.0287    2.2075139  0.034543098   0.10486693 
   49600   -953.86179    37.801068   -916.06073    1353.8972    7511.3002    2.2183507     0.126927   0.10414051 
   49700   -952.49397    40.662659   -911.83131     1456.389    2575.8142    2.2001886   0.13267875  0.099088895 
   49800   -954.36428    38.282905   -916.08138    1371.1548   -9005.2631    2.1770082   0.24076269   0.10596068 
   49900    -953.1566    35.004461   -918.15214    1253.7328   -5320.3398    2.1858784  0.048445111  0.096434484 
   50000   -953.62476    43.428936   -910.19583     1555.467     1698.054    2.1973477   0.41304568   0.10029597 
   50100   -953.36542    40.243539   -913.12188    1441.3776    7682.1857    2.2159666   0.11475946   0.11395014 
   50200    -953.7936    37.411016   -916.38259    1339.9269    2456.5644    2.2012785  0.074778472   0.10076348 
   50300   -948.27608    40.301325   -907.97476    1443.4473   -6655.3608    2.1646738   0.14968325   0.10904504 
   50400   -951.56419    39.517041   -912.04715    1415.3571   -1872.7208    2.1828593    0.0934192   0.10653882 
   50500   -955.38781    40.358883   -915.02893    1445.5088    5647.1391    2.2114602   0.18440074  0.099107439 
   50600    -953.3702    41.689015   -911.68119    1493.1493    7410.5037    2.2141291   0.20322324   0.10398898 
   50700   -950.38405    41.889199   -908.49485    1500.3192   -5077.1711    2.1769464  0.081827409   0.11160276 
   50800   -951.75268    35.738291   -916.01439     1280.016   -10932.029    2.1654053    0.1671749   0.10621295 
   50900   -954.46759    40.404496    -914.0631    1447.1425   -3001.4696    2.1908518  0.087871207   0.11419846 
   51000   -953.98085    45.849453   -908.13139    1642.1611    16903.912     2.233866    0.1236983   0.10860681 
   51100   -953.00217     37.65114   -915.35103    1348.5273    10870.642    2.2219693   0.16094267  0.098524098 
   51200   -956.02159    39.431406   -916.59019      1412.29   -11394.948    2.1743614   0.05361598   0.11081223 
   51300   -948.62038    37.017213   -911.60316    1325.8223   -6022.2642    2.1724511   0.20056044   0.11406937 
   51400   -953.79824    37.862498   -915.93574    1356.0974    969.21761    2.2021627   0.16335181   0.10807572 
   51500   -954.52427    36.701431   -917.82284    1314.5122    7023.1067    2.2172485   0.06459047   0.10271617 
   51600    -952.0021    40.719637   -911.28246    1458.4297    1329.3506    2.1965815   0.13475967   0.10045122 
   51700   -954.49824    39.739361   -914.75888    1423.3198    -4684.163    2.1850288   0.18659377  0.097211949 
   51800   -955.98074    36.833752   -919.14699    1319.2514   -4419.2247     2.193158  0.072949892   0.10117342 
   51900    -951.8685    40.748002    -911.1205    1459.4457     2435.387    2.1948736   0.14876257  0.098802105 
   52000   -950.61907    37.188386   -913.43068    1331.9531    7114.9618    2.2108264  0.053938786   0.11143018 
   52100   -953.34998    35.624066   -917.72591    1275.9249    3665.9495    2.2043379   0.25161376  0.097362686 
   52200    -950.7401    41.497129   -909.24297    1486.2767   -7070.7772    2.1720422   0.18516836  0.098604471 
   52300     -954.841    42.125401    -912.7156    1508.7791   -3098.8285    2.1876459   0.11978427  0.093940816 
   52400   -958.60017    42.820264    -915.7799    1533.6666    2321.0168    2.2107664   0.16977943  0.085084287 
   52500   -954.85481    45.001824   -909.85299    1611.8021    3811.0029    2.2040746   0.12078341  0.096883505 
   52600   -953.59579    42.763059   -910.83273    1531.6177   -5742.7429    2.1804493 0.0074165613  0.092720516 
   52700   -953.71104    37.245326   -916.46571    1333.9925   -9978.5538    2.1700142    0.1902069  0.098653133 
   52800    -952.4619    40.484018   -911.97789    1449.9907    -1866.013    2.1876435   0.23331586   0.10418488 
   52900   -951.75412    43.610096   -908.14402    1561.9555    11612.178    2.2191103   0.13328625   0.10626475 
   53000   -952.99139    37.067326   -915.92406    1327.6172    12059.811    2.2250356  0.014458743   0.09983777 
   53100   -953.24406     39.87607   -913.36799    1428.2162    -7947.633    2.1757841  0.083174952   0.10531717 
   53200   -950.70677    39.413833   -911.29294    1411.6606   -10822.058    2.1611037  0.083097174   0.12205095 
   53300   -955.57501    36.386256   -919.18875    1303.2237    2280.5848    2.2056553  0.085823544  0.096874337 
   53400   -952.36295    39.226347    -913.1366    1404.9455    7491.3092    2.2095398    0.1015897  0.097430169 
   53500   -952.78257    40.740134   -912.04243    1459.1638    3051.5902    2.1975656  0.083220724  0.089578275 
   53600   -959.02819    40.057273   -918.97092    1434.7062   -5188.7552    2.1932222  0.014748507  0.085070619 
   53700    -954.2984     40.65098   -913.64742    1455.9707    -5521.242    2.1813167   0.18403269   0.10276498 
   53800     -953.569    41.962845   -911.60615    1502.9569     1801.514    2.1954855  0.038207576     0.100117 
   53900   -956.17924    39.571736   -916.60751    1417.3161    4610.0227    2.2114355   0.27994337   0.10100858 
   54000   -955.05981    39.731432   -915.32838    1423.0358    839.09157    2.1989064  0.094883689  0.097492954 
   54100   -950.52593    40.381071   -910.14485    1446.3035   -6551.0384    2.1696155  0.073376407   0.10309006 
   54200   -956.09643    40.351219   -915.74521    1445.2343   -6222.5698    2.1828571   0.12311942   0.10485141 
   54300   -955.11672    40.732669   -914.38406    1458.8965    5197.9036    2.2077859   0.18911026  0.097376441 
   54400   -951.77569    44.142988    -907.6327    1581.0417    6090.2736    2.2010643   0.12823523   0.09137263 
   54500   -955.46583    40.421766   -915.04406    1447.7611   -2154.7617    2.1890986    0.1193828  0.095163066 
   54600   -953.12447    38.170037   -914.95443    1367.1123   -8968.6924     2.167032  0.037536167  0.087667123 
   54700   -951.46139    43.016774   -908.44461    1540.7049   -5946.7162    2.1709457  0.058688317  0.098937651 
   54800   -955.65612    39.898097   -915.75802    1429.0052    14654.491    2.2313639   0.20617479  0.090538595 
   54900   -955.87524    40.807023   -915.06822    1461.5596    8136.3425    2.2179542    0.1038103  0.093934309 
   55000   -950.85608    39.164704   -911.69138    1402.7377   -7482.1472     2.165651   0.26917385   0.10871452 
   55100   -953.71786     41.76243   -911.95543    1495.7788   -14263.372    2.1574083   0.20120127   0.10821407 
   55200   -954.53402    36.532405   -918.00161    1308.4583    5247.3146    2.2080872   0.15658463   0.10250365 
   55300   -952.18111    40.425453   -911.75566    1447.8931    8156.3004    2.2075524   0.21077403   0.09641887 
   55400   -951.06006    37.756443   -913.30362    1352.2988    2877.8868    2.1945496   0.13181537    0.1029112 
   55500   -956.40182    36.853845   -919.54798    1319.9711   -4017.5569    2.1929309   0.19362043  0.099139385 
   55600   -953.36279    41.138173   -912.22461    1473.4202   -5472.7216    2.1790755   0.11131356   0.10967426 
   55700   -953.60169    40.657017   -912.94467    1456.1869    1926.4073     2.194958  0.070033223  0.099522944 
   55800   -956.94959    38.814908   -918.13468    1390.2092    5411.7093    2.2135585   0.29919469  0.095018644 
   55900   -950.17663    40.080456   -910.09618    1435.5366    1257.8352     2.186186   0.14099804  0.094986351 
   56000   -950.48174    38.024459   -912.45728    1361.8982   -931.57181    2.1834493   0.11351301  0.099777167 
   56100   -957.88803    41.121203   -916.76683    1472.8124   -3386.3539    2.1920494  0.097260303  0.092693121 
   56200    -952.0047    41.277242   -910.72746    1478.4011    3852.8847    2.1963161   0.17667454   0.10566746 
   56300   -951.38016    40.622443   -910.75771    1454.9486    6240.2304    2.2027152   0.27227472   0.10396472 
   56400   -952.92497    36.976156   -915.94882    1324.3518   -1001.8658     2.189709   0.10883014  0.097046888 
   56500   -952.20574    40.304676   -911.90106    1443.5673   -9023.5841     2.167166  0.080558973   0.10138215 
   56600   -948.86076    39.602239   -909.25853    1418.4086   -633.46619    2.1807622   0.10727903  0.096379851 
   56700   -954.46952    38.809467   -915.66006    1390.0144    10627.961     2.225141  0.069259341   0.10887912 
   56800    -950.4025    38.165922   -912.23658    1366.9649    10303.892     2.212942   0.24829081  0.099790008 
   56900   -950.15534     39.72246   -910.43288    1422.7145   -6947.0156    2.1658586   0.10838234  0.093907828 
   57000    -957.7341    39.119285   -918.61481    1401.1109   -10072.692    2.1746907   0.20948962  0.098035042 
   57100   -955.94618    41.756108   -914.19007    1495.5524    1344.8543    2.1985679 0.0046549779   0.10073343 
   57200   -952.91034    42.308451   -910.60189    1515.3353    8394.9551    2.2114062  0.088694761   0.10343846 
   57300   -953.10805    34.891647   -918.21641    1249.6923    3146.7635    2.2043234  0.034967319   0.10011472 
   57400   -953.43552    38.118628   -915.31689     1365.271   -5038.9977    2.1800625   0.15510372    0.1039343 
   57500   -952.68477     41.08623   -911.59854    1471.5598   -2692.1702    2.1822355   0.16180178   0.10026651 
   57600   -955.24776    38.403432   -916.84433    1375.4717    2633.7391    2.2046814    0.2298956  0.093675014 
   57700   -956.52582    39.942347   -916.58347      1430.59    2892.8457    2.2072337  0.096334972  0.084021442 
   57800   -955.47895    44.525514   -910.95344    1594.7424   -3753.3997    2.1859106   0.16938569  0.093123239 
   57900   -950.29866    34.523462   -915.77519    1236.5052   -2276.5844    2.1857252  0.064805266   0.10271209 
   58000   -957.41604    41.520305   -915.89574    1487.1068   -2702.1672    2.1962658   0.12569827    0.0861245 
   58100   -950.16954    41.404875   -908.76467    1482.9725    2804.9818    2.1908835   0.11683901   0.10674258 
   58200   -956.96464    42.273779   -914.69086    1514.0934   -757.81886    2.2008735    0.1413301  0.097363232 
   58300   -956.49298    40.920497   -915.57248    1465.6238    254.92055    2.1956025   0.10380691  0.088501207 
   58400   -949.05355     41.26189   -907.79166    1477.8513   -4357.8995    2.1716285   0.29521821    0.1091413 
   58500   -955.28626    40.163107   -915.12315    1438.4968   -3525.7069    2.1958748    0.1692816   0.10066662 
   58600   -954.66612    39.920923    -914.7452    1429.8227    7421.6481    2.2145863  0.059058968   0.10048957 
   58700   -953.02705    44.443302   -908.58375    1591.7979    3331.8211    2.1999116   0.13259724  0.096901494 
   58800   -953.09995    39.424005   -913.67595    1412.0249   -8076.4831     2.175673    0.2291789  0.090328557 
   58900   -954.92639    38.729771   -916.19662      1387.16   -11250.194    2.1710644  0.049758345   0.10101352 
   59000   -955.50105    44.985878   -910.51517     1611.231    1239.4458    2.1990246  0.097715823   0.10549948 
   59100   -955.53495    40.663166   -914.87179    1456.4071    11010.387    2.2278758   0.10171758  0.094168816 
   59200   -954.60807    37.247439   -917.36063    1334.0682    3404.4651    2.2074582   0.26344253   0.10196014 
   59300   -952.76873    40.558322    -912.2104     1452.652   -8127.6322    2.1706654   0.15351439   0.11645952 
   59400   -951.64544    38.558505   -913.08693    1381.0258   -5045.9212    2.1780979   0.21380306   0.10376855 
   59500   -958.09141     39.23845   -918.85296     1405.379    4870.7711    2.2186237  0.087506962  0.091442127 
   59600   -951.95941    40.537868   -911.42154    1451.9194     5491.239    2.2095082   0.56066587   0.10724107 
   59700    -954.8485    41.344343   -913.50415    1480.8044   -2580.1821    2.1926884  0.047797298   0.10157016 
   59800   -955.27866    36.257777   -919.02088    1298.6221   -4738.5173    2.1893237  0.081271593  0.091876884 
   59900    -950.2518    38.700178   -911.55162       1386.1   -853.66865    2.1862118  0.007778324   0.10102931 
   60000   -954.43557    42.221671    -912.2139    1512.2271    5832.0842     2.208413  0.062228922  0.091941111 
   60100   -956.93208    40.104408   -916.82767    1436.3945    4609.4529    2.2115693   0.21102604  0.079590685 
   60200   -950.12998    40.408086   -909.72189    1447.2711   -3737.8608    2.1788439  0.055551353   0.10541141 
   60300   -953.74859    41.910764   -911.83782    1501.0916   -5977.2057     2.181796   0.34611642   0.10366968 
   60400   -954.88912    38.903763   -915.98536    1393.3917    639.85629    2.1993592   0.19247767  0.092157657 
   60500    -951.2969    40.210208   -911.08669    1440.1838    5148.4234    2.2027349   0.03335583   0.10543284 
   60600   -953.42175     43.57967   -909.84208    1560.8657    219.00166     2.192127   0.16264509  0.085289497 
   60700   -953.71663    37.502803   -916.21383    1343.2144   -3408.4652     2.184661  0.068489917  0.093883521 
   60800   -954.37787    41.718735   -912.65914    1494.2138   -4999.4245     2.181271  0.056916635  0.096910171 
   60900   -953.04183    45.015582   -908.02625    1612.2949    5173.1428    2.1996429   0.17215623  0.094319352 
   61000    -955.1089    39.013103    -916.0958    1397.3079    17426.083    2.2413726  0.087688149  0.082378478 
   61100   -951.17121    37.524492   -913.64672    1343.9912   -1023.0843    2.1853364  0.063571451  0.089732944 
   61200   -950.66375    38.949412   -911.71434    1395.0267   -17111.674    2.1452155   0.17215487   0.11241763 
   61300   -956.02531     36.62831     -919.397    1311.8932   -6002.2303     2.186609  0.041407725  0.092249661 
   61400   -957.20141    42.327999   -914.87342    1516.0354    7701.8052    2.2189692   0.24955838  0.099485715 
   61500   -953.55004    42.599265   -910.95077    1525.7512    8967.0074     2.212156   0.19310634  0.091363021 
   61600   -957.06979     39.82897   -917.24082    1426.5293   -3909.2735    2.1901826  0.088221644  0.091839941 
   61700   -953.38948    37.507014   -915.88247    1343.3652   -8619.8955    2.1723946   0.11314677  0.097196334 
   61800   -950.78898    39.814498   -910.97449    1426.0109   -2390.5456     2.181297   0.13352999  0.095222647 
   61900   -953.21526    38.234387   -914.98087    1369.4171    8213.8701    2.2116197   0.11320521  0.086658467 
   62000   -956.25717    39.554897   -916.70227     1416.713    6103.8458    2.2149963   0.21998098   0.09053867 
   62100   -948.87998     40.06902   -908.81096     1435.127   -4132.0661    2.1740954  0.037688294   0.10332779 
   62200   -956.47341    41.490841   -914.98256    1486.0515   -8638.0868    2.1763408   0.24007896  0.082185618 
   62300   -952.84885    37.700591   -915.14826    1350.2984    2076.5269    2.1965253   0.16249746   0.10054265 
   62400   -952.33387     44.72428   -907.60959    1601.8615    4567.1482    2.2013237   0.10981328  0.092475627 
   62500   -953.26273    38.916777   -914.34596    1393.8578      5746.35    2.2076519   0.14143394   0.10182063 
   62600   -952.18197    36.502132   -915.67984     1307.374   -2493.7422    2.1848389   0.17550485   0.10949766 
   62700   -951.92793    42.487653   -909.44028    1521.7536   -8443.0314     2.169278    0.1158887   0.10044735 
   62800   -957.55567    41.966715   -915.58896    1503.0955   -418.48303    2.2019168  0.055070248  0.096718727 
   62900   -956.32867    40.629914   -915.69875    1455.2162    8482.2895    2.2182853   0.11436997  0.087645455 
   63000   -953.04715    42.298547    -910.7486    1514.9806    3861.9454    2.2002978   0.14755407   0.08923981 
   63100    -957.0522    42.596825   -914.45537    1525.6638   -12631.723    2.1680644  0.032300825   0.10801053 
   63200    -956.2817    37.980895    -918.3008    1360.3379   -14308.876    2.1665389  0.050975031  0.093408889 
   63300   -951.47348    39.601332   -911.87215    1418.3761    7544.9614    2.2098747   0.26217322   0.10123017 
   63400   -955.19254    42.859504   -912.33303     1535.072    16476.367    2.2388715   0.26260966   0.10090388 
   63500    -956.3545    37.296358   -919.05814    1335.8203    2206.6378    2.2089625   0.14789974  0.096263669 
   63600   -950.51441    39.198361   -911.31605    1403.9431   -11177.435    2.1633983   0.05142989   0.10986933 
   63700   -953.66878    41.189169   -912.47962    1475.2467   -3711.9234    2.1824159   0.09197238  0.098683174 
   63800    -954.9184     38.23022   -916.68818    1369.2678     7478.516    2.2115851  0.070495631  0.093109167 
   63900   -951.93244    41.512076   -910.42036     1486.812    6834.4818    2.2054029   0.12443214  0.094224435 
   64000    -952.8467    41.445048   -911.40165    1484.4113   -1015.7166    2.1888918  0.040356286   0.11279334 
   64100   -958.11261    41.195608     -916.917    1475.4773    -8230.683    2.1805941  0.086511818  0.084032394 
   64200   -953.01558    41.388138   -911.62744     1482.373   -3567.5668    2.1832898  0.029830534   0.10474846 
   64300   -954.80606    44.961052   -909.84501    1610.3418    3605.7639    2.2013069  0.065098226  0.097452203 
   64400   -956.52046    40.430329   -916.09013    1448.0677    5950.9238    2.2122892   0.11933484  0.094930819 
   64500   -954.06119    41.490867   -912.57032    1486.0524   -3761.8875    2.1859212   0.32297301   0.10660034 
   64600     -953.605    43.668307   -909.93669    1564.0404    -9076.457    2.1678362   0.11236159  0.098780156 
   64700    -958.7387    40.795907   -917.94279    1461.1614   -778.35043    2.2033498    0.3677171  0.087498293 
   64800   -954.68379    41.991167   -912.69262    1503.9713    8125.6492    2.2173257  0.068420812  0.084750002 
   64900   -953.47991     42.14082   -911.33909    1509.3313    3384.3669      2.20051   0.14497251   0.10039662 
   65000   -956.24101    37.329913    -918.9111    1337.0221   -7621.4805    2.1819585   0.12942523  0.089525866 
   65100   -950.59192    36.864107   -913.72781    1320.3386   -11039.684    2.1639091  0.028524816   0.10719383 
   65200   -951.81494    40.773537   -911.04141    1460.3602    5233.2116    2.2023004  0.042330314  0.099614373 
   65300   -957.05139    40.539988    -916.5114    1451.9954    17564.427    2.2454144  0.091534508  0.092937984 
   65400   -955.83094    40.620948   -915.20999    1454.8951    4132.8707    2.2082733   0.18496144   0.10313253 
   65500   -950.40345     39.01001   -911.39344    1397.1971   -11213.648    2.1615679   0.11892695   0.12329786 
   65600   -955.15211    38.915342   -916.23677    1393.8064   -6526.3563    2.1820887   0.27205215   0.10242001 
   65700   -954.08088    38.418288   -915.66259    1376.0038     5183.879     2.208894    0.2886176  0.085670647 
   65800   -952.95967    43.710424   -909.24925    1565.5489    3729.9867    2.1998525  0.094640408  0.096662133 
   65900   -955.44279    39.995595    -915.4472    1432.4972   -1134.9271    2.1972685   0.10828645   0.10017644 
   66000   -953.06507    37.834775   -915.23029    1355.1044   -3162.1291    2.1860397   0.10138311   0.10156681 
   66100   -951.74859    43.243978   -908.50462    1548.8425   -3189.7031    2.1780933   0.29671761    0.0934375 
   66200   -953.35527    37.764633   -915.59063    1352.5922    5555.3094    2.2096465  0.066913118   0.10305875 
   66300   -953.44646    38.917414   -914.52905    1393.8806    6349.3987    2.2096296 0.0058206571  0.096078707 
   66400   -951.36117    42.587352   -908.77382    1525.3245   -2968.9327    2.1803949  0.080623567   0.11561946 
   66500    -955.5285    39.010141   -916.51836    1397.2018    -5427.628    2.1846038   0.28151672  0.096443361 
   66600   -951.84489    36.869775   -914.97512    1320.5416   -1169.6128    2.1948529   0.10589761    0.1034526 
   66700   -954.45504    44.951217   -909.50383    1609.9896    2795.3969    2.2056038   0.25669482   0.10752886 
   66800   -957.79328    41.123499   -916.66978    1472.8946    3065.8217    2.2120568   0.15216394   0.09508609 
   66900   -955.88834    40.041882   -915.84646     1434.155   -7461.9513    2.1810262   0.11077136  0.086695988 
   67000   -950.35082     39.19805   -911.15277     1403.932   -8009.5792    2.1692856   0.15015331   0.09360506 
   67100   -956.79286    40.051711   -916.74115     1434.507    2769.9879     2.209082  0.058692612  0.090743029 
   67200   -953.62252    37.638088   -915.98443    1348.0598    15388.085    2.2329752  0.053124817  0.097612554 
   67300   -950.40875    40.095871   -910.31288    1436.0887    3531.6846    2.1983418   0.10796967   0.11166843 
   67400   -954.44033    39.037984   -915.40234     1398.199   -12738.986    2.1673023  0.073522216   0.11585813 
   67500   -958.58763    41.959576   -916.62806    1502.8399   -10927.322    2.1778986  0.040569329  0.097059878 
   67600    -952.1894    42.664156   -909.52525    1528.0753      2261.46    2.1990701   0.21039733   0.10911356 
   67700   -952.66068    38.677851   -913.98283    1385.3004    10181.035    2.2172768  0.032982642   0.10201559 
   67800   -957.58319    40.759416   -916.82377    1459.8545   -77.898571    2.2001967  0.074520638  0.090610732 
   67900   -952.02875    43.221725   -908.80702    1548.0454   -8772.0795    2.1706703   0.11083834   0.10125781 
   68000   -954.72313    40.291355   -914.43178    1443.0902   -1353.7605    2.1921682   0.18327871  0.088123934 
   68100   -953.28978    37.569001   -915.72078    1345.5854    4058.5064    2.2077484  0.052554755   0.10195597 
   68200   -953.25036    44.633209   -908.61715    1598.5997    1056.2474    2.1949122   0.14318819  0.097588386 
   68300   -950.90809    36.338883    -914.5692     1301.527    1610.0134    2.1939973  0.034258993   0.11421324 
   68400   -955.76134    39.770544    -915.9908    1424.4367   -4560.8868    2.1871891   0.15514231  0.096702887 
   68500   -954.25819    44.611915   -909.64628     1597.837   -4244.5025     2.184304  0.039593737   0.11181638 
   68600   -958.81708    43.440378    -915.3767    1555.8768     2081.791    2.2063205   0.24937029   0.10245223 
   68700   -957.51092       41.246   -916.26492    1477.2822   -81.238263    2.2023605   0.24930714  0.085256565 
   68800   -952.50722    41.453512   -911.05371    1484.7145   -3043.4016    2.1814805   0.10819957  0.098851324 
   68900   -952.44382    37.849519   -914.59431    1355.6325   -3074.6132    2.1840605  0.079317641   0.10631719 
   69000   -954.51762    36.922985   -917.59463    1322.4474    1794.5344    2.2056048  0.044124428  0.099783862 
   69100   -951.87703    41.192812   -910.68422    1475.3771     10483.27    2.2176065   0.13186274  0.093287552 
   69200   -955.21494    40.798251   -914.41669    1461.2454    2889.8588    2.2025139    0.0691473  0.093933378 
   69300   -956.37248    37.044051   -919.32843    1326.7836   -10426.919    2.1742855   0.29087566  0.094967801 
   69400   -952.78588    40.843185    -911.9427    1462.8548   -10030.343    2.1669487   0.31129467   0.10605326 
   69500   -952.55818    39.444692   -913.11349    1412.7658    6899.3125    2.2091537   0.21951774   0.10354071 
   69600   -954.93949    37.540684   -917.39881    1344.5712     12862.82    2.2312568   0.15571973   0.10321657 
   69700   -952.19778    42.967295   -909.23049    1538.9327   -1527.7399    2.1860183  0.085642046   0.11029187 
   69800   -954.54223    41.560884   -912.98135    1488.5602   -8734.5875    2.1761446  0.081778125   0.10038094 
   69900   -955.42179    38.931984   -916.48981    1394.4025   -3023.9214    2.1900848  0.080046328  0.087622155 
   70000   -949.93267    40.328811   -909.60386    1444.4318    5958.7169    2.1994126   0.14135405   0.10185722 
   70100   -954.20438    42.601648   -911.60273    1525.8365    4295.6288    2.2033863  0.038798695  0.098682902 
   70200   -952.30261    35.878437   -916.42418    1285.0355   -579.31457    2.1918752   0.21328738   0.10456676 
   70300   -953.50041    42.368885   -911.13153    1517.4998   -4568.4684    2.1765859   0.16885212  0.096028277 
[...]
  186800   -951.64385    40.966414   -910.67744    1467.2684    3076.9914    2.2020318    6.8530355   0.10787018 
  186900   -955.97383    40.790259   -915.18357    1460.9592   -1352.8179    2.2019271    6.4995351  0.099929669 
  187000   -957.09851    39.354251   -917.74426    1409.5265   -4396.8754    2.1957305    5.9195171   0.10435533 
  187100   -952.51918    41.255552   -911.26363    1477.6243   -2904.9504    2.1881826    7.3830016   0.10746898 
  187200   -954.27907    39.534357   -914.74471    1415.9773    4117.1973    2.2078123    6.2434899   0.09544459 
  187300   -957.65858    39.900672   -917.75791    1429.0974    4290.1691    2.2158689    6.0354665  0.096361675 
  187400   -954.26633      43.8938   -910.37253    1572.1167   -3649.9481     2.187051    6.1775805   0.10289154 
  187500   -953.05101    38.252021   -914.79899    1370.0487   -6322.7201    2.1791314     5.049003   0.10180382 
  187600   -954.45697    37.511712   -916.94526    1343.5335   -1223.0116    2.1951345     5.796604   0.10252847 
  187700    -952.7255    43.727273   -908.99823    1566.1523    7749.4111    2.2088068    4.6965218   0.10646181 
  187800   -953.62108    39.961441   -913.65964    1431.2739     8533.196    2.2189976    6.1972123    0.1012072 
  187900   -956.54797    39.458199   -917.08977    1413.2496   -5323.0299    2.1880404    6.1740042   0.10426524 
  188000   -949.73193     40.54004   -909.19189    1451.9972   -12402.854    2.1546776    6.2204211   0.12190117 
  188100   -951.05871    37.477893   -913.58081    1342.3222   -60.513988    2.1925274    6.7085354   0.10895355 
  188200   -952.52567    37.113477   -915.41219    1329.2702    11691.272     2.224231    8.0125161   0.10262078 
  188300   -954.05219     44.06797   -909.98422    1578.3549    5426.7082    2.2093487    5.7889918  0.093489576 
  188400   -954.24809    41.382336   -912.86576    1482.1652   -5713.4719    2.1821967    5.9054176   0.10563277 
  188500    -954.8289    37.423904   -917.40499    1340.3885   -6714.7513    2.1845593    6.2914757   0.10916898 
  188600   -952.70627     41.44729   -911.25898    1484.4916   -166.73128    2.1929439    6.2046751   0.11124428 
  188700   -951.62935    37.901616   -913.72774    1357.4984    5650.9594    2.2101629    5.8200607   0.12221963 
  188800   -958.45284    40.576663   -917.87618    1453.3089    2360.1572    2.2118429    6.3105934   0.10582013 
  188900   -953.32146    41.892571   -911.42889      1500.44   -5264.0229    2.1845053    6.9570958   0.11947071 
  189000   -951.43099    37.163269   -914.26773    1331.0535    -3222.384    2.1860798    8.0160371   0.11115272 
  189100   -954.99132    36.818062   -918.17326    1318.6894   -364.14818    2.2031854    6.1669916   0.11169933 
  189200   -953.19656     42.76831   -910.42825    1531.8058    1298.3938    2.1982899     7.278328   0.10338914 
  189300   -953.01519    39.046488    -913.9687    1398.5036    2547.8128    2.2008265    7.1530147   0.11194502 
  189400   -954.01575    36.176412   -917.83934    1295.7079   -976.55796    2.1963177    5.9944991   0.10250261 
  189500   -949.89617    40.196693   -909.69948    1439.6998   -5135.7191    2.1771423    5.7293541   0.10625843 
  189600   -953.01535    39.182562   -913.83279    1403.3773    2394.0046    2.2010431    4.9141447   0.11415387 
  189700   -954.19732    38.171721    -916.0256    1367.1726    9080.0191     2.217565    5.7067164   0.10165747 
  189800   -950.81086    42.481809   -908.32905    1521.5443    904.68111    2.1896811    7.3294869   0.13112022 
  189900   -955.05888    41.596546   -913.46233    1489.8374   -11057.657    2.1697913    6.8627873   0.11632827 
  190000   -955.83811    39.555398   -916.28272    1416.7309   -9113.1734    2.1789682    7.8726496   0.10995573 
  190100   -951.12426    41.642152   -909.48211    1491.4709    6608.6087    2.2086669    5.6278314   0.11786642 
  190200   -954.10935    41.107445   -913.00191    1472.3196    12171.113    2.2276898    6.6386722   0.10206672 
  190300    -954.4076     37.47459   -916.93301    1342.2039   -852.55534      2.19519    6.4898131   0.10664093 
  190400   -949.34802    37.430737   -911.91729    1340.6332   -8389.0701    2.1644689    5.5857678   0.10756337 
  190500   -953.45779      41.9216   -911.53619    1501.4797    -4304.476    2.1825972    6.0430184   0.10099221 
  190600   -956.55232    38.731019    -917.8213    1387.2046     9423.563    2.2242342    5.8153038  0.091749441 
  190700   -952.06057    40.757592   -911.30297    1459.7891    6888.3571    2.2056345    6.1847871  0.098847762 
  190800   -953.22994    40.389747   -912.84019    1446.6143   -3270.8426    2.1841612    6.3471137   0.10932906 
  190900   -954.80183    35.862857   -918.93897    1284.4775   -4369.7198    2.1884935     7.775399   0.11756962 
  191000   -952.27437    40.537555   -911.73682    1451.9082   -299.82801    2.1909681    6.9216156   0.12738707 
  191100   -950.93854    38.331211   -912.60733     1372.885    7508.3063    2.2111581    7.5773289    0.1199572 
  191200    -956.5819    38.775326   -917.80657    1388.7915    3604.6201    2.2112955    6.9975474  0.095764685 
  191300   -951.46554    41.241148   -910.22439    1477.1083   -4735.6883      2.18128    6.2437538   0.10296589 
  191400   -950.59484    37.578503   -913.01634    1345.9257   -2645.7597    2.1853765    5.5285716   0.11225742 
  191500   -952.18692    35.371418    -916.8155    1266.8759    2366.6829    2.2049823    4.5337659   0.11458437 
  191600   -950.55394    41.247291   -909.30664    1477.3284    4926.3945    2.1986765    6.0279604   0.10248098 
  191700   -954.31607    41.650405   -912.66567    1491.7665    1227.6874    2.1996793    5.3583965   0.11274572 
  191800   -957.71015     41.08304   -916.62711    1471.4455   -5876.1074    2.1902204    7.5700128   0.10889847 
  191900   -949.24618    39.078318   -910.16786    1399.6436   -6699.7973    2.1737645     7.575224   0.12154535 
  192000    -951.1183    39.012921   -912.10538    1397.3013    5226.1194    2.2084346    8.0537037   0.12855845 
  192100   -955.05658    39.556984   -915.49959    1416.7877    13725.712    2.2350968    5.9310019    0.1035176 
  192200   -950.99528    39.618859   -911.37642    1419.0038    3413.1843    2.1998731    6.5830586   0.12387829 
  192300    -952.2114    40.356288   -911.85511    1445.4159   -13830.361     2.159226    6.8992544   0.11977953 
  192400   -954.50779    36.019657   -918.48814    1290.0935   -6469.3298    2.1845083    6.0463606   0.11127146 
  192500   -951.02708    39.005275    -912.0218    1397.0275     7592.696    2.2124889    6.3996336   0.10908992 
  192600   -953.31481    41.067623   -912.24719    1470.8933    8547.4469    2.2175354    7.1382351   0.10578815 
  192700   -956.38192    37.267184   -919.11473    1334.7754   -703.37551    2.2018036    6.0811537   0.10744206 
  192800   -951.01942    38.771532   -912.24788    1388.6557    -9094.633    2.1697174    7.4350456   0.12399126 
  192900   -956.14655    43.631984   -912.51457    1562.7394   -6470.3909    2.1843672    5.7152461   0.12484437 
  193000   -957.10087     39.38267    -917.7182    1410.5444    6149.7942    2.2173395    7.0252435   0.10874412 
  193100    -951.3943    40.521705    -910.8726    1451.3405    6008.7017    2.2061764    7.1224462    0.1092922 
  193200   -951.18816    39.091616   -912.09654    1400.1199   -876.36486    2.1904366    6.0831586   0.11087703 
  193300   -953.00309    35.854413   -917.14868     1284.175   -3297.6931    2.1866322    5.1722732   0.10137888 
  193400   -951.73236    40.845702   -910.88666    1462.9449   -936.84111    2.1877584    5.5379604  0.094161696 
  193500   -952.30112    41.316561   -910.98456    1479.8094    6207.8986    2.2056604    4.8047596  0.097985673 
  193600    -954.2221    38.044512   -916.17759    1362.6164    4867.3402     2.208005    6.3179719   0.11296281 
  193700   -951.21546    39.956358    -911.2591    1431.0918   -4653.1674    2.1805221    7.2209097    0.1148085 
  193800   -954.06261    43.408065   -910.65455    1554.7195   -10130.149    2.1695723    5.6350708   0.11127973 
  193900   -957.17145    40.054217   -917.11724    1434.5968   -624.53185    2.2038329    7.2552427   0.10128228 
  194000   -952.81543    41.634519   -911.18091    1491.1975    16041.385    2.2328304    6.6394156   0.10706498 
  194100   -950.88285    39.179457    -911.7034    1403.2661    7305.0074    2.2101069     6.490022   0.12082308 
  194200   -954.29993    35.680763   -918.61916    1277.9555   -11058.684    2.1721177    5.5275255   0.10794674 
  194300   -950.56958    36.823111   -913.74647    1318.8703   -8246.2583    2.1690309    5.8455849   0.11764457 
  194400    -952.2899    41.813314   -910.47659    1497.6013    4252.0032    2.2026529    4.8026461   0.10857253 
  194500   -958.24208    40.134853   -918.10722    1437.4849    9100.7085    2.2283227    6.1379919   0.10688834 
  194600    -953.0353     38.97695   -914.05835     1396.013    800.33784    2.2008048     7.235141   0.12061697 
  194700   -951.43802    39.508728    -911.9293    1415.0594   -5114.6085    2.1787566    6.6597562   0.13079268 
  194800   -955.09363    37.256572   -917.83705    1334.3953    -4717.136    2.1914082    7.5172538   0.12311941 
  194900   -953.89824    39.224896   -914.67335    1404.8935     2057.253    2.2057536    6.0943806   0.10956957 
  195000   -955.47263    44.711523   -910.76111    1601.4046    2818.4079    2.2035449    7.3140163   0.10463798 
  195100   -956.23656    39.657996   -916.57857    1420.4056   -1169.2217    2.1970286    7.6555389  0.099538962 
  195200   -952.39845    38.295972   -914.10248    1371.6228   -4014.9507    2.1829965    5.1997262   0.10409035 
  195300   -948.90624    38.908761   -909.99747    1393.5707   -898.75369    2.1834187    4.6691666   0.11452927 
  195400   -954.96739    39.105507   -915.86188    1400.6174    4348.0461    2.2091408     5.739386   0.10711895 
  195500   -954.01501    39.942729   -914.07228    1430.6037    8017.6042    2.2157254    5.1810527    0.1104007 
  195600    -950.8839     42.29676   -908.58714    1514.9165   -4325.4709    2.1815829    7.9854977   0.11253385 
  195700   -953.00749    36.869519   -916.13797    1320.5325   -9774.9149    2.1692106    6.4462959   0.12648175 
  195800   -953.26788    38.943423   -914.32446    1394.8122   -3601.4479    2.1858087    7.0051187   0.11333007 
  195900   -951.85002     44.13398   -907.71604    1580.7191    13264.949    2.2193061    6.6597569   0.11969134 
  196000   -954.08399    38.854327   -915.22966    1391.6211    13381.658    2.2274786    7.1085709  0.096117209 
  196100   -954.96129    39.207692    -915.7536    1404.2773   -8173.3781    2.1781797    6.7284535  0.095975536 
  196200   -949.17161    38.411722   -910.75989    1375.7686    -11208.53    2.1590017    7.2629426   0.11189894 
  196300   -953.91258    36.496269   -917.41632     1307.164   -268.55232    2.1975521    5.0790772   0.10197416 
  196400    -952.9629    37.202135   -915.76076    1332.4456    9873.2834    2.2166274    6.0190317  0.095102716 
  196500   -954.64434    44.004801   -910.63954    1576.0924    2799.8827    2.2000961    5.3423052  0.095244453 
  196600   -956.73171    40.511369   -916.22034    1450.9703   -4312.6095    2.1899634    4.7604774   0.10706169 
  196700   -955.55537    38.823267    -916.7321    1390.5086   -5905.9652    2.1833563    5.7900814   0.12177926 
  196800   -950.28426    40.046011   -910.23825    1434.3029    2277.2874    2.1926307    4.7326589   0.14007958 
  196900    -952.9711    40.092378   -912.87872    1435.9636    3871.9064    2.2029127    3.5183781   0.13815759 
  197000   -953.88309    35.564457   -918.31863    1273.7899    605.00405    2.2029203    5.2222505   0.12976449 
  197100   -949.65306     37.69472   -911.95834    1350.0882   -1676.4001    2.1824576    4.2316997   0.12364006 
  197200    -954.2358    43.594806     -910.641    1561.4079   -1305.1295    2.1865292    2.9440645   0.11480687 
  197300   -952.49044    38.762796   -913.72765    1388.3428    3040.9683    2.2013342    4.5526769    0.1380004 
  197400   -953.47362    36.884643   -916.58897    1321.0742    4731.7579    2.2085162    6.1053615   0.12730143 
  197500   -947.22686    40.345739   -906.88113    1445.0381   -2918.9799    2.1702851     7.639175   0.14528941 
  197600   -953.41919    42.452638   -910.96655    1520.4995   -8362.0941    2.1703269    4.3951581    0.1206984 
  197700   -953.06846     38.16261   -914.90585    1366.8463   -351.53646    2.1971481    3.5877287   0.13252143 
  197800   -951.43685    39.278947    -912.1579    1406.8294    10294.417    2.2165175    3.0886137   0.12854262 
  197900   -949.40859     42.95872   -906.44987    1538.6256    4517.3935    2.1958469    4.9667567   0.13830234 
  198000   -954.92897    41.049161   -913.87981    1470.2321   -7020.4024    2.1812724    5.9658796   0.14438252 
  198100   -952.83378    39.609369   -913.22442    1418.6639   -7189.7594    2.1734899    4.8025948   0.13347093 
  198200   -951.00923    43.418213   -907.59101    1555.0829    471.71022    2.1902021    2.2261167   0.12996079 
  198300   -951.82872    45.039095   -906.78963     1613.137    6495.4393    2.2056586    4.8422361   0.12369429 
  198400    -950.8274     38.38831   -912.43909      1374.93   -309.55192    2.1900936    2.5910847   0.11984478 
  198500   -951.45912    38.342151   -913.11697    1373.2768    -5562.356    2.1763598    5.5369688   0.13638782 
  198600   -953.91045    40.815456   -913.09499    1461.8616   -3396.2474     2.185339    5.9567439     0.117545 
  198700    -956.7789    35.748936   -921.02996    1280.3972     7702.765    2.2204882    5.7264994   0.12433247 
  198800   -955.05673    37.247586   -917.80914    1334.0735    6075.8618    2.2135042    4.0546384   0.11377345 
  198900   -952.66837    39.128304   -913.54006    1401.4339   -1936.8587    2.1814528    5.5440671   0.11376349 
  199000   -952.14225    40.285907   -911.85634    1442.8951   -12015.007     2.159676    5.6539362   0.14064996 
  199100   -950.52704    40.162021   -910.36502    1438.4579   -3600.6918    2.1823111    4.1506346    0.1279181 
  199200   -959.04154    39.853704   -919.18784    1427.4151    16178.605    2.2452431    4.0255057   0.11877198 
  199300   -955.21459    40.140032   -915.07456    1437.6704    8211.4334    2.2110637    4.8653886    0.1126717 
  199400   -949.93265    37.498437   -912.43422     1343.058   -9101.7971    2.1613536    3.3844559    0.1269632 
  199500   -951.39636    40.286555    -911.1098    1442.9183   -9657.7061    2.1656559    7.1219352   0.12561929 
  199600   -954.78429    35.658458   -919.12583    1277.1567    6643.2851    2.2145021    5.9600015   0.10960453 
  199700   -953.68939    40.126994    -913.5624    1437.2034    5948.7961    2.2095058    4.6612502   0.12939965 
  199800   -950.36254     39.02529   -911.33725    1397.7444    2813.3595    2.1917393    5.7365743   0.12489512 
  199900   -956.03054    38.908573   -917.12196     1393.564   -6793.5463    2.1836422    4.8966527    0.1221277 
  200000   -953.42504    38.196538   -915.22851    1368.0615   -811.64219    2.1876968    4.2742753   0.12487055 
  200100    -949.1811    39.288797    -909.8923    1407.1822    3630.0103    2.1964731     6.238306   0.15086197 
  200200     -954.603     40.20451   -914.39849    1439.9798    4275.1107    2.2039091    4.5082967   0.12113449 
  200300   -956.68696    40.723462    -915.9635    1458.5667   -2787.3814    2.1966042    3.5998153   0.11333507 
  200400   -950.70063    43.010545   -907.69009    1540.4817   -6837.8345      2.16932    4.2757107   0.13952113 
  200500   -952.34297     38.57128    -913.7717    1381.4834   -1274.6135    2.1877358    3.8161455    0.1306771 
  200600   -952.67507    38.789948   -913.88513    1389.3153     4185.006    2.2075559    3.9719393   0.11661218 
  200700   -951.85286    45.624648   -906.22821    1634.1094    3085.6738    2.1952359    4.1188757   0.13436683 
  200800   -953.26681    41.023652   -912.24316    1469.3184   -3228.6144    2.1893007    3.8544817   0.14833739 
  200900   -951.37959    36.995869   -914.38372    1325.0578   -10215.068    2.1684266      4.66148   0.12994966 
  201000   -949.15291    38.546546   -910.60637    1380.5975   -1298.5304    2.1816538    4.5473797   0.13799524 
  201100   -954.33755    48.638552     -905.699    1742.0566    7367.2006    2.2147071    4.1107571   0.11618512 
  201200   -955.73401    40.815836   -914.91817    1461.8752    11047.773     2.229441    5.5647315    0.1216392 
  201300   -952.86254    39.747522   -913.11501    1423.6121   -6542.3778    2.1741791    4.1986511   0.11644932 
  201400   -949.37601    37.808869   -911.56715    1354.1766    -10844.28    2.1571904    3.3460009   0.11897163 
  201500   -956.02916    36.578421   -919.45074    1310.1064    -1191.232    2.2006116    4.6647386   0.13059507 
  201600   -952.50651    37.329373   -915.17714    1337.0028    9083.0319    2.2162459     5.091445   0.12693298 
  201700   -954.05303    42.499784   -911.55325    1522.1881    574.01577    2.1994528    4.5371388      0.13086 
  201800   -952.02578    37.391873   -914.63391    1339.2413   -3915.9218    2.1839642    4.8650318   0.12977391 
  201900   -957.29921     38.08318   -919.21603    1364.0014   -5331.1617    2.1913313    3.4725253   0.13254151 
  202000   -952.71258    41.399841   -911.31274    1482.7922   -62.418205    2.1899013    4.8009177   0.13713658 
  202100   -950.22113    38.040526    -912.1806    1362.4737    5434.5208    2.2019104    9.0838852   0.12506555 
  202200   -956.23916    39.559598   -916.67956    1416.8813    2190.8835    2.2051392    4.7970717   0.12435596 
  202300   -951.41333     39.48199   -911.93134    1414.1017   -2895.3623    2.1820549    5.1138499   0.12979258 
  202400   -950.39581    40.271144   -910.12467    1442.3663   -5690.2883    2.1727487     5.304309   0.10839977 
  202500   -954.29123    40.600901   -913.69033     1454.177   -2424.6953    2.1910494    4.8306785   0.13099378 
  202600   -954.83158    40.042956   -914.78862    1434.1935    7374.3782    2.2126493    4.6319865    0.1157687 
  202700   -947.89025    42.215194   -905.67506    1511.9951    7618.3351    2.1932863    4.8870006   0.13280977 
  202800   -953.42351     41.65066   -911.77285    1491.7756   -3452.8745    2.1831786    4.0709274   0.14461564 
  202900   -953.61881    38.695606   -914.92321    1385.9363   -8809.1506     2.170216    4.9122811   0.13328371 
  203000    -951.2989    41.573786   -909.72512    1489.0222   -1773.2848    2.1838002    5.6003117   0.13729307 
  203100   -951.51311    44.202902   -907.31021    1583.1877     10147.92    2.2099673    4.5516102   0.12332982 
  203200   -953.38982    39.914721    -913.4751    1429.6006    8155.5614    2.2105441    5.3705773   0.12435165 
Loop time of 144.715 on 1 procs for 200000 steps with 217 atoms

Performance: 358.223 ns/day, 0.067 hours/ns, 1382.031 timesteps/s
100.0% CPU use with 1 MPI tasks x no OpenMP threads

MPI task timing breakdown:
Section |  min time  |  avg time  |  max time  |%varavg| %total
---------------------------------------------------------------
Pair    | 141.2      | 141.2      | 141.2      |   0.0 | 97.57
Neigh   | 0.33859    | 0.33859    | 0.33859    |   0.0 |  0.23
Comm    | 0.87313    | 0.87313    | 0.87313    |   0.0 |  0.60
Output  | 0.070448   | 0.070448   | 0.070448   |   0.0 |  0.05
Modify  | 1.917      | 1.917      | 1.917      |   0.0 |  1.32
Other   |            | 0.3183     |            |       |  0.22

Nlocal:    217 ave 217 max 217 min
Histogram: 1 0 0 0 0 0 0 0 0 0
Nghost:    957 ave 957 max 957 min
Histogram: 1 0 0 0 0 0 0 0 0 0
Neighs:    4227 ave 4227 max 4227 min
Histogram: 1 0 0 0 0 0 0 0 0 0
FullNghs:  8454 ave 8454 max 8454 min
Histogram: 1 0 0 0 0 0 0 0 0 0

Total # of neighbors = 8454
Ave neighs/atom = 38.9585
Neighbor list builds = 571
Dangerous builds = 1
Total wall time: 0:02:27
