LAMMPS (3 Mar 2020)

    # ---------- Initialize simulation ---------------------
    units metal
    atom_style atomic
    dimension  3
    boundary   p p p
    read_data /home/modeler/RemLabs/Lab4/Problem2A_size_3/temp_800/lammps.data
  orthogonal box = (0 0 0) to (12.27 12.27 12.27)
  1 by 1 by 1 MPI processor grid
  reading atoms ...
  108 atoms
  read_data CPU = 0.000834798 secs

    pair_style eam
    pair_coeff * * /usr/share/lammps-stable/potentials/Ag_u3.eam
Reading potential file /usr/share/lammps-stable/potentials/Ag_u3.eam with DATE: 2007-06-11

    velocity  all create 800 87287 dist gaussian

    # ---------- Describe computed properties------------------
    compute msdall all msd
    thermo_style custom step pe ke etotal temp press density c_msdall[4]
    thermo 100

    # ---------- Specify ensemble  ---------------------
    #fix  1 all nve
    fix  1 all nvt temp 800 800 0.05

    # --------- Compute RDF ---------------
    compute rdfall all rdf 100 1 1
    fix 2 all ave/time 1 2500 2500 c_rdfall[*] file /home/modeler/RemLabs/Lab4/Problem2A_size_3/temp_800/lammps.rdf mode vector

    # --------- Run -------------
    timestep 0.001
    run 10000
Neighbor list info ...
  update every 1 steps, delay 10 steps, check yes
  max neighbors/atom: 2000, page size: 100000
  master list distance cutoff = 7.55
  ghost atom cutoff = 7.55
  binsize = 3.775, bins = 4 4 4
  2 neighbor lists, perpetual/occasional/extra = 1 1 0
  (1) pair eam, perpetual
      attributes: half, newton on
      pair build: half/bin/atomonly/newton
      stencil: half/bin/3d/newton
      bin: standard
  (2) compute rdf, occasional, copy from (1)
      attributes: half, newton on
      pair build: copy
      stencil: none
      bin: none
Per MPI rank memory allocation (min/avg/max) = 3.723 | 3.723 | 3.723 Mbytes
Step PotEng KinEng TotEng Temp Press Density c_msdall[4] 
       0       -307.8    11.064668   -296.73533          800     6397.641    10.472245            0 
     100   -300.85621     6.835181   -294.02103    494.19871    27520.464    10.472245  0.042980673 
     200   -298.81241    11.532308    -287.2801    833.81135     37845.83    10.472245  0.047769711 
     300    -296.7079    14.358104   -282.34979    1038.1227    46490.431    10.472245  0.054065619 
     400   -297.30192    11.020562   -286.28135    796.81104    42428.087    10.472245  0.058200846 
     500   -298.31321    12.393307    -285.9199    896.06354    40751.547    10.472245  0.045465455 
     600   -296.59722    9.3364995   -287.26072    675.04957     43369.33    10.472245   0.05895513 
     700   -296.20904    11.967714   -284.24133    865.29217    47409.043    10.472245  0.057155609 
     800   -297.68554     11.34783   -286.33771     820.4732     41565.55    10.472245   0.04819877 
     900   -296.59397    9.6026002   -286.99137    694.28923    44075.685    10.472245  0.056313014 
    1000   -296.26858    10.968253   -285.30032    793.02899    46904.215    10.472245  0.053505639 
    1100   -297.57605    10.901992   -286.67406    788.23817    42180.483    10.472245  0.052610389 
    1200   -298.26334    10.890947    -287.3724    787.43953    39466.994    10.472245  0.050449762 
    1300   -297.13832    11.215903   -285.92242    810.93463    44142.435    10.472245     0.051381 
    1400   -296.53138     12.62908    -283.9023    913.11043    46536.787    10.472245  0.055466266 
    1500   -296.99007    10.327479    -286.6626    746.69956    43631.859    10.472245  0.056685116 
    1600   -297.18772    9.9339995   -287.25372    718.25014    42951.094    10.472245  0.051092168 
    1700   -296.78213    10.519965   -286.26217    760.61675    43785.405    10.472245  0.056149965 
    1800   -295.95234     11.12267   -284.82967    804.19363    47022.054    10.472245  0.061116069 
    1900    -297.6984    10.357774   -287.34063    748.88998    40562.271    10.472245  0.050774577 
    2000   -298.17889        10.49   -287.68889    758.45021    39733.161    10.472245   0.04409589 
    2100   -296.84389    11.309743   -285.53415    817.71946    44529.804    10.472245  0.060851715 
    2200   -297.24078    13.260582   -283.98019    958.76944    43465.373    10.472245  0.070167273 
    2300    -297.7095    13.783051   -283.92645     996.5451    42924.645    10.472245  0.055868455 
    2400   -297.84451    10.566876   -287.27764    764.00848    40579.592    10.472245  0.048342485 
    2500   -297.77931    12.079538   -285.69977     873.3773    41803.408    10.472245  0.048681216 
    2600   -295.97068    9.5850529   -286.38563    693.02053    46818.412    10.472245  0.068051569 
    2700   -296.44057    11.831512   -284.60906    855.44447    46521.375    10.472245  0.055405151 
    2800   -297.05269    10.700305   -286.35239    773.65573    44288.359    10.472245  0.053400914 
    2900   -296.28564    8.7068713   -287.57877    629.52605    44431.872    10.472245  0.060703879 
    3000   -297.36696    11.779195   -285.58776    851.66185     43279.27    10.472245  0.048393764 
    3100   -296.13705    10.190713   -285.94633    736.81109    45921.915    10.472245   0.05861845 
    3200   -295.54514    10.415207   -285.12993    753.04249    48461.189    10.472245  0.065697148 
    3300    -297.3414    12.658068   -284.68333    915.20634    43113.305    10.472245  0.051457022 
    3400    -297.3293    10.048353   -287.28095    726.51817    42057.957    10.472245  0.050045924 
    3500   -296.80482    11.366753   -285.43807    821.84141    44921.966    10.472245  0.052653911 
    3600   -295.77684    11.606288   -284.17055    839.16027    48788.419    10.472245    0.0596451 
    3700   -297.04326    11.718157    -285.3251    847.24864    44622.189    10.472245  0.051268974 
    3800   -297.70934    10.997811   -286.71153    795.16606    42328.561    10.472245  0.048489784 
    3900   -295.77666    10.953814   -284.82285    791.98501    47411.873    10.472245  0.059445905 
    4000   -295.71116    11.909805   -283.80135    861.10523    49116.348    10.472245  0.064426689 
    4100   -297.55157    11.766194   -285.78537    850.72188    42329.363    10.472245  0.049943181 
    4200   -297.31013    10.910388   -286.39975    788.84516    42402.002    10.472245  0.053731029 
    4300   -296.24159    10.471457   -285.77013    757.10953    45809.342    10.472245  0.063485162 
    4400   -296.20244    12.676042   -283.52639    916.50587    47126.741    10.472245  0.060589363 
    4500    -296.7436    10.253911   -286.48969    741.38042    43977.659    10.472245  0.058951686 
    4600   -296.91072    10.456616   -286.45411     756.0365    43848.975    10.472245   0.05733963 
    4700   -295.59942    12.396269   -283.20315    896.27765    49254.254    10.472245  0.059526631 
    4800    -296.1761     11.69105   -284.48505    845.28875    46854.323    10.472245  0.065117721 
    4900   -296.20668    10.220469   -285.98621     738.9625    45813.403    10.472245  0.066498481 
    5000   -296.87318    11.969798   -284.90338    865.44284    45045.045    10.472245  0.053831039 
    5100   -296.99152    10.731055   -286.26047    775.87898    42999.324    10.472245  0.054106111 
    5200   -297.20332    11.370959   -285.83236    822.14549    43532.397    10.472245  0.047025175 
    5300   -298.69851    10.893269   -287.80524    787.60743    38014.034    10.472245  0.045732191 
    5400   -295.99171    11.617831   -284.37388    839.99491    47535.747    10.472245  0.053568667 
    5500   -296.68694    11.467566   -285.21937    829.13037    45645.387    10.472245   0.04844655 
    5600   -297.68206    9.8675164   -287.81455    713.44326    40265.041    10.472245  0.048827353 
    5700    -297.2397    11.950074   -285.28963    864.01677    43726.326    10.472245  0.048771307 
    5800   -296.61807    10.751914   -285.86615    777.38715    45199.819    10.472245  0.058932631 
    5900   -295.40874    12.605928   -282.80281    911.43645     49824.99    10.472245  0.057955903 
    6000   -296.83166    10.991341   -285.84032    794.69826    43961.188    10.472245  0.054654158 
    6100   -297.04773    11.264426   -285.78331     814.4429    43711.827    10.472245  0.050807227 
    6200   -296.54697    9.9698475   -286.57712    720.84203    44062.728    10.472245  0.058182405 
    6300   -296.25352     10.17056   -286.08296    735.35401    44849.972    10.472245  0.059722785 
    6400   -296.43546    11.954466     -284.481    864.33434    46907.054    10.472245  0.058782433 
    6500   -296.64378    10.923525   -285.72026    789.79501    44568.772    10.472245  0.060744665 
    6600    -297.2324    9.7886296   -287.44377    707.73957    41859.728    10.472245  0.053954914 
    6700   -296.78751    10.073048   -286.71446    728.30362    44214.604    10.472245  0.055191979 
    6800   -295.64044    11.572232    -284.0682    836.69799    48689.277    10.472245  0.067218292 
    6900   -295.40201    10.882827   -284.51918    786.85248    48710.646    10.472245  0.065736224 
    7000   -298.71103    10.562441   -288.14858    763.68785    38027.343    10.472245  0.045006132 
    7100   -297.36597    10.803753   -286.56221    781.13523    42529.145    10.472245  0.050968426 
    7200   -295.73628    11.085455   -284.65082    801.50294    47098.125    10.472245    0.0658321 
    7300   -296.45165    11.436849    -285.0148    826.90948    45956.925    10.472245  0.062210228 
    7400   -297.44291    9.6549052   -287.78801      698.071    41370.942    10.472245  0.050562591 
    7500   -296.99125     10.55632   -286.43493    763.24525      43094.1    10.472245  0.048775691 
    7600   -296.04306    12.126818   -283.91624    876.79577    47037.227    10.472245  0.064336708 
    7700   -295.93193    11.722281   -284.20965    847.54684    47931.615    10.472245  0.068305108 
    7800   -298.72808    11.436123   -287.29196    826.85699    38471.242    10.472245   0.04949481 
    7900   -296.81722    10.326976   -286.49025    746.66319    43674.567    10.472245  0.062833917 
    8000    -297.0687    12.756035   -284.31266    922.28953    44218.779    10.472245  0.058633988 
    8100   -297.79441    11.246894   -286.54752     813.1753    41571.695    10.472245  0.051403467 
    8200   -297.95836    11.556208   -286.40215    835.53938    40694.907    10.472245  0.051624354 
    8300   -296.16588    11.212382   -284.95349    810.67999    47069.419    10.472245  0.067297906 
    8400   -296.09886    10.877505   -285.22135    786.46769    47062.652    10.472245  0.064854736 
    8500   -297.64548    10.161173   -287.48431    734.67526    41111.596    10.472245  0.050033886 
    8600   -298.33735    9.4359636   -288.90139    682.24104    38424.296    10.472245   0.04913596 
    8700   -296.01928    10.809198   -285.21009     781.5289    46451.169    10.472245  0.059205044 
    8800   -296.03541    10.184628   -285.85078    736.37113    47136.964    10.472245  0.060161051 
    8900   -296.85025    10.723533   -286.12672    775.33517     44022.02    10.472245  0.056002483 
    9000   -296.33411    12.278833   -284.05528    887.78682    46572.037    10.472245  0.056208078 
    9100   -297.92182    11.183342   -286.73848    808.58034    40433.774    10.472245  0.054287736 
    9200    -297.6849    10.795572   -286.88933    780.54372    41625.511    10.472245  0.058373963 
    9300   -297.39883    12.367838   -285.03099    894.22207    43535.418    10.472245  0.057334711 
    9400   -297.09433    10.848553   -286.24578     784.3744    43216.011    10.472245   0.06243139 
    9500   -297.93392    12.620997   -285.31292    912.52597    42007.632    10.472245  0.050109815 
    9600   -296.69824    10.506858   -286.19138    759.66904    44121.711    10.472245  0.054294127 
    9700   -297.52998    11.086131   -286.44385    801.55179    42250.392    10.472245  0.048737323 
    9800   -297.59238    12.012739   -285.57964    868.54759    42903.666    10.472245  0.048885039 
    9900   -296.03885    10.911521   -285.12733    788.92713    46608.518    10.472245     0.058314 
   10000   -297.01576    9.5359731   -287.47979    689.47194    42931.838    10.472245  0.054623233 
Loop time of 2.04683 on 1 procs for 10000 steps with 108 atoms

Performance: 422.117 ns/day, 0.057 hours/ns, 4885.613 timesteps/s
100.0% CPU use with 1 MPI tasks x no OpenMP threads

MPI task timing breakdown:
Section |  min time  |  avg time  |  max time  |%varavg| %total
---------------------------------------------------------------
Pair    | 1.3541     | 1.3541     | 1.3541     |   0.0 | 66.16
Neigh   | 0          | 0          | 0          |   0.0 |  0.00
Comm    | 0.041689   | 0.041689   | 0.041689   |   0.0 |  2.04
Output  | 0.0018049  | 0.0018049  | 0.0018049  |   0.0 |  0.09
Modify  | 0.63957    | 0.63957    | 0.63957    |   0.0 | 31.25
Other   |            | 0.009619   |            |       |  0.47

Nlocal:    108 ave 108 max 108 min
Histogram: 1 0 0 0 0 0 0 0 0 0
Nghost:    990 ave 990 max 990 min
Histogram: 1 0 0 0 0 0 0 0 0 0
Neighs:    4644 ave 4644 max 4644 min
Histogram: 1 0 0 0 0 0 0 0 0 0

Total # of neighbors = 4644
Ave neighs/atom = 43
Neighbor list builds = 0
Dangerous builds = 0
    
Total wall time: 0:00:02
