LAMMPS (3 Mar 2020)

    # ---------- Initialize simulation ---------------------
    units metal
    atom_style atomic
    dimension  3
    boundary   p p p
    read_data /home/modeler/RemLabs/Lab4/Problem2A_size_7/temp_3600/lammps.data
  orthogonal box = (0 0 0) to (28.63 28.63 28.63)
  1 by 1 by 1 MPI processor grid
  reading atoms ...
  1372 atoms
  read_data CPU = 0.00191133 secs

    pair_style eam
    pair_coeff * * /usr/share/lammps-stable/potentials/Ag_u3.eam
Reading potential file /usr/share/lammps-stable/potentials/Ag_u3.eam with DATE: 2007-06-11

    velocity  all create 3600 87287 dist gaussian

    # ---------- Describe computed properties------------------
    compute msdall all msd
    thermo_style custom step pe ke etotal temp press density c_msdall[4]
    thermo 100

    # ---------- Specify ensemble  ---------------------
    #fix  1 all nve
    fix  1 all nvt temp 3600 3600 0.05

    # --------- Compute RDF ---------------
    compute rdfall all rdf 100 1 1
    fix 2 all ave/time 1 2500 2500 c_rdfall[*] file /home/modeler/RemLabs/Lab4/Problem2A_size_7/temp_3600/lammps.rdf mode vector

    # --------- Run -------------
    timestep 0.001
    run 10000
Neighbor list info ...
  update every 1 steps, delay 10 steps, check yes
  max neighbors/atom: 2000, page size: 100000
  master list distance cutoff = 7.55
  ghost atom cutoff = 7.55
  binsize = 3.775, bins = 8 8 8
  2 neighbor lists, perpetual/occasional/extra = 1 1 0
  (1) pair eam, perpetual
      attributes: half, newton on
      pair build: half/bin/atomonly/newton
      stencil: half/bin/3d/newton
      bin: standard
  (2) compute rdf, occasional, copy from (1)
      attributes: half, newton on
      pair build: copy
      stencil: none
      bin: none
Per MPI rank memory allocation (min/avg/max) = 3.83 | 3.83 | 3.83 Mbytes
Step PotEng KinEng TotEng Temp Press Density c_msdall[4] 
       0      -3910.2    637.97637   -3272.2236         3600     29037.47    10.472245            0 
     100   -3509.6528    348.45543   -3161.1974     1966.279    119759.22    10.472245   0.22501458 
     200   -3409.2791    477.37589   -2931.9032    2693.7568    150627.28    10.472245   0.36183144 
     300   -3271.6786    593.19645   -2678.4821    3347.3139    186822.57    10.472245   0.53102384 
     400   -3179.6908    670.53331   -2509.1575    3783.7137    213032.48    10.472245   0.73857883 
     500   -3158.7988    652.12527   -2506.6735      3679.84    217341.04    10.472245   0.96103325 
     600   -3150.8538    635.37752   -2515.4763    3585.3351    216362.49    10.472245      1.15277 
     700   -3146.2586    647.83958   -2498.4191    3655.6565    218509.58    10.472245    1.3706891 
     800   -3139.2557    623.82173    -2515.434    3520.1276    218574.34    10.472245    1.6924579 
     900   -3111.1192    639.70703   -2471.4121    3609.7658    227030.65    10.472245    2.0809728 
    1000   -3102.7442    637.67525    -2465.069    3598.3008    228516.89    10.472245    2.5361995 
    1100   -3114.2276    640.26706   -2473.9605     3612.926    226388.51    10.472245    3.0524347 
    1200   -3086.2728    642.77996   -2443.4928    3627.1059    232688.97    10.472245    3.6503229 
    1300   -3088.1689    629.24646   -2458.9224    3550.7385    231396.05    10.472245    4.1805976 
    1400   -3108.9131    618.08674   -2490.8263     3487.766    225892.93    10.472245    4.6098515 
    1500   -3088.4483     647.3607   -2441.0876    3652.9543    231921.97    10.472245    5.1020363 
    1600   -3100.2152    650.26094   -2449.9542    3669.3199    228338.24    10.472245    5.5532568 
    1700   -3118.0406    627.14751   -2490.8931    3538.8944    226438.61    10.472245     5.963695 
    1800   -3096.9108    643.16036   -2453.7505    3629.2524    231157.78    10.472245    6.4296721 
    1900   -3084.2949    636.42822   -2447.8667     3591.264    233253.08    10.472245    6.9180445 
    2000   -3095.6906    612.96707   -2482.7235    3458.8764    229267.61    10.472245    7.3626875 
    2100   -3093.8802    645.81523   -2448.0649    3644.2334    230840.96    10.472245    7.8416091 
    2200   -3111.6459    638.43934   -2473.2066    3602.6124    226694.17    10.472245    8.3556954 
    2300   -3118.1411    645.42083   -2472.7203    3642.0079     224642.9    10.472245    8.7989405 
    2400   -3107.7799    655.25857   -2452.5213    3697.5207    228903.54    10.472245    9.3685546 
    2500   -3111.0194    623.55174   -2487.4677    3518.6041    226797.07    10.472245    9.9190991 
    2600   -3102.8008    635.79337   -2467.0075    3587.6817    229186.48    10.472245    10.406743 
    2700   -3111.2343    645.34976   -2465.8845    3641.6069    227955.06    10.472245    10.859122 
    2800   -3111.4267    649.51461   -2461.9121    3665.1085    227091.57    10.472245    11.464172 
    2900   -3081.9827    659.88349   -2422.0993    3723.6184    234429.89    10.472245    11.956514 
    3000   -3103.0198    628.39203   -2474.6278    3545.9171    229116.12    10.472245    12.371462 
    3100   -3105.9622    629.34825    -2476.614    3551.3129    228015.38    10.472245    12.983201 
    3200   -3087.0059    650.35626   -2436.6496    3669.8577    233102.52    10.472245    13.476192 
    3300   -3109.7248    642.45167   -2467.2731    3625.2534    226899.17    10.472245    14.093523 
    3400   -3116.4049    662.80686   -2453.5981    3740.1145    228401.85    10.472245    14.776168 
    3500   -3116.7444    626.07486   -2490.6695    3532.8416    225384.17    10.472245    15.490369 
    3600   -3099.8581    654.02008    -2445.838    3690.5321    229447.56    10.472245    16.207365 
    3700   -3085.2961    631.16572   -2454.1304    3561.5686    230870.24    10.472245    16.865638 
    3800   -3091.6386    614.36792   -2477.2706    3466.7812    231623.43    10.472245    17.531365 
    3900    -3090.907    640.55536   -2450.3516    3614.5528    231935.41    10.472245    18.247408 
    4000   -3086.0851    624.65267   -2461.4324    3524.8165     232054.9    10.472245    18.809875 
    4100   -3113.0011     649.4882   -2463.5129    3664.9594    226903.18    10.472245    19.216532 
    4200   -3094.9616    609.06358    -2485.898    3436.8497    227914.76    10.472245    19.787664 
    4300    -3087.954    637.65448   -2450.2995    3598.1836    232002.99    10.472245    20.297756 
    4400   -3096.0775    627.64589   -2468.4316    3541.7067    229677.34    10.472245    20.817616 
    4500   -3104.0562      634.848   -2469.2082    3582.3471    227714.49    10.472245    21.387936 
    4600   -3094.0115    644.84975   -2449.1618    3638.7854    231236.71    10.472245    22.041509 
    4700   -3107.1492    625.98146   -2481.1677    3532.3146    227679.53    10.472245    22.528237 
    4800     -3099.53    644.68732   -2454.8427    3637.8688     228604.1    10.472245    23.132818 
    4900   -3113.5453    650.01508   -2463.5302    3667.9325    227754.19    10.472245    23.647726 
    5000   -3112.9397    643.12841   -2469.8113    3629.0721    226586.56    10.472245    24.185611 
    5100   -3090.5996    627.23089   -2463.3687    3539.3649    229862.59    10.472245    24.764063 
    5200   -3096.6347    636.28653   -2460.3482    3590.4645    229924.79    10.472245    25.392399 
    5300   -3100.2017    639.04232   -2461.1593     3606.015    228111.36    10.472245    25.812904 
    5400   -3107.0066    616.60928   -2490.3974    3479.4289    226747.58    10.472245    26.291425 
    5500   -3097.2538    623.85456   -2473.3993    3520.3129    228985.68    10.472245    26.809167 
    5600   -3093.0275     633.8335    -2459.194    3576.6225    231089.08    10.472245    27.290318 
    5700    -3112.051    671.53326   -2440.5178    3789.3562       228236    10.472245    27.718481 
    5800   -3111.8132    635.81624    -2475.997    3587.8107    226495.19    10.472245    28.273755 
    5900    -3078.842    629.27172   -2449.5703     3550.881    235153.01    10.472245    28.934294 
    6000   -3093.1991    657.60222   -2435.5969    3710.7456    232044.95    10.472245    29.608986 
    6100   -3103.9701    628.41368   -2475.5564    3546.0392    228075.41    10.472245    30.190698 
    6200   -3108.2731    656.77953   -2451.4936    3706.1033    228920.99    10.472245    30.582791 
    6300   -3079.4282    658.43201   -2420.9962    3715.4279    234075.59    10.472245    31.137717 
    6400   -3113.4168    646.70398   -2466.7128    3649.2485    228107.83    10.472245    31.599554 
    6500   -3092.3998    624.21794   -2468.1818    3522.3633    231261.25    10.472245    31.974109 
    6600   -3089.6787    653.40235   -2436.2763    3687.0464    232415.39    10.472245    32.512542 
    6700   -3083.8777    625.68129   -2458.1964    3530.6208    232683.46    10.472245    32.921031 
    6800   -3062.2285     615.5434   -2446.6851    3473.4143    235931.74    10.472245     33.53182 
    6900   -3099.9759    630.07453   -2469.9014    3555.4111     229226.6    10.472245    34.017789 
    7000   -3109.5988    612.34878     -2497.25    3455.3875    226757.84    10.472245     34.72587 
    7100   -3077.5199     636.4054   -2441.1145    3591.1353    235655.22    10.472245     35.33543 
    7200   -3099.4346    646.19386   -2453.2407      3646.37     230258.7    10.472245    35.945824 
    7300     -3099.82    627.21718   -2472.6028    3539.2876    227779.46    10.472245    36.592746 
    7400   -3084.9481    633.23293   -2451.7152    3573.2335    231909.37    10.472245    37.220791 
    7500   -3100.4936    624.37977   -2476.1138    3523.2765     227526.6    10.472245    37.681276 
    7600   -3103.3944    639.55839    -2463.836    3608.9271    228433.17    10.472245      38.1259 
    7700   -3086.0754    652.65052   -2433.4248    3682.8039    232985.17    10.472245     38.59934 
    7800   -3109.0076    616.61546   -2492.3922    3479.4637    226143.67    10.472245    39.066625 
    7900   -3096.4459    632.74643   -2463.6995    3570.4883    230965.98    10.472245    39.672041 
    8000   -3084.3182    630.51258   -2453.8056     3557.883    234396.55    10.472245    40.063379 
    8100    -3080.155    665.98135   -2414.1737    3758.0277    234869.03    10.472245    40.888187 
    8200   -3103.5172     635.2714   -2468.2458    3584.7363    227941.32    10.472245    41.920633 
    8300   -3099.3395    632.27214   -2467.0673    3567.8119    229593.26    10.472245     42.44174 
    8400   -3123.6354    630.54537     -2493.09     3558.068    224700.21    10.472245    43.198405 
    8500   -3104.6542    653.01175   -2451.6424    3684.8422     229379.1    10.472245    44.008952 
    8600    -3101.285    641.00915   -2460.2759    3617.1135    227018.34    10.472245    44.589138 
    8700   -3120.4358    618.04131   -2502.3945    3487.5096    224902.85    10.472245    44.919848 
    8800   -3099.0572    616.11848   -2482.9387    3476.6594    228719.76    10.472245    45.679728 
    8900    -3089.483    639.83184   -2449.6512    3610.4701    234260.18    10.472245    46.151087 
    9000    -3088.105    658.59766   -2429.5074    3716.3627    233565.63    10.472245    46.786493 
    9100   -3116.1935    649.95714   -2466.2364    3667.6056    225910.97    10.472245     47.50882 
    9200   -3096.4519    617.57457   -2478.8773    3484.8758    229119.25    10.472245    47.928769 
    9300   -3089.9954    634.24433   -2455.7511    3578.9407    231563.94    10.472245    48.119461 
    9400     -3096.37    628.22029   -2468.1497     3544.948    229815.34    10.472245    48.453076 
    9500   -3082.9896    629.93094   -2453.0586    3554.6009    231725.34    10.472245    49.179935 
    9600   -3079.3818    626.88887   -2452.4929     3537.435    233544.05    10.472245    49.899483 
    9700   -3106.8487    648.13167    -2458.717    3657.3047    228201.89    10.472245    50.551982 
    9800   -3114.2402    601.98803   -2512.2522    3396.9235    224634.75    10.472245    51.043352 
    9900   -3112.7389    619.22356   -2493.5153    3494.1808    225625.98    10.472245    51.537235 
   10000   -3097.1214    645.60103   -2451.5203    3643.0248    230686.22    10.472245    52.148933 
Loop time of 37.4111 on 1 procs for 10000 steps with 1372 atoms

Performance: 23.095 ns/day, 1.039 hours/ns, 267.300 timesteps/s
100.0% CPU use with 1 MPI tasks x no OpenMP threads

MPI task timing breakdown:
Section |  min time  |  avg time  |  max time  |%varavg| %total
---------------------------------------------------------------
Pair    | 23.245     | 23.245     | 23.245     |   0.0 | 62.13
Neigh   | 0.60881    | 0.60881    | 0.60881    |   0.0 |  1.63
Comm    | 0.20049    | 0.20049    | 0.20049    |   0.0 |  0.54
Output  | 0.0049222  | 0.0049222  | 0.0049222  |   0.0 |  0.01
Modify  | 13.276     | 13.276     | 13.276     |   0.0 | 35.49
Other   |            | 0.07668    |            |       |  0.20

Nlocal:    1372 ave 1372 max 1372 min
Histogram: 1 0 0 0 0 0 0 0 0 0
Nghost:    3547 ave 3547 max 3547 min
Histogram: 1 0 0 0 0 0 0 0 0 0
Neighs:    71839 ave 71839 max 71839 min
Histogram: 1 0 0 0 0 0 0 0 0 0

Total # of neighbors = 71839
Ave neighs/atom = 52.3608
Neighbor list builds = 205
Dangerous builds = 0
    
Total wall time: 0:00:37
