LAMMPS (3 Mar 2020)
Reading data file ...
  orthogonal box = (0 0 0) to (17.469 17.469 17.469)
  1 by 1 by 1 MPI processor grid
  reading atoms ...
  217 atoms
  read_data CPU = 0.00104122 secs
Reading potential file library.meam with DATE: 2012-06-29
Reading potential file LiSi.meam with DATE: 2020-11-07
1 atoms in group Li
Neighbor list info ...
  update every 1 steps, delay 10 steps, check yes
  max neighbors/atom: 2000, page size: 100000
  master list distance cutoff = 6
  ghost atom cutoff = 6
  binsize = 3, bins = 6 6 6
  2 neighbor lists, perpetual/occasional/extra = 2 0 0
  (1) pair meam/c, perpetual
      attributes: full, newton on
      pair build: full/bin/atomonly
      stencil: full/bin/3d
      bin: standard
  (2) pair meam/c, perpetual, half/full from (1)
      attributes: half, newton on
      pair build: halffull/newton
      stencil: none
      bin: none
Setting up Verlet run ...
  Unit style    : metal
  Current step  : 0
  Time step     : 0.00075
Per MPI rank memory allocation (min/avg/max) = 9.266 | 9.266 | 9.266 Mbytes
Step PotEng KinEng TotEng Temp Press Density c_msdli[4] 
       0   -951.06911    50.256344   -900.81276         1800    -114182.3    1.8918427            0 
     100   -918.54559    32.315223   -886.23036    1157.4141   -82607.147    1.8918427   0.12366453 
     200   -903.75174    42.804696   -860.94704     1533.109   -65990.321    1.8918427   0.29520304 
     300   -898.43957    52.801182   -845.63839    1891.1468    -55625.38    1.8918427  0.021734175 
     400   -903.81148    49.479776   -854.33171    1772.1861   -63327.053    1.8918427   0.12990102 
     500   -903.35858    42.186475   -861.17211    1510.9666   -67809.141    1.8918427   0.10439119 
     600   -901.72356    49.374784   -852.34877    1768.4257   -61020.446    1.8918427  0.095336532 
     700    -904.8994    54.395975   -850.50343    1948.2666   -65045.169    1.8918427   0.34196227 
     800   -905.53197     47.93896   -857.59301    1716.9997   -67887.282    1.8918427  0.086721057 
     900   -902.31987    49.552669   -852.76721    1774.7969    -62109.27    1.8918427  0.026134915 
    1000   -901.14839    48.649124   -852.49927    1742.4352   -62709.627    1.8918427   0.06796746 
    1100   -901.93336    46.298285   -855.63507    1658.2367   -64412.265    1.8918427   0.34184312 
    1200    -906.0863    50.535126   -855.55117    1809.9849    -64682.07    1.8918427   0.25788612 
    1300   -905.17627    54.762193   -850.41407    1961.3832   -63868.448    1.8918427   0.42930335 
    1334   -905.39787    53.384202   -852.01367    1912.0285   -64515.507    1.8918427    0.1652923 
Loop time of 0.735452 on 1 procs for 1334 steps with 217 atoms

Performance: 117.538 ns/day, 0.204 hours/ns, 1813.851 timesteps/s
100.0% CPU use with 1 MPI tasks x no OpenMP threads

MPI task timing breakdown:
Section |  min time  |  avg time  |  max time  |%varavg| %total
---------------------------------------------------------------
Pair    | 0.72127    | 0.72127    | 0.72127    |   0.0 | 98.07
Neigh   | 0          | 0          | 0          |   0.0 |  0.00
Comm    | 0.0059008  | 0.0059008  | 0.0059008  |   0.0 |  0.80
Output  | 0.00043188 | 0.00043188 | 0.00043188 |   0.0 |  0.06
Modify  | 0.0059376  | 0.0059376  | 0.0059376  |   0.0 |  0.81
Other   |            | 0.001907   |            |       |  0.26

Nlocal:    217 ave 217 max 217 min
Histogram: 1 0 0 0 0 0 0 0 0 0
Nghost:    950 ave 950 max 950 min
Histogram: 1 0 0 0 0 0 0 0 0 0
Neighs:    3702 ave 3702 max 3702 min
Histogram: 1 0 0 0 0 0 0 0 0 0
FullNghs:  7404 ave 7404 max 7404 min
Histogram: 1 0 0 0 0 0 0 0 0 0

Total # of neighbors = 7404
Ave neighs/atom = 34.1198
Neighbor list builds = 0
Dangerous builds = 0
Total wall time: 0:00:00
