LAMMPS (3 Mar 2020)

# ---------- 1. Initialize simulation ----------
units metal
atom_style atomic
dimension 3
boundary p p p
read_data /home/modeler/RemLabs/Project/arrhenius_2/T1800.0/n3_T1800.0_timestep3.000000e-03_eqsteps3200_time300_rseed3322/20201205-073258/lammps.data
  orthogonal box = (0 0 0) to (17.469 17.469 17.469)
  1 by 1 by 1 MPI processor grid
  reading atoms ...
  217 atoms
  read_data CPU = 0.00104897 secs

pair_style meam/c
pair_coeff * * library.meam Li Si LiSi.meam Li Si
Reading potential file library.meam with DATE: 2012-06-29
Reading potential file LiSi.meam with DATE: 2020-11-07

group Li type 1
1 atoms in group Li
group Si type 2
216 atoms in group Si

velocity all create 1800.0 3322 dist gaussian

# ---------- 2. Specify equilibration ensemble  ----------
fix 1 all npt temp 1800.0 1800.0 0.15 tchain 2 iso 1.0 1.0 1.0 pchain 2
# fix 1 all nvt temp 1800.0 1800.0 0.15

# ---------- 3. Run equilibration -------------
timestep 0.003
run 3200
Neighbor list info ...
  update every 1 steps, delay 10 steps, check yes
  max neighbors/atom: 2000, page size: 100000
  master list distance cutoff = 6
  ghost atom cutoff = 6
  binsize = 3, bins = 6 6 6
  2 neighbor lists, perpetual/occasional/extra = 2 0 0
  (1) pair meam/c, perpetual
      attributes: full, newton on
      pair build: full/bin/atomonly
      stencil: full/bin/3d
      bin: standard
  (2) pair meam/c, perpetual, half/full from (1)
      attributes: half, newton on
      pair build: halffull/newton
      stencil: none
      bin: none
Per MPI rank memory allocation (min/avg/max) = 8.895 | 8.895 | 8.895 Mbytes
Step Temp E_pair E_mol TotEng Press Volume 
       0         1800   -951.04357            0   -900.78722   -114161.75    5330.9442 
    3200     1769.234   -939.86743            0   -890.47008    9279.5582    4628.5066 
Loop time of 2.25808 on 1 procs for 3200 steps with 217 atoms

Performance: 367.321 ns/day, 0.065 hours/ns, 1417.133 timesteps/s
99.9% CPU use with 1 MPI tasks x no OpenMP threads

MPI task timing breakdown:
Section |  min time  |  avg time  |  max time  |%varavg| %total
---------------------------------------------------------------
Pair    | 2.1563     | 2.1563     | 2.1563     |   0.0 | 95.49
Neigh   | 0.05265    | 0.05265    | 0.05265    |   0.0 |  2.33
Comm    | 0.014999   | 0.014999   | 0.014999   |   0.0 |  0.66
Output  | 2.48e-05   | 2.48e-05   | 2.48e-05   |   0.0 |  0.00
Modify  | 0.029244   | 0.029244   | 0.029244   |   0.0 |  1.30
Other   |            | 0.00484    |            |       |  0.21

Nlocal:    217 ave 217 max 217 min
Histogram: 1 0 0 0 0 0 0 0 0 0
Nghost:    957 ave 957 max 957 min
Histogram: 1 0 0 0 0 0 0 0 0 0
Neighs:    4103 ave 4103 max 4103 min
Histogram: 1 0 0 0 0 0 0 0 0 0
FullNghs:  8206 ave 8206 max 8206 min
Histogram: 1 0 0 0 0 0 0 0 0 0

Total # of neighbors = 8206
Ave neighs/atom = 37.8157
Neighbor list builds = 89
Dangerous builds = 2

# ---------- 4. Describe computed properties----------
compute msdli Li msd
compute msdsi Si msd
thermo_style custom step pe ke etotal temp press density c_msdli[4] c_msdsi[4]
thermo 100

# ---------- 3. Run production -------------
timestep 0.003
run 100000
Per MPI rank memory allocation (min/avg/max) = 9.664 | 9.664 | 9.664 Mbytes
Step PotEng KinEng TotEng Temp Press Density c_msdli[4] c_msdsi[4] 
    3200   -939.86743    49.397351   -890.47008     1769.234    9279.5582    2.1789551            0 8.8503614e-32 
    3300    -941.8914    48.615758   -893.27564    1741.2401   -8264.9012    2.1440868   0.17251197   0.13848562 
    3400   -934.98588     51.98975   -882.99613    1862.0843   -896.21279    2.1456774  0.045223198   0.13419852 
    3500   -940.81551    51.982385   -888.83313    1861.8205    10701.463    2.1833253   0.60367141   0.13998848 
    3600    -941.7785    48.764505   -893.01399    1746.5677   -5711.9161    2.1477826   0.41283119   0.14234695 
    3700   -939.13763    51.610329    -887.5273    1848.4948   -6099.7953    2.1446832    0.2828374   0.12438319 
    3800   -937.77669    54.591207   -883.18548     1955.259    9064.8588    2.1806029  0.057132606   0.13491058 
    3900   -941.10177    47.116202   -893.98557    1687.5315    911.32376    2.1700489    0.1528505   0.15717747 
    4000    -941.1887    49.566293   -891.62241    1775.2849   -14016.509    2.1332708   0.23853118     0.131733 
    4100    -938.4125    52.478443   -885.93405    1879.5875    5026.6385    2.1719354   0.10000137   0.14817332 
    4200   -943.20803    48.447854   -894.76017    1735.2264    7639.6926    2.1870408   0.24893746   0.11829598 
    4300   -939.20472     45.14132    -894.0634    1616.7984   -8728.8789    2.1387228  0.071545894   0.15917271 
    4400   -938.07982    50.228703   -887.85112      1799.01    1068.0722    2.1617076  0.049193012   0.15972473 
    4500   -939.87302     51.09716   -888.77586     1830.115    7543.4857    2.1828537    1.5380756     0.178273 
    4600   -941.85221    44.989864   -896.86234    1611.3738   -5682.4665    2.1544509    5.5748589   0.17699614 
    4700   -944.38409    50.602926   -893.78116    1812.4133   -4220.2168    2.1569181    7.1808784    0.1693586 
    4800   -940.35212    52.944515   -887.40761    1896.2805    8104.3264      2.17885    3.7813305   0.17018765 
    4900   -939.13403    48.988772   -890.14525    1754.6001   -4474.3489    2.1448742    5.5032496   0.17475789 
    5000   -943.46611    47.389217    -896.0769    1697.3099   -7259.5664    2.1501049    6.2578479   0.15913183 
    5100    -941.5309    46.964186   -894.56671    1682.0868    11323.135    2.1908469    6.8220165   0.15920493 
    5200   -934.22227    46.816964    -887.4053    1676.8139    551.35013    2.1500839    12.558651    0.1850894 
    5300   -935.73569    45.886328   -889.84936    1643.4819   -7132.9436    2.1288488    11.036906   0.16480568 
    5400   -941.03731    53.335953   -887.70136    1910.3004    9161.1443    2.1812778    15.340955   0.13680195 
    5500    -934.6088    58.300392    -876.3084    2088.1086    658.07631    2.1434244    18.865268   0.14445442 
    5600   -939.95659    52.806161   -887.15043    1891.3252   -4351.7089    2.1455163    18.263147   0.13652768 
    5700   -941.88007    51.662305   -890.21776    1850.3564   -338.92442    2.1627836    17.324224   0.14187954 
    5800   -946.54856    55.396169   -891.15239    1984.0899    319.73874    2.1705272    16.885303   0.13232657 
    5900   -934.79106    52.783048   -882.00801    1890.4973   -1142.0651    2.1436734    17.531782   0.13447602 
    6000   -938.95084    54.370923   -884.57992    1947.3693   -2753.4205    2.1496322    14.394712   0.15725645 
    6100   -942.10326     51.43494   -890.66832     1842.213   -2786.1731    2.1574129    16.164323   0.12701938 
    6200   -940.37573    49.557533   -890.81819    1774.9711    3284.3342    2.1692493    15.022826   0.13402455 
    6300   -931.78493    50.586478   -881.19845    1811.8242    3302.5889    2.1458234    16.043639   0.15706671 
    6400   -938.62738    53.131364   -885.49601    1902.9728   -3275.3644    2.1451435     17.31226   0.14747165 
    6500    -942.2084     51.72546   -890.48294    1852.6184   -3361.7893    2.1520443    15.685045   0.14599417 
    6600   -942.93445    56.145713   -886.78874    2010.9358    3961.7217    2.1715395    18.904729   0.14407156 
    6700   -935.19842    55.312586   -879.88583    1981.0962    -4340.328    2.1330661    15.773288   0.14606652 
    6800   -939.71898    48.030906   -891.68807    1720.2929   -329.19427    2.1590258    14.110807   0.14838559 
    6900   -942.88527    52.203511   -890.68176    1869.7404    2056.8552    2.1715145    15.746384   0.14198423 
    7000   -940.77087     51.58422   -889.18665    1847.5597   -2892.8176    2.1537487    13.364437   0.14177417 
    7100   -934.65403    54.995214   -879.65882    1969.7291   -3831.3384    2.1356453    16.438269   0.15776456 
    7200   -940.80541    54.258818   -886.54659    1943.3541    2874.7222    2.1638652    14.993164   0.13283371 
    7300   -938.36582    48.305817      -890.06    1730.1392   -447.51585    2.1527495    17.157953    0.1304156 
    7400    -938.7169     48.17863   -890.53827    1725.5838    219.18125    2.1574198    16.477706   0.13866291 
    7500   -946.32036    56.272886   -890.04747    2015.4907   -695.80966    2.1697378    16.979849    0.1387742 
    7600   -936.21866    58.148943   -878.06972    2082.6843   -5804.5053    2.1250896    17.347624   0.13708818 
    7700   -937.26838    49.986036   -887.28235    1790.3185    3588.8381    2.1624146    13.001206   0.13663817 
    7800   -937.66146     47.45756    -890.2039    1699.7577    4543.4177    2.1664408    15.187058   0.13377122 
    7900   -939.76201    46.666634   -893.09538    1671.4296   -6465.9681    2.1456772    15.713062   0.13377521 
    8000   -943.72237    57.420705   -886.30166    2056.6014    83.050945    2.1665852    15.992922   0.13497738 
    8100   -937.30289    53.685473   -883.61742    1922.8189    5182.8005    2.1634043    15.743213   0.13863256 
    8200   -940.79588    49.874895   -890.92099    1786.3379   -10956.804    2.1333321    18.802424   0.14163896 
    8300   -942.56317    51.529124   -891.03404    1845.5864    1742.9779    2.1694134     15.94532   0.13972398 
    8400   -939.28774    52.476431   -886.81131    1879.5154    13304.279    2.1896101    17.110284   0.13790176 
    8500   -936.61638     53.85687   -882.75951    1928.9578   -12908.541    2.1142699    17.247701   0.14782869 
    8600   -940.94894     48.70467   -892.24427    1744.4247   -635.90509    2.1578484    17.353447   0.14010267 
    8700   -939.65105    50.019231   -889.63182    1791.5075    11413.801    2.1837621    16.313807   0.13486641 
    8800   -941.66536    56.110347   -885.55502    2009.6691    -7156.014    2.1425903    18.934001   0.13555424 
    8900   -935.34951    54.006655   -881.34285    1934.3225   -7696.0088    2.1298549    19.733575   0.13870949 
    9000   -944.72569    52.688443   -892.03725     1887.109    8234.1501     2.189739    14.529266   0.12732889 
    9100    -941.5279    51.241464   -890.28644    1835.2834   -2302.1933     2.159757    18.504907   0.13396553 
    9200   -940.45282    51.378404   -889.07441    1840.1881   -7657.7812    2.1424803    16.201256   0.15150752 
    9300   -944.22904    44.402831   -899.82621    1590.3484    5610.4758    2.1867406    15.505289   0.13495683 
    9400   -942.09796    48.234643   -893.86332      1727.59    2045.2535    2.1660323    15.383699   0.13901595 
    9500   -939.16116    49.578133   -889.58302    1775.7089   -673.88712    2.1530727    16.824725   0.14846435 
    9600   -939.80692    50.077412   -889.72951    1793.5913   -373.30609    2.1604071    15.430052   0.13093682 
    9700   -944.97248    45.439219   -899.53326     1627.468    4061.9967    2.1857775    16.070314    0.1386048 
    9800   -941.59858    51.045487   -890.55309    1828.2642   -6882.0169    2.1416158    16.517332   0.14519439 
    9900   -939.55738    50.341532   -889.21584    1803.0511    1190.4198    2.1591124     13.95521   0.13800217 
   10000   -943.07379    51.319632   -891.75416    1838.0831     6976.575    2.1849587    15.959163   0.12947026 
   10100   -945.50674    44.885346   -900.62139    1607.6303   -7642.0464    2.1513654    15.561613   0.12800505 
   10200   -942.26554    50.761569   -891.50397    1818.0953   -10119.373      2.13822    16.381262   0.13281542 
   10300   -939.78397     52.54087    -887.2431    1881.8234    18403.293    2.2030668    16.474899   0.13395133 
   10400   -943.79086    50.870088   -892.92077    1821.9821   -4940.5251    2.1538394    14.816901   0.12418812 
   10500   -937.83003     51.94328   -885.88675    1860.4199   -10113.601    2.1261946    16.978476   0.13876393 
   10600    -937.1781    53.982939   -883.19516    1933.4731    5964.1453    2.1694445    15.538349   0.15682668 
   10700   -941.08093    51.209434   -889.87149    1834.1362    1071.5364    2.1647156    17.079607    0.1421258 
   10800   -939.15755    46.859403   -892.29814    1678.3339   -4621.2603     2.147432    15.815807   0.13883283 
   10900   -937.49376    52.349998   -885.14376    1874.9871    5793.0174    2.1645363    16.301796   0.15081098 
   11000   -936.61931    52.460613    -884.1587    1878.9489    1618.4366    2.1551729    16.190168    0.1541585 
   11100   -940.22979    47.945192    -892.2846    1717.2229   -5558.8965    2.1481217    15.160325   0.14860141 
   11200   -940.04062    50.514139   -889.52648    1809.2333    2950.4211    2.1680244    15.178423   0.12654984 
   11300    -936.3128    55.112352   -881.20045    1973.9246    4945.9084    2.1567958    17.153136   0.14447267 
   11400   -939.19975    49.785136   -889.41461     1783.123   -6226.3928    2.1428519    16.432195   0.15608636 
   11500   -941.21909    49.256847   -891.96224    1764.2016   -5398.2875     2.152722    16.249624   0.15154298 
   11600   -935.15166    48.199075   -886.95259    1726.3161    13393.808    2.1863476    14.535436   0.16701366 
   11700   -941.12631    51.977236   -889.14907    1861.6361   -6981.9513    2.1451986    17.772948   0.13713012 
   11800   -943.16195     45.92829   -897.23366    1644.9848   -5391.9635    2.1536583    17.234366   0.12405236 
   11900   -941.17185    51.097124   -890.07472    1830.1137    10582.011    2.1911417    15.482377   0.14478915 
   12000   -937.83555    49.315667   -888.51988    1766.3083   -646.82839     2.155669    18.232586   0.15716972 
   12100   -935.93758    47.417094   -888.52049    1698.3084   -14440.366    2.1178636    19.225584    0.1519927 
   12200   -948.93255     51.77142   -897.16114    1854.2645    12523.406    2.2112811    16.778207   0.12852581 
   12300   -939.01637    50.733084   -888.28329    1817.0751    8236.2751    2.1783698     15.13774   0.14945483 
   12400   -940.25543    50.035577   -890.21985    1792.0929   -14387.944    2.1239043    15.597251   0.15268074 
   12500   -940.40379    50.221912   -890.18187    1798.7667    3447.1546    2.1680545    16.576956   0.14070877 
   12600   -944.31527    43.557336   -900.75794    1560.0658    5883.3845     2.188132    14.792323   0.13857565 
   12700   -940.71234    46.853414   -893.85892    1678.1194   -6223.9615    2.1490074    19.183575   0.14205552 
   12800   -936.68817    46.704494   -889.98368    1672.7856    5040.5045    2.1658896    16.933848   0.13238984 
   12900   -943.57818    54.044435   -889.53375    1935.6757    1611.8426    2.1699217    15.785578   0.12932962 
   13000   -940.21608    45.550714   -894.66537    1631.4614   -4553.8943    2.1473117    16.030483   0.13491747 
   13100   -944.94115    46.674496   -898.26666    1671.7112    1664.4162     2.175743    14.887373   0.13883207 
   13200   -938.62623    48.348696   -890.27753    1731.6749    9164.3699    2.1765597    13.448881   0.14590818 
   13300    -938.5813    48.776904   -889.80439    1747.0118   -6062.0225    2.1424682    16.270528   0.14067299 
   13400   -936.87284    49.540511   -887.33233    1774.3614   -2072.8947    2.1478999    18.139252   0.13366666 
   13500   -937.23821    47.477749   -889.76046    1700.4808     11163.47    2.1816331    17.281699   0.14669484 
   13600   -943.95563    47.010448   -896.94518    1683.7438    -877.7998    2.1691105    17.467839   0.13182511 
   13700   -940.68895    47.481781   -893.20717    1700.6252   -1942.8262    2.1550272    17.498879   0.13830671 
   13800   -945.03983    55.434234    -889.6056    1985.4532   -45.263257    2.1686226    15.467539   0.13144186 
   13900   -941.16411    52.929143   -888.23497      1895.73    847.65319    2.1625155     16.07357   0.15184156 
   14000   -946.23456     48.29609   -897.93847    1729.7908   -8506.2974     2.153521    16.711825   0.14443133 
   14100   -942.32296    46.942062    -895.3809    1681.2944   -1449.0176    2.1623562    18.214323   0.14085858 
   14200   -939.22054    50.413692   -888.80685    1805.6356     13451.56    2.1889311    15.696851   0.13633742 
   14300   -943.87206    53.448318   -890.42374    1914.3249   -9920.2778    2.1414834    18.240398   0.14449479 
   14400     -938.906    47.075033   -891.83096     1686.057   -8738.6829    2.1333169    17.322667    0.1459457 
   14500   -946.09875    47.731259   -898.36749    1709.5606    20115.556    2.2249282    14.149992    0.1364596 
   14600    -942.3118    52.716703    -889.5951    1888.1211   -1422.6275    2.1596861    15.149421   0.14359891 
   14700    -936.9141    46.599323   -890.31478    1669.0187   -9939.0279    2.1343211    15.091572   0.16124663 
   14800   -941.48528    51.528127   -889.95716    1845.5506    5015.4833    2.1771036      14.8072   0.14407309 
   14900   -934.51249     53.51562   -880.99687    1916.7354    7214.5245     2.163787    16.439067   0.16992518 
   15000   -936.44596    53.140253   -883.30571    1903.2911   -9250.7273    2.1319115    16.915084   0.14753129 
   15100   -942.68236     52.44375   -890.23861    1878.3449   -2790.9661     2.155294    18.504079   0.14257768 
   15200   -941.40836    50.614018   -890.79434    1812.8106    7436.6752    2.1822051    16.345296   0.14974912 
   15300   -937.02683    48.778395   -888.24844    1747.0652   -1960.8209     2.152262    15.951374    0.1670587 
   15400   -934.99205    53.463872   -881.52818     1914.882   -9933.6528    2.1230206    16.543402   0.14892732 
   15500   -943.08504    52.900375   -890.18467    1894.6996    7854.7832    2.1853256    15.211638    0.1476008 
   15600   -941.10544    50.340001   -890.76544    1802.9963    2763.0458    2.1740976    13.497957   0.14300219 
   15700   -933.30057    48.487705   -884.81286    1736.6537   -7415.5177    2.1313293    17.328684   0.16489752 
   15800   -934.24267    53.346597   -880.89607    1910.6817    1384.6841    2.1528604    17.324187   0.16561944 
   15900   -943.15888    52.653471   -890.50541    1885.8564    7313.1496     2.187496    18.157056   0.13771011 
   16000   -941.19236    50.749671   -890.44269    1817.6692   -5459.1325    2.1493206    15.373468   0.13049401 
   16100   -940.63375    53.851256    -886.7825    1928.7567    -4678.657    2.1510704    15.997054    0.1545915 
   16200   -936.52138    54.253667   -882.26771    1943.1696    4150.0099    2.1666099    15.455782   0.15147317 
   16300   -930.43781    56.988071   -873.44974     2041.106   -7863.9403    2.1177121    13.986246   0.15955382 
   16400   -939.71716    54.671617   -885.04555    1958.1391    677.38716    2.1571323    13.970382   0.13952336 
   16500   -941.72885    54.036665   -887.69218    1935.3974    1373.3661    2.1684347    6.8585987   0.17188994 
   16600   -938.72564    48.619494   -890.10615     1741.374   -3165.4952    2.1509263     5.182152   0.17411876 
   16700   -943.35324    47.712327   -895.64092    1708.8825     -3408.25    2.1581598    2.6482196   0.16782338 
   16800   -942.76592    46.944753   -895.82117    1681.3908    9893.9758    2.1911239    7.0248606   0.16215588 
   16900   -937.06175    48.882325   -888.17943    1750.7876   -545.16431    2.1507185    6.2867029   0.17983909 
   17000   -939.94324    50.309831   -889.63341    1801.9157    -7474.188    2.1378739    4.7196643   0.15906306 
   17100   -936.35671    46.889063   -889.46764    1679.3962    9150.4395     2.180025    10.779292   0.14770364 
   17200   -936.79819    59.099291    -877.6989    2116.7223    -4443.944    2.1347821    5.1807539   0.16717328 
   17300   -939.91858    54.133452   -885.78513    1938.8639   -4240.5409    2.1491728    2.4360484   0.16562801 
   17400   -938.79134    49.751012   -889.04032    1781.9008    3732.1138    2.1670956    9.6419427   0.16193503 
   17500   -937.71468    46.400658   -891.31402    1661.9033      2791.34    2.1584607    6.2565468   0.16108326 
   17600   -935.48013    54.762875   -880.71726    1961.4076   -3091.5058    2.1404234    4.9058099   0.17269942 
   17700   -935.00578    49.991804   -885.01397    1790.5251    4493.6744    2.1657268    13.413926   0.15278672 
   17800   -941.54725    51.277615   -890.26964    1836.5782   -8911.6684     2.142423    19.411208   0.15029602 
   17900    -937.1578    48.713593   -888.44421    1744.7442   -1042.3851    2.1541126    18.539586   0.15797301 
   18000   -935.18285    57.541631   -877.64122    2060.9325    7390.7629    2.1639101      17.0353    0.1708443 
   18100    -938.9494    52.262851   -886.68655    1871.8658   -1214.7232    2.1544838    18.528719   0.15890957 
   18200   -938.16558    47.315422   -890.85016    1694.6668   -7433.9022    2.1348706    20.391228   0.15507618 
   18300   -937.20897     51.35854   -885.85043    1839.4767    5379.2451    2.1693662    3.9427658   0.16629464 
   18400   -937.59479    58.484264   -879.11052    2094.6943    2516.4108    2.1555996    16.711384   0.15640956 
   18500   -943.62841    53.076082   -890.55233    1900.9928    -10786.95    2.1442869    12.480728   0.16148384 
   18600   -939.65652    49.861223    -889.7953    1785.8482    -1848.245    2.1561251    6.2760071   0.17009918 
   18700   -939.61158    52.118743   -887.49284    1866.7044      7752.89    2.1772188    5.1183051   0.15857936 
   18800   -938.54756     53.04036    -885.5072    1899.7133   -3664.2413    2.1452832    8.1441705   0.15882188 
   18900   -931.24111    57.516898   -873.72421    2060.0467   -10396.846    2.1145987    19.279579   0.15045792 
   19000   -941.21104    57.289328   -883.92172     2051.896    11357.608     2.193466     11.68944   0.16005456 
   19100   -938.52462    50.919745   -887.60487    1823.7606   -45.076694    2.1581509    7.3766824   0.17933915 
   19200   -941.96553    49.622145   -892.34338    1777.2853   -11134.434    2.1362253    6.8200402   0.17820822 
   19300   -940.23361    53.525763   -886.70785    1917.0987    6841.9855    2.1763565    6.4145651   0.18624489 
   19400   -931.55037     48.34005   -883.21032    1731.3653    5032.8911    2.1572513    8.3302875   0.18754927 
   19500   -938.93056    46.972763    -891.9578     1682.394   -4818.9614    2.1543092    5.4377032   0.17241124 
   19600   -940.47127     51.95699   -888.51428     1860.911   -918.77875      2.15858    6.0433919   0.16759447 
   19700   -935.26647    53.443848   -881.82262    1914.1648    1363.8797    2.1539486    5.4890708   0.18090365 
   19800    -940.4783    48.321937   -892.15636    1730.7165    1610.2065    2.1660141    5.0121417   0.17116002 
   19900   -939.80776     48.77613   -891.03163    1746.9841   -2146.5294     2.148752    6.8774277   0.15225304 
   20000    -936.9959    52.019863   -884.97603    1863.1629    5148.9934    2.1624141    6.1283629    0.1685089 
   20100   -942.01204    49.476431   -892.53561    1772.0663    421.59409    2.1656461    5.0055087   0.17331896 
   20200    -941.4646    47.967591   -893.49701    1718.0252   -4548.3275    2.1523173    4.5788963   0.15243745 
   20300   -938.19339    51.361682    -886.8317    1839.5892    3425.9775    2.1677391    6.9574916   0.16073769 
   20400   -939.03234      48.0358   -890.99654    1720.4681    4226.8455    2.1680687    6.2045646   0.16911314 
   20500    -942.0272    45.576449   -896.45075    1632.3831   -5976.3621    2.1571912    3.4481588   0.16184352 
   20600   -939.70118     52.62381   -887.07737     1884.794    -2545.364    2.1555463    5.0786864   0.16120474 
   20700    -937.3124    49.503211   -887.80919    1773.0255    11542.442    2.1878769    6.6156841   0.15940809 
   20800   -941.92021    45.722669   -896.19755    1637.6202   -4569.8247    2.1555417    6.8551799   0.15492749 
   20900   -938.59872    51.227929   -887.37079    1834.7986   -10958.442    2.1291392    5.3594992   0.16039806 
   21000   -935.09993    50.626011   -884.47392    1813.2401    11959.897     2.179365    6.4471341    0.1703369 
   21100   -943.11244    50.581012   -892.53143    1811.6284    2558.1359    2.1702724     7.072708   0.15382124 
   21200   -936.99342     49.12091   -887.87251    1759.3329   -10817.071    2.1289939    7.1874151   0.18279502 
   21300   -938.25346    55.668557    -882.5849    1993.8458    1255.5289    2.1572272    9.9970646   0.17373957 
   21400   -944.99691     54.19757   -890.79934    1941.1604    8386.3342    2.1926147     13.89827   0.15329801 
   21500   -936.51902    46.957335   -889.56169    1681.8415   -7192.5258    2.1411941    4.5790319   0.19319094 
   21600   -937.07234    54.226418   -882.84592    1942.1936    -8087.645    2.1376466    6.4361711   0.18729645 
   21700   -942.35695    51.152186   -891.20477    1832.0858    7716.2451    2.1896017    8.6338634   0.20042283 
   21800   -938.93069    49.804299   -889.12639    1783.8094   -2444.5098    2.1582146    22.386622   0.16272723 
   21900   -933.58518    49.805211   -883.77997    1783.8421   -5248.4616    2.1287977    19.799902   0.17770216 
   22000   -945.18562    52.369397   -892.81622    1875.6819    3084.3243    2.1779679    20.686306   0.15252292 
   22100   -940.51744    48.720577   -891.79686    1744.9944    3708.8088    2.1687275    20.408653   0.13960817 
   22200   -942.02642    57.416329   -884.61009    2056.4447    -8663.233    2.1370231    22.820028    0.1481431 
   22300   -942.29684    47.886635    -894.4102    1715.1256     1974.737    2.1690802    23.466856   0.14529798 
   22400   -935.92655    44.072562   -891.85399    1578.5193    4946.8093     2.166533    24.688164    0.1613402 
   22500   -938.38392    52.562108   -885.82181    1882.5841   -1704.8388    2.1466341    25.218891   0.15727008 
   22600   -946.22779     51.40989    -894.8179    1841.3158   -2053.6338     2.162948    23.617903   0.12670149 
   22700   -941.85583    49.158735   -892.69709    1760.6876    1291.9146    2.1691217    21.003093   0.14221278 
   22800   -937.96325    51.922152    -886.0411    1859.6632     131.5899    2.1535011    21.602625   0.14723995 
   22900   -945.13603    51.115346   -894.02069    1830.7663   -6371.8995    2.1554991    23.619295   0.13861429 
   23000    -945.3086    51.515258   -893.79334    1845.0897    -593.2972    2.1682082    24.191131   0.13462475 
   23100   -940.26803    55.320057   -884.94797    1981.3638      1935.45    2.1652739     29.32138   0.15727393 
   23200   -937.55982    47.236441   -890.32338     1691.838   -2684.1838    2.1433883    30.995803   0.18383036 
   23300   -943.28689    47.001941   -896.28495    1683.4391   -861.40627    2.1629416    27.382802   0.16270516 
   23400   -939.77148    53.364153   -886.40732    1911.3105    9304.0619    2.1765502    30.278196   0.17861412 
   23500    -936.1261    48.670454   -887.45565    1743.1991    -773.5703    2.1485273    24.081328   0.15828673 
   23600   -943.92552    50.707017   -893.21851    1816.1415    -8456.989    2.1411459    18.991191   0.13753312 
   23700   -940.57686    50.574204   -890.00266    1811.3846    9178.2721    2.1755998     18.24185   0.14950665 
   23800   -934.70895    50.982521   -883.72642     1826.009    5972.7901    2.1624131    12.756504    0.1688856 
   23900   -940.12495    48.915444   -891.20951    1751.9738   -12067.497    2.1292486    20.137478   0.13366298 
   24000     -941.036    49.222174   -891.81382    1762.9598    4639.6739    2.1719907    16.103193   0.12778831 
   24100   -933.92688    52.630823   -881.29605    1885.0452    9847.8558    2.1718796    18.129243   0.14767511 
   24200   -941.19938    53.691262   -887.50812    1923.0263   -7497.5557    2.1396935    18.635556   0.14293794 
   24300   -941.64379    48.662648   -892.98114    1742.9196   -3795.2281    2.1506437    16.771788   0.12994471 
   24400   -936.14022    48.849178   -887.29104    1749.6004    9709.1186    2.1800807    14.665863   0.14489521 
   24500   -934.52813    49.348563   -885.17957    1767.4866   -734.40266    2.1454143    15.953998   0.15896729 
   24600   -941.71937    46.755942   -894.96343    1674.6283   -1207.1426    2.1577309    15.442666    0.1438974 
   24700   -939.13274    49.655339    -889.4774    1778.4742    4796.0056    2.1710418    14.842575   0.15838057 
   24800   -934.44779    48.043479   -886.40431    1720.7432     1860.173    2.1568031    16.295055   0.15832397 
   24900   -945.08367    48.092556   -896.99112     1722.501    -2368.029    2.1644355     14.46193   0.13542288 
   25000   -944.20575    51.922625   -892.28313    1859.6801   -2303.3806    2.1614732     15.75944   0.13985194 
   25100   -938.43309    51.182996    -887.2501    1833.1893    3091.8093    2.1631892     16.96169   0.15197903 
   25200   -941.25294    46.471258   -894.78168    1664.4319   -658.66922    2.1640449    16.277334   0.13592643 
   25300   -943.61072    49.027518    -894.5832    1755.9879    322.31891    2.1661148    17.710882   0.12464007 
   25400   -940.02915    52.965152     -887.064    1897.0197    3060.8898    2.1600901    17.099773   0.15174831 
   25500   -943.73693    51.635897   -892.10103    1849.4106   -3989.9948    2.1559328    14.580354   0.14971639 
   25600   -947.16083    50.700136   -896.46069     1815.895   -2637.1498    2.1702962    14.866941   0.13584196 
   25700   -937.29387    51.675709   -885.61816    1850.8365   -202.72337    2.1524044    19.587257   0.16286242 
   25800   -938.32689    48.702942   -889.62395    1744.3628    1753.8031    2.1654449    17.543588   0.14597152 
   25900   -944.30436    50.559069   -893.74529    1810.8425   -60.501616    2.1711074      19.2301   0.14293005 
   26000   -935.90391    52.141935   -883.76198     1867.535   -1838.1963    2.1448598    18.028672   0.15835316 
   26100   -940.45636     53.65078   -886.80558    1921.5764    2053.8743    2.1668203    19.458653   0.14781942 
   26200   -941.05715    49.012301   -892.04484    1755.4429   -117.78131    2.1639861    16.027939   0.15593938 
   26300   -937.33377    49.142448   -888.19132    1760.1043   -3875.5625    2.1475779    16.135449   0.15203555 
   26400   -937.32099    55.352511   -881.96848    1982.5262   -1213.0996    2.1478427    14.600975   0.15993713 
   26500   -943.60766    51.869532   -891.73812    1857.7785    4209.3275    2.1741355    16.437213   0.13757305 
   26600   -942.44059    51.680388    -890.7602    1851.0041   -5325.2764    2.1518805    15.668462   0.13998693 
   26700   -935.68851    51.904529   -883.78398     1859.032   -4671.0628    2.1382664    15.495696   0.15838284 
   26800    -942.3196    48.156832   -894.16277    1724.8031     7951.873    2.1824447    15.200352   0.12000391 
   26900   -943.08089    50.470481   -892.61041    1807.6696   -4917.2946    2.1521518    14.541869   0.14357842 
   27000   -942.43634    53.929377   -888.50696    1931.5547   -5048.1414     2.146905    17.235916    0.1527125 
   27100   -941.97968    52.389747   -889.58993    1876.4108    4402.6538    2.1743088    15.243317   0.13991655 
   27200   -941.66813     44.27259   -897.39554    1585.6836    4774.5476    2.1785568     16.41554   0.14581864 
   27300   -939.43649    48.967908   -890.46858    1753.8529   -9089.1565    2.1340627    16.981172   0.15023739 
   27400   -939.06035    50.648916   -888.41144    1814.0605    1055.3883    2.1593971    17.578842   0.15406715 
   27500   -941.87816    46.363003   -895.51515    1660.5546    12638.489     2.196275    15.517192   0.13139045 
   27600   -939.00585    43.906773   -895.09907    1572.5814    -6046.612    2.1429575    18.986523   0.14302902 
   27700   -939.87772    50.951839   -888.92588    1824.9101   -6452.5122    2.1420311    15.541427   0.12994533 
   27800   -940.46601    50.969077   -889.49693    1825.5275    11256.483    2.1862016    12.189464   0.13605276 
   27900   -944.33898    50.675823   -893.66316    1815.0242   -3186.0048     2.159595     17.51987    0.1519279 
   28000   -933.73358    51.952408   -881.78118    1860.7469   -10418.308    2.1170997     16.99005   0.14669452 
   28100   -938.76521    52.639369   -886.12585    1885.3513    13935.312    2.1912943    17.326118   0.14360812 
   28200   -943.94664    53.307692   -890.63895    1909.2882   -2526.4602    2.1578968    17.063131   0.13138489 
   28300   -937.37649     45.28142   -892.09507    1621.8163   -6598.2349    2.1355203    20.455708   0.13605643 
   28400    -935.4293    53.396768   -882.03253    1912.4786    8499.2267    2.1635023    15.631476   0.15827968 
   28500   -936.17731     50.68857   -885.48874    1815.4808    4712.9651    2.1563391    14.226352   0.17744091 
   28600   -943.21355    51.108361   -892.10518    1830.5161   -5998.4744    2.1511814    13.698487   0.15481026 
   28700   -938.89289    51.605606   -887.28729    1848.3256    2935.1121    2.1584078    15.636875   0.16463019 
   28800   -938.66119    57.083624   -881.57756    2044.5284   -1042.1351     2.150232    15.424251    0.1853266 
   28900   -939.60081    47.718167   -891.88265    1709.0917   -2582.5103    2.1555981    12.010603    0.1741922 
   29000   -939.24926    49.306946   -889.94232     1765.996   -3068.8546    2.1505049    13.935533   0.18436578 
   29100   -936.20763    53.193703   -883.01393    1905.2055    3859.0448    2.1570235    10.645609   0.15635534 
   29200    -942.2113    50.987003    -891.2243    1826.1695   -1670.3184    2.1564743    12.125767   0.16478188 
   29300   -941.73997    50.034451   -891.70552    1792.0526   -5203.3419    2.1466899    14.018774   0.17682349 
   29400   -936.02911    49.707999   -886.32111    1780.3602    7383.1583    2.1670967    11.100768   0.17042087 
   29500   -941.53755    48.576604   -892.96094    1739.8378   -140.76575    2.1667068    15.005641   0.17200604 
   29600   -942.10442    46.854565   -895.24986    1678.1606   -7768.0094    2.1442728    10.942878   0.17645836 
   29700   -939.38628    51.766341   -887.61994    1854.0826    3509.1697    2.1667559    11.181883   0.16335275 
   29800   -939.91768    51.356201   -888.56148    1839.3929     4624.682    2.1725649    13.595288   0.16944389 
   29900   -944.23992    47.028515   -897.21141    1684.3909   -12446.284    2.1437281    14.855984   0.15066458 
   30000   -940.50332    51.308284   -889.19504    1837.6767   -3962.8007    2.1530064    14.321957   0.16127838 
   30100   -940.05397     55.89735   -884.15662    2002.0404    14427.882    2.1905521    17.053283    0.1890094 
   30200   -943.15897    50.999476   -892.15949    1826.6163   -7276.0621    2.1467204    17.520954   0.19208177 
   30300   -938.69657    49.592079   -889.10449    1776.2084   -8216.4443    2.1381599    14.654558   0.19944498 
   30400   -935.31173    55.885943   -879.42579    2001.6318    9045.9262    2.1723108    13.095724   0.21032468 
   30500   -939.82132    50.637018    -889.1843    1813.6344    2386.1864    2.1648596    16.154883    0.1609675 
   30600   -941.35423    48.698003   -892.65623    1744.1859   -6751.1346    2.1460093    15.047679   0.14753319 
   30700   -937.80846    52.366137   -885.44232    1875.5651    4328.2755    2.1688996    14.588998   0.14502116 
   30800   -938.21358     52.34471   -885.86887    1874.7977    843.59304    2.1598654    16.665873   0.14349767 
   30900   -942.46951     49.11986   -893.34965    1759.2953   -2594.8078    2.1591577    15.617153   0.13294737 
   31000   -942.14357    53.066199   -889.07737    1900.6388   -1205.0067    2.1632271    14.117442   0.14966372 
   31100   -935.62479    51.989477   -883.63531    1862.0745    1652.4761    2.1551526    14.716495   0.16541882 
   31200    -941.6936    47.298191   -894.39541    1694.0497   -2172.6608    2.1599516    15.259135   0.15883837 
   31300   -943.87038    51.291271   -892.57911    1837.0673   -7024.7516    2.1496949    15.846102   0.14453998 
   31400   -939.41479    52.298489    -887.1163    1873.1422    7863.3912    2.1731986    14.489393   0.13449543 
   31500   -943.63783    49.935213   -893.70261    1788.4982   -886.82883     2.163394      17.4672   0.12243327 
   31600   -946.77504    49.637483   -897.13756    1777.8346   -9905.0593     2.148508     15.15025   0.13314874 
   31700   -941.36045    52.433917   -888.92653    1877.9927    6058.6522    2.1725031    15.089032   0.13050316 
   31800   -941.28739    51.985724   -889.30167    1861.9401    5327.8902    2.1695048     17.10182   0.12983043 
   31900   -943.25905    45.624587   -897.63447    1634.1072   -8991.6808    2.1382963    17.057128   0.15209795 
   32000   -943.65399    50.929005   -892.72499    1824.0923    133.65323     2.165283    17.473264   0.14116004 
   32100   -936.63768    50.997309   -885.64037    1826.5387    16980.193    2.1895347     16.91911   0.15190763 
   32200   -942.73432    50.180226   -892.55409    1797.2737   -13439.145    2.1264051    15.841662   0.15037317 
   32300   -942.85549    53.566821   -889.28867    1918.5693   -5465.0991    2.1455502    18.416945   0.13658867 
   32400   -936.33663    56.397507   -879.93912    2019.9542    8695.0802    2.1669191     18.01085   0.14370029 
   32500   -936.71847    47.706238   -889.01223    1708.6644    1257.0239    2.1557351    16.808146   0.15186282 
   32600   -942.64745    50.499225   -892.14822    1808.6991   -6100.5199    2.1511432    16.474022   0.14876831 
   32700   -938.52059    51.501745   -887.01885    1844.6058    4530.4579    2.1675471     15.24536   0.16658206 
   32800   -935.80239    52.858729   -882.94366     1893.208   -1846.9856     2.146973    13.682478   0.16750988 
   32900   -944.16444    51.879869   -892.28457    1858.1488   -3670.8989    2.1567074    14.886685   0.14386426 
   33000   -938.19101    48.271006   -889.92001    1728.8924    5847.9083    2.1694352      16.1221   0.15295247 
   33100   -933.90887    51.679789   -882.22908    1850.9826    3665.9631    2.1505292    17.063187   0.15501637 
   33200   -942.59283    52.187168   -890.40567    1869.1551   -6572.4174    2.1481018    17.375647   0.14246556 
   33300   -939.27635    47.133942   -892.14241    1688.1669   -434.26232    2.1572073    16.983224   0.15564416 
   33400    -939.2092    52.154397   -887.05481    1867.9813    6559.0801    2.1798755    14.770736   0.15682575 
   33500   -943.33591     53.53496   -889.80095    1917.4281   -6554.1835    2.1510035     15.10233    0.1543609 
   33600   -943.49258    46.614139   -896.87844    1669.5494   -4233.5996    2.1560792    16.936867   0.13342661 
   33700   -938.82637    49.403266   -889.42311    1769.4458    12109.096    2.1864426    16.310592   0.15026851 
   33800   -941.18228    52.430919   -888.75136    1877.8854   -2421.9942    2.1573224    16.216786   0.14692022 
   33900   -941.27448    47.586165   -893.68832    1704.3638   -15166.194    2.1272403    18.723101   0.14727849 
   34000    -945.4736    49.853851   -895.61975    1785.5841    9931.0308     2.201234     17.48467   0.13840821 
   34100   -939.25259    52.777719   -886.47487    1890.3065    4561.6842    2.1740294    17.715235   0.15847205 
   34200   -940.35054    49.608691   -890.74185    1776.8034   -14623.286    2.1263031    17.112654   0.16469434 
   34300   -942.22274    49.558432   -892.66431    1775.0033    3614.7866    2.1715927    14.954788    0.1573866 
   34400   -941.71231    52.951022   -888.76129    1896.5136    8668.4135    2.1828906     16.37182   0.13674559 
   34500    -936.1648    52.114678   -884.05012    1866.5588   -8783.0823     2.126592    15.816884   0.13569108 
   34600   -941.70942    50.775095   -890.93433    1818.5798   -3119.7819    2.1550025    16.477831    0.1414353 
   34700   -942.75954    52.338234   -890.42131    1874.5657    7568.3283    2.1845974    16.503639   0.13678349 
   34800   -938.05484    56.492505   -881.56234    2023.3567   -4393.5718    2.1432297    15.811419   0.15001039 
   34900   -936.35831     49.14373   -887.21458    1760.1502     -5079.24    2.1431285    20.127411   0.17645209 
   35000   -942.50968    51.418222   -891.09145    1841.6142    1624.3717     2.169787    18.995913   0.15933488 
   35100   -940.51657    51.884831   -888.63174    1858.3265    2614.0731    2.1716395    15.882239   0.15737686 
   35200   -932.81068    51.627998   -881.18269    1849.1277   -6186.4717    2.1348738    17.432251   0.18561638 
   35300   -944.43713    52.307215   -892.12991    1873.4547   -885.05284    2.1725547    16.813841   0.14450845 
   35400   -942.71009      51.1712   -891.53889    1832.7668   -773.21394    2.1651841    14.160899   0.15495916 
   35500   -939.44753    49.975535   -889.47199    1789.9424   -1918.3408     2.156748    16.825133   0.16563359 
   35600   -939.40711    56.137547   -883.26956    2010.6434    122.75494    2.1614182    16.111337   0.17659539 
   35700   -934.83971    55.231694   -879.60801     1978.199   -1989.4421    2.1447953    15.129165   0.17039316 
   35800   -940.12429    50.270239   -889.85405    1800.4977   -550.52391    2.1593541    17.002115   0.15592357 
   35900   -941.43771    51.466319   -889.97139    1843.3369    4888.8958    2.1775089    16.691315     0.152201 
   36000   -941.02381    49.594014    -891.4298    1776.2777    -3197.893    2.1570338    16.188091   0.14919585 
   36100   -933.38738    52.214452   -881.17293    1870.1323    -2681.631    2.1407218     18.10836   0.16677149 
   36200    -938.8184    54.567133   -884.25127    1954.3968     6166.794     2.173065    17.102488   0.15540934 
   36300   -941.15258    50.965492   -890.18708    1825.3991   -7256.4748    2.1472672    16.264032   0.13537824 
   36400   -939.51533    47.644114   -891.87121    1706.4394   -861.89461    2.1579985    17.526156   0.15223436 
   36500   -939.88054     46.61303   -893.26751    1669.5097    12531.688    2.1958465    17.125561   0.16209467 
   36600   -933.17193    51.847907   -881.32402     1857.004    -7969.637    2.1240454    17.723128   0.16541688 
   36700   -937.73243    49.523124   -888.20931    1773.7387    699.79821    2.1555288    14.844499   0.15244835 
   36800   -940.13234    49.963084   -890.16925    1789.4965    11906.866    2.1915321    17.377857   0.13552473 
   36900    -941.3859    46.184416   -895.20149    1654.1583   -5190.5591    2.1539137    15.483482   0.13141136 
   37000   -936.42522    50.821017    -885.6042    1820.2245   -3892.3752    2.1435315    17.666229   0.14496547 
   37100   -938.14997    52.523035   -885.62693    1881.1846    9689.8663    2.1826896    19.529057   0.14497794 
   37200    -939.3611    48.012221   -891.34888    1719.6236   -3524.4522    2.1512498    21.727644   0.17625797 
   37300   -940.36462    51.568006   -888.79661     1846.979   -6695.5664     2.144617    26.399028   0.17922077 
   37400   -929.48988    49.521669   -879.96821    1773.6866    7018.5185    2.1515338    23.077993   0.19368589 
   37500   -936.01662    46.449945   -889.56667    1663.6686    2646.0556    2.1649777    33.260633   0.18580649 
   37600   -941.67801      51.2266   -890.45141     1834.751   -3900.7195    2.1542233    27.121059   0.17294484 
   37700   -935.05948    53.096283    -881.9632    1901.7163    319.27667    2.1524248    30.676762   0.18696461 
   37800    -933.6203    45.710091    -887.9102    1637.1697    1328.8209    2.1556141     28.32459   0.19782315 
   37900   -940.58963    49.141791   -891.44784    1760.0807    -4360.933    2.1560104    24.137056   0.19703158 
   38000     -934.776    47.431635   -887.34437    1698.8291    4329.8092    2.1639965    29.138137    0.1816671 
   38100   -933.77889     51.24292   -882.53597    1835.3355    4094.6089    2.1566083      31.7654   0.18399652 
   38200   -940.68707    47.735411   -892.95166    1709.7093   -4070.7417    2.1508304    28.023716   0.16821513 
   38300   -939.36894    48.194547    -891.1744    1726.1539   -2183.8181    2.1558379    34.396174   0.16466873 
   38400   -940.04096    53.197674   -886.84328    1905.3478    7886.6745     2.176429    24.456833   0.16988168 
   38500   -940.84675    50.765512   -890.08124    1818.2365   -3212.6359    2.1509772    23.644602    0.1614139 
   38600   -944.64229    46.236852   -898.40544    1656.0363   -6195.7335    2.1562056    24.440567   0.15226209 
   38700   -942.48303    52.833284   -889.64974    1892.2966    5691.2454    2.1835031    22.731767   0.16174341 
   38800    -940.4343    52.730898   -887.70341    1888.6296    2449.9511    2.1593294    26.290116   0.16054899 
   38900     -939.399    47.881022   -891.51798    1714.9246    -12512.55    2.1229957    34.990386    0.1747247 
   39000   -942.52378    47.348912   -895.17486    1695.8663     14670.44    2.2032417    34.510856   0.18101058 
   39100   -936.53074    52.137584   -884.39315    1867.3792    4480.6746     2.173026    29.107355   0.18308897 
   39200   -937.12327    48.155136   -888.96813    1724.7423   -14024.623    2.1252006    30.582848   0.19596448 
   39300   -941.72016    50.898914   -890.82124    1823.0145   -623.12384    2.1659972    27.740498   0.17877001 
   39400   -943.57106    46.031027   -897.54003    1648.6645    10643.356    2.1960236    26.959449    0.1773741 
   39500   -942.87041    43.973683   -898.89672    1574.9778   -2261.3166    2.1631229     30.36731   0.17828128 
   39600   -937.85814    47.531284   -890.32686    1702.3982   -3525.1887    2.1493321    24.786045   0.18659802 
   39700   -940.32839    51.946562   -888.38183    1860.5375     4044.589    2.1688466    46.353566   0.15849062 
   39800   -937.38948    48.834632   -888.55484    1749.0794    1568.1803     2.160972     59.21648   0.15901592 
   39900   -944.09988    45.279604   -898.82028    1621.7512    -4859.739    2.1583676    53.914336   0.14969499 
   40000   -942.96871    48.677726   -894.29099    1743.4596   -311.17078    2.1662875    49.881118     0.141781 
   40100   -941.89619    53.793127   -888.10306    1926.6747    4880.2901    2.1785912    49.034541   0.14516368 
   40200   -939.38716    47.449462    -891.9377    1699.4677   -4298.4028     2.153512    49.655726   0.15738407 
   40300   -946.21871    46.131125   -900.08758    1652.2496   -6190.8508    2.1667876    51.076288   0.16555566 
   40400   -942.46448    52.204924   -890.25955     1869.791    5250.6867    2.1810166    52.620718   0.15724424 
   40500   -937.00944    48.272375   -888.73707    1728.9414    1494.7261    2.1682798    58.504022   0.17588795 
   40600   -934.65024    42.245448   -892.40479    1513.0788    -10107.05    2.1317257     53.42277   0.18199257 
   40700    -943.1718    46.297096    -896.8747    1658.1941    9554.6938    2.1962067    50.440095   0.16123197 
   40800   -937.04588    49.864899   -887.18098    1785.9798    18166.556    2.2013813    52.052887   0.16520682 
   40900   -939.00832    51.282231   -887.72609    1836.7435   -15300.121    2.1183528    54.227343   0.16473254 
   41000   -941.44734    50.406973   -891.04037     1805.395   -4842.5888    2.1546494    51.941798   0.15041772 
   41100   -941.10826    52.064481   -889.04378    1864.7609    16317.104    2.2051657    54.557019   0.15042994 
   41200   -937.09446    56.670641   -880.42381    2029.7369   -5928.1136    2.1375278    53.119045    0.1808419 
   41300   -940.93774    51.972972   -888.96476    1861.4834   -5675.8732    2.1466772    53.421399   0.14276575 
   41400   -940.03538    49.250824   -890.78456    1763.9859    3683.0392    2.1704158    49.192906   0.13267848 
   41500   -942.02946    52.610335   -889.41913    1884.3114    998.90076    2.1703551    56.231882   0.14148827 
   41600   -933.36531    53.161929   -880.20338    1904.0675   -4399.7323    2.1360465    56.744129   0.16312206 
   41700   -939.93873    53.920004   -886.01872     1931.219   -2340.4122    2.1493055    55.474125   0.13907597 
   41800   -943.13413    52.945818   -890.18831    1896.3272   -149.26242    2.1672039    54.940859   0.14487375 
   41900   -937.33945    46.660576   -890.67888    1671.2126    3715.3114    2.1667947    50.578867   0.15331346 
   42000    -939.2495    51.930911   -887.31858    1859.9769   -4099.7768    2.1476643    51.673412   0.15227028 
   42100   -930.05344    49.046103   -881.00733    1756.6536    -1275.289    2.1405223    53.668203    0.1763548 
   42200   -943.69377    54.789581   -888.90419    1962.3641    1257.9049     2.165612    52.390141   0.14751082 
   42300   -945.17011    53.198101   -891.97201    1905.3631   -3241.0061     2.162208    55.953858   0.12160087 
   42400   -939.06354    51.430007   -887.63353    1842.0363   -3665.9933    2.1465639    51.472608    0.1436521 
   42500   -937.20012    54.775865   -882.42425    1961.8729   -1369.8926    2.1417414    53.861993   0.14002028 
   42600   -943.90742    53.057841   -890.84958    1900.3395    756.53413    2.1663957    52.002581   0.13297679 
   42700   -939.33575    48.575968   -890.75979     1739.815    2118.5279    2.1588094    50.682412   0.14441346 
   42800   -936.39212    54.378411   -882.01371    1947.6375   -4917.3924    2.1327968    52.280818   0.15151363 
   42900   -940.30641    51.683777   -888.62264    1851.1254    2422.2294    2.1631168    53.467827    0.1414373 
   43000   -943.00033    51.200153   -891.80017    1833.8038   -2557.3031     2.155967    52.530356   0.13567798 
   43100   -942.06868    52.816572    -889.2521    1891.6981     -82.7925    2.1574371    54.256424   0.12641353 
   43200   -936.04648     54.52672   -881.51976    1952.9494     2465.873    2.1500945    54.048426   0.13195412 
   43300   -935.68771    48.563444   -887.12427    1739.3664   -1954.4956    2.1414078    55.973889   0.14593399 
   43400   -940.44091    48.933443   -891.50747    1752.6185   -4402.1051    2.1463922    53.599004   0.13963956 
   43500   -939.68915    50.932762   -888.75639    1824.2268    10575.383    2.1813789    58.855497   0.13124015 
   43600   -940.09794    46.841283   -893.25666    1677.6849   -3496.6143    2.1501783    51.665573   0.14047127 
   43700   -942.17186    42.243492   -899.92836    1513.0087   -2922.4116    2.1561241    50.719199   0.13683425 
   43800   -942.62451    51.373754   -891.25076    1840.0216    7088.0368    2.1790145    51.551735   0.13369782 
   43900   -938.61773    49.547268   -889.07047    1774.6035    833.61296    2.1522986    52.489828   0.15251337 
   44000   -939.12487      47.9109   -891.21397    1715.9947   -9207.2901    2.1321065    51.783309   0.13036551 
   44100    -943.5114    45.341436   -898.16996    1623.9658    10807.487    2.1945176    49.765497   0.13591615 
   44200   -939.38743    51.515453   -887.87198    1845.0967    1985.4118    2.1598625    47.441005   0.14110022 
   44300    -938.9406    48.950926   -889.98968    1753.2447   -8919.2919    2.1328123    51.065155   0.13484651 
   44400   -942.05518    49.233353   -892.82182    1763.3602    5278.1511    2.1720318    52.467595   0.13766207 
   44500   -950.44318    49.889602   -900.55358    1786.8646    4964.5525    2.1902768    48.765644   0.12882739 
   44600   -939.11395    49.609404   -889.50455    1776.8289   -10078.642    2.1301256    52.686641   0.16188372 
   44700    -941.1975    51.407556   -889.78994    1841.2322   -897.83078    2.1597311    51.960036   0.15117736 
   44800   -945.76064    53.491627   -892.26902    1915.8761    1781.3896    2.1680098    55.924414   0.12610606 
   44900   -939.28503    51.870486   -887.41454    1857.8127    1724.3529    2.1561645     51.37415   0.13813989 
   45000   -934.33178    50.857748   -883.47403    1821.5401   -2019.3241    2.1376296    54.202709   0.15449996 
   45100    -938.8482    48.939252   -889.90895    1752.8265    1620.4968    2.1609288    53.015134   0.14418685 
   45200   -940.00794    48.490634   -891.51731    1736.7587    5968.5742    2.1752565    55.549495   0.13710993 
   45300   -936.42493    51.485582   -884.93934    1844.0268    171.04085    2.1465434    50.864865   0.15156215 
   45400   -934.59959    50.487657   -884.11193    1808.2848   -3129.1451    2.1406223    52.725383   0.16880088 
   45500   -939.46708    48.406776   -891.06031    1733.7552    4901.8628    2.1708724    54.623494    0.1534457 
   45600   -942.03881     51.19025   -890.84856    1833.4491    3205.8837    2.1710756    49.326532   0.15507059 
   45700   -935.85071    54.719402   -881.13131    1959.8505   -7121.1257    2.1304092    54.217769   0.15263609 
   45800   -940.81122    50.856215   -889.95501    1821.4852    1721.7556    2.1647142    55.672352   0.14479032 
   45900   -942.81102    51.652221    -891.1588    1849.9952    2329.2126    2.1700894    55.907152    0.1249997 
   46000    -942.3153    53.347047   -888.96826    1910.6977   -7699.5026    2.1491643     55.77758    0.1559028 
   46100   -932.14617    51.794307   -880.35186    1855.0843   -416.02674    2.1458857    58.276657   0.16567022 
   46200   -942.75121    51.299726   -891.45149    1837.3702    9351.9597    2.1885765    52.930807   0.14015887 
   46300    -938.6797    47.423977   -891.25572    1698.5549   -9172.8085    2.1352376    52.319252   0.15324179 
   46400   -940.17867    51.230286   -888.94838    1834.8831   -4509.8739    2.1493635    57.830286   0.15348028 
   46500    -947.9004    51.004397     -896.896    1826.7925    9718.9861    2.2018498    48.029699   0.14037626 
   46600   -943.28299     47.69659    -895.5864    1708.3189   -4320.3963     2.155238    51.691018   0.14247442 
   46700   -938.54913    47.948057   -890.60107    1717.3255    -6404.929    2.1379384     50.76538   0.14638009 
   46800   -941.59569    53.065269   -888.53042    1900.6055    7661.3892    2.1794842     45.00366   0.13977239 
   46900   -945.32687    48.292211   -897.03466    1729.6519    1374.2134    2.1736872    53.822338   0.13494603 
   47000   -945.58024    51.993327   -893.58691    1862.2124   -9362.6542    2.1446137    54.356988   0.13692019 
   47100    -938.4102    49.975375   -888.43483    1789.9367    4665.6093     2.168223    54.686572   0.14267723 
   47200   -939.28377    48.706343   -890.57742    1744.4846    4938.9586    2.1688648    54.178345    0.1343211 
   47300   -944.03145    47.415217   -896.61624    1698.2411   -5189.7628    2.1565519     54.34416   0.14761199 
   47400   -946.49175    49.256594   -897.23515    1764.1926     1750.354    2.1798961    51.353747   0.13045014 
   47500   -940.75396    51.943488   -888.81047    1860.4274   -840.42297    2.1577299    49.746499   0.14237636 
   47600   -940.21883    49.615728    -890.6031    1777.0555   -3651.7677    2.1502145    52.586542   0.14533846 
   47700   -940.09039    47.533045   -892.55734    1702.4613    2620.4541    2.1693809    58.281937   0.15516042 
   47800   -949.76572     46.82753   -902.93819    1677.1923   -1610.4321    2.1804315     53.07013   0.12457571 
   47900   -944.62913    48.817498   -895.81163    1748.4658   -6103.8532    2.1580045    58.775552    0.1290233 
   48000   -943.25969    51.988153   -891.27153    1862.0271    3654.9549    2.1754557    53.717006    0.1271644 
   48100   -940.53311    51.575048   -888.95807    1847.2312    -581.0454    2.1581793    55.288806   0.13785868 
   48200   -936.49493    50.124594   -886.37033    1795.2812   -1379.4144    2.1471404    50.397543   0.15286699 
   48300   -946.61774    48.856132   -897.76161    1749.8495    5043.0331    2.1887311    50.625825   0.14374718 
   48400   -944.05762    51.573039   -892.48458    1847.1592   -5449.0004    2.1548755    54.232303   0.13411949 
   48500   -940.38458    51.131269   -889.25331    1831.3366    -4637.297     2.149032    54.045185   0.14365083 
   48600   -940.03873    51.335948   -888.70279    1838.6675    6024.5562     2.175346    55.650966   0.15176683 
   48700   -945.93129    47.163701   -898.76759    1689.2327    2435.7305    2.1806216    52.847756   0.13575853 
   48800   -942.61135    51.606319   -891.00503    1848.3512   -16434.216    2.1203526     51.57738   0.14812015 
   48900   -941.85679    53.898904   -887.95789    1930.4633     8851.776     2.182718    55.204843   0.13936602 
   49000   -944.86338    53.146063   -891.71732    1903.4993    12433.418     2.200357    49.976223   0.14707454 
   49100   -941.56462    44.199243   -897.36537    1583.0566   -20207.998    2.1137494    50.890251   0.15216187 
   49200   -944.04712    48.279944   -895.76718    1729.2125    2553.1425    2.1773676    50.196266   0.14950978 
   49300   -939.57267    51.300969    -888.2717    1837.4147    10808.925    2.1830343    51.532172   0.15264769 
   49400   -941.51301    50.792806    -890.7202    1819.2141   -7300.5305    2.1438708    56.577492   0.16307477 
   49500    -944.0592    53.424505    -890.6347     1913.472    -3893.994    2.1553112    54.700081   0.15371025 
   49600   -935.36403    52.930514   -882.43352     1895.779    12385.723    2.1791605     51.20549   0.14835535 
   49700   -933.41226    50.847179   -882.56508    1821.1616   -3122.9703     2.136333    50.249228    0.1477554 
   49800   -940.65665     50.59018   -890.06647    1811.9568   -8535.7449    2.1380422    53.596693   0.13642858 
   49900   -940.05589    50.215515   -889.84037    1798.5377    12128.918    2.1888344    54.344541   0.15542195 
   50000   -938.69581    46.861305   -891.83451     1678.402    3228.0456    2.1681352    52.024988   0.16554162 
   50100   -943.64013    41.296088   -902.34404    1479.0761   -7197.2805    2.1536405    53.153538   0.15025379 
   50200   -943.74646    48.202714   -895.54374    1726.4464    1749.1773    2.1755885    54.045684     0.137679 
   50300   -939.59065    49.622133   -889.96852    1777.2849    8887.9662    2.1822294    52.944074   0.14346526 
   50400   -934.39902    44.751655   -889.64737     1602.842   -2699.3698    2.1469063    54.841473   0.17229021 
   50500   -936.40382    46.357788   -890.04603    1660.3679    -1910.299    2.1522721    51.742632   0.15989844 
   50600   -945.87173    46.843452   -899.02828    1677.7626    14705.882    2.2082579    49.364364   0.13581047 
   50700   -944.44566    53.308756   -891.13691    1909.3263    -8370.505    2.1487665    48.539556   0.13388934 
   50800   -937.79657     48.14076   -889.65581    1724.2274   -3680.1219    2.1431591     50.80383   0.15687122 
   50900   -940.35736    50.587206   -889.77016    1811.8502    8642.1663    2.1816767    56.929459   0.14970503 
   51000   -949.06045     48.75869   -900.30176    1746.3594    -2682.703     2.172832    61.206865   0.14619654 
   51100   -944.57397    51.113636   -893.46033    1830.7051   -8842.6683    2.1441113    54.460217   0.12803729 
   51200   -939.27503    50.246587   -889.02844    1799.6505    6270.2223    2.1728807    52.391954   0.13316107 
   51300   -939.49327    47.633137   -891.86014    1706.0462    2349.5954    2.1664357    46.523607   0.12974642 
   51400    -947.1281    46.565934   -900.56216    1667.8229   -4926.2697    2.1636699    57.278273   0.12752597 
   51500   -941.26271    49.378928   -891.88379    1768.5741    1697.0469     2.164092    51.773151   0.13039001 
   51600   -941.04479    51.893322   -889.15147    1858.6306    3000.1689    2.1704259    55.747994   0.14478849 
   51700   -939.55352    47.650587   -891.90293    1706.6712   -2692.9885    2.1507247    53.735298   0.14196351 
   51800   -943.88447    46.034108   -897.85036    1648.7748   -2410.3579    2.1632402    51.401802   0.13764429 
   51900    -946.5453     47.39271   -899.15259     1697.435       7121.8    2.1956602    57.150064   0.13597212 
   52000    -941.0701    49.841727   -891.22838    1785.1499   -4344.1049    2.1498501    45.708831   0.14418991 
   52100   -934.90798    45.298259   -889.60972    1622.4194   -5113.7803    2.1385605    43.048564   0.15609192 
   52200   -935.42295    51.218548    -884.2044    1834.4626    9470.6151    2.1707422    33.440445    0.1580916 
   52300   -939.43805    50.713483   -888.72457     1816.373   -2258.0655    2.1506527      25.7703   0.15706338 
   52400   -942.49654    49.394511   -893.10203    1769.1323   -10885.078    2.1376555    27.242299   0.15889633 
   52500   -937.33257    49.347713   -887.98486    1767.4561    13008.665    2.1848735    27.441709   0.18291765 
   52600   -937.86071    50.036664   -887.82404    1792.1319    4169.7078    2.1648227    26.616553   0.16273589 
   52700   -937.02293    50.344178   -886.67876    1803.1459   -17622.239     2.102464    32.533528   0.15371143 
   52800   -943.45346    46.620811   -896.83265    1669.7884    13554.249    2.2013483    20.443756   0.15422248 
   52900   -939.84241    50.169092   -889.67331    1796.8749    8926.8821    2.1851202    26.998784   0.16621467 
   53000    -943.5815    54.085141   -889.49635    1937.1336   -15021.555    2.1268515    27.187929   0.15740016 
   53100   -939.28815    54.367459   -884.92069    1947.2452    741.28624    2.1582166    25.278931   0.16072873 
   53200   -939.17273    52.794203   -886.37853    1890.8969    5167.1059    2.1667315    28.317919   0.16988993 
   53300   -941.03807    47.185268    -893.8528    1690.0052    719.48098    2.1611455    31.997783   0.17685799 
   53400   -939.97254    49.434588   -890.53796    1770.5677    3103.1997    2.1614512    23.360002   0.16879837 
   53500   -936.67118    50.553918   -886.11727     1810.658    1970.0003    2.1569987    22.955565   0.16927768 
   53600   -936.68682    47.654308   -889.03251    1706.8045   -3008.4025     2.144902    29.096079   0.18698202 
   53700   -940.78254    46.785514   -893.99703    1675.6874    3198.5354    2.1752391     26.86537   0.17043555 
   53800   -937.94757    50.921719   -887.02586    1823.8313    8366.9416    2.1733623     31.70216   0.18241726 
   53900   -935.55754    46.305183   -889.25236    1658.4837    -3967.356    2.1404393    28.392918   0.16457585 
   54000   -942.68674    45.011907   -897.67483    1612.1633    776.14193    2.1698808    24.806492   0.15534013 
   54100   -938.67547     50.46958   -888.20589    1807.6373    5892.4997    2.1757234    34.885494   0.16259628 
   54200   -934.24664    47.139461   -887.10718    1688.3646     604.0299    2.1539754    32.027181   0.18220332 
   54300   -940.84702     47.96712    -892.8799    1718.0083    -5764.767    2.1469682    26.603123   0.18112798 
   54400   -941.90202    48.613848   -893.28817    1741.1718      4469.38    2.1786865    24.031042   0.17278134 
   54500   -938.48925    54.180201   -884.30905    1940.5383    619.86617    2.1583541    29.650907   0.18870783 
   54600   -938.75451    48.280471   -890.47404    1729.2314   -6581.1121    2.1422227    35.790717   0.16644777 
   54700   -938.83072    47.756381   -891.07434    1710.4604    4223.5645    2.1668561    28.298374    0.1612855 
   54800   -936.89538    56.625145   -880.27024    2028.1073    2597.6089    2.1628282    44.925604   0.17312654 
   54900   -938.46145    51.389575   -887.07187    1840.5882    -7530.751    2.1366045     27.24775   0.15039623 
   55000    -942.0064    51.368116   -890.63828    1839.8196   -3513.0492    2.1537474    33.498564   0.13671367 
   55100   -938.13102    53.946071   -884.18495    1932.1526    10879.811    2.1835673    30.993236   0.15505578 
   55200   -935.14388    51.816634   -883.32724    1855.8839   -4504.5831    2.1380084    36.955952   0.15788636 
   55300   -938.29281     45.96648   -892.32633    1646.3526   -7096.7939    2.1428543    25.755953   0.15227647 
   55400   -938.26984    51.019419   -887.25042    1827.3306    10844.651    2.1787891    23.373683   0.15855299 
   55500   -936.75331    54.153168   -882.60014    1939.5701     5988.404    2.1583079    21.694587   0.13074435 
   55600   -940.94237    47.779493   -893.16287    1711.2882   -8169.2472    2.1404084     18.71673   0.12377015 
   55700   -940.49332    48.769503   -891.72382    1746.7467    783.56549     2.164343    18.813393   0.12838252 
   55800   -941.08011    55.128823   -885.95129    1974.5145    5270.2557     2.176422    20.715709    0.1389298 
   55900   -945.79679    54.629077   -891.16771    1956.6154   -11634.313    2.1410927    19.123664   0.14267725 
   56000   -946.88078    51.243418   -895.63736    1835.3534   -4681.0614    2.1630406    20.826667   0.11728019 
   56100    -938.7183    51.912425   -886.80587    1859.3148    7048.8133    2.1768382    20.990533   0.14178717 
   56200   -942.08503    51.224443   -890.86059    1834.6738   -2844.2285    2.1570383    19.789169   0.12623375 
   56300   -945.61277    47.773138   -897.83963    1711.0606   -3273.9431    2.1643395    19.471071   0.12744172 
   56400   -937.71046    49.817972   -887.89249    1784.2991    3707.6051    2.1618647    17.131002   0.15416802 
   56500   -939.96487    51.013714   -888.95116    1827.1262    2897.2494     2.164649    21.472912   0.14102974 
   56600   -943.71887    48.364152   -895.35472    1732.2285   -2848.1578    2.1594423    21.201087   0.12367151 
   56700   -939.01717    49.749158   -889.26801    1781.8344     306.2397    2.1626278    21.552077   0.13715739 
   56800   -937.62812    51.541454   -886.08666     1846.028    3816.6813    2.1611506     19.69663   0.13045184 
   56900   -941.60107    48.683379   -892.91769    1743.6621    -5589.761    2.1529867    18.767387    0.1493061 
   57000   -942.97548    53.357545   -889.61794    1911.0738   -51.195429    2.1656759    20.189675   0.15209175 
   57100   -932.42266    49.904665     -882.518    1787.4041    3293.3509    2.1562637    25.274312   0.17123759 
   57200   -942.67045    51.503055    -891.1674    1844.6527   -5647.8386     2.151076    30.171577   0.16271039 
   57300   -942.69942    52.314663   -890.38475    1873.7215   -1586.1033    2.1551755    39.061106   0.14908762 
   57400   -934.94367    54.356696   -880.58697    1946.8597    5961.6386    2.1544682    40.339752   0.16570952 
   57500   -939.54141    50.223118    -889.3183      1798.81    2108.2674    2.1641427    43.502503   0.15114595 
   57600   -940.34043    48.213219   -892.12721    1726.8226   -10085.387    2.1359646    36.834362   0.17415256 
   57700   -936.98342    53.400886   -883.58253    1912.6261    4637.1179    2.1626072    43.746463   0.17223596 
   57800   -939.98988    50.323154   -889.66672    1802.3929    8452.1133     2.182612    31.859659   0.17317806 
   57900   -940.73121    46.847225   -893.88398    1677.8977   -11787.088    2.1315836    33.480075   0.18166948 
   58000    -932.9466    44.512756   -888.43385    1594.2855     3558.724    2.1568258    33.343527    0.1707246 
   58100   -935.76529    49.537529   -886.22776    1774.2546     11291.17    2.1804491    31.738674   0.18625492 
   58200   -941.10444    45.033863   -896.07058    1612.9497    -5000.958    2.1528656    40.922067    0.1664008 
   58300   -940.95036    49.633017   -891.31735    1777.6747   -6381.7327    2.1450082    37.463051   0.16715764 
   58400   -937.96878    53.049238   -884.91954    1900.0313    7330.0961    2.1735147    39.565134   0.15846667 
   58500   -941.38817    48.172148   -893.21602    1725.3516    845.52022    2.1657231    34.063827   0.15640122 
   58600   -938.62476    46.234699   -892.39006    1655.9592    -6438.014    2.1485525    37.843353   0.18342612 
   58700    -933.9202    49.800683   -884.11952    1783.6799    2871.9211     2.156183    37.578534   0.17522868 
   58800   -940.95632    50.157909   -890.79842    1796.4744    3926.4691    2.1728661    31.604296   0.16903646 
   58900   -943.54377    49.794416   -893.74935    1783.4554   -2108.8101    2.1610236    23.795423   0.14864521 
   59000   -935.20029    51.913827   -883.28647     1859.365   -3347.3791    2.1415654    26.226338   0.14723031 
   59100   -940.34055     51.73827   -888.60228    1853.0772     3332.631    2.1686996    15.247148   0.16083751 
   59200   -938.78997    46.269499   -892.52047    1657.2056    1803.4961    2.1650833    20.275761   0.15641044 
   59300   -933.96217    51.780801   -882.18137    1854.6005   -4187.0844    2.1384682    19.569431   0.16060574 
   59400   -941.26717    51.733526   -889.53364    1852.9073    1886.9271    2.1660086    22.154031   0.14145939 
   59500   -944.17185    51.937254    -892.2346    1860.2041    79.218842    2.1644792    21.678771   0.13193692 
   59600   -941.12886    54.879664   -886.24919    1965.5905   -904.16133    2.1549657    16.490864   0.14747615 
   59700   -939.25331    55.308912    -883.9444    1980.9647   -3165.5283    2.1504978    23.413631   0.15308658 
   59800   -940.41759    47.924129   -892.49346    1716.4685    6422.5278    2.1752322    25.611622   0.14115901 
   59900    -939.6484    52.313592   -887.33481    1873.6831   -3015.4638    2.1543443     39.11144   0.15717398 
   60000   -935.50826    48.251015   -887.25725    1728.1764   -3398.0543    2.1379048     33.82891   0.17514099 
   60100   -942.62376    47.050111   -895.57364    1685.1643    6352.1361    2.1803995    35.677012   0.15315721 
   60200    -936.6008    50.050749   -886.55005    1792.6363    3595.7406    2.1572857    34.924506   0.16349154 
   60300   -939.17271    50.498157   -888.67455    1808.6609   -2988.0328     2.142406    33.057781   0.17217238 
   60400   -946.97386    51.707934   -895.26593    1851.9907   -70.930264    2.1698618    42.117277   0.13541134 
   60500   -937.11324    51.688391   -885.42485    1851.2907    1301.2665    2.1559081    43.193254    0.1679484 
   60600   -936.20769    49.260415   -886.94727    1764.3294    1771.5563     2.152217    43.152252   0.14550827 
   60700    -938.4318    45.231971   -893.19983    1620.0451    2215.1163    2.1631269    46.116907   0.14954784 
   60800   -937.05452    49.998141   -887.05638    1790.7521    4105.0863    2.1527608     42.92604   0.15152359 
   60900   -935.25157    50.473732   -884.77783     1807.786    258.42254    2.1491521    37.862403   0.15453662 
   61000   -940.15324    48.516794   -891.63645    1737.6956   -288.77054    2.1573793    41.176542   0.13723215 
   61100   -940.98992    51.907068   -889.08285    1859.1229   -924.86859     2.157778    40.854961    0.1513061 
   61200    -936.8147    54.932221   -881.88248    1967.4729   -4731.8807    2.1386034    44.990448   0.16897633 
   61300    -942.4338    51.048231   -891.38557    1828.3625   -105.76312     2.165942    48.726627   0.17465657 
   61400   -938.16278    48.868806   -889.29397    1750.3034    694.51199     2.157267    47.411146   0.15719895 
   61500     -933.139    50.642796   -882.49621    1813.8413   -3614.9783    2.1373658    51.756265   0.16721614 
   61600   -940.32364    47.402491   -892.92115    1697.7853    3965.9693    2.1701571    52.432905    0.1623512 
   61700    -939.0881    49.022312   -890.06579    1755.8014    743.55426    2.1542979    52.571564   0.13961335 
   61800   -937.11238    51.911997   -885.20038    1859.2995   -1604.1517    2.1451816     47.03088   0.17248032 
   61900   -944.19892    49.564576   -894.63434    1775.2234     689.0309    2.1706334    48.809364   0.15781222 
   62000   -939.39156    48.256038   -891.13552    1728.3563    111.70679    2.1559511    53.393427   0.15656049 
   62100   -942.12331    56.334436   -885.78888    2017.6952   -4690.6746     2.148704    55.832383   0.15562741 
   62200   -942.22663    49.850839   -892.37579    1785.4763   -1001.3498    2.1609542    58.099309   0.16059781 
   62300    -939.7156    46.480987   -893.23461    1664.7804    1916.6365    2.1673428     51.41014   0.16123123 
   62400   -936.47828    51.602185   -884.87609    1848.2031   -3458.9592    2.1470679    55.224379   0.19032813 
   62500   -938.62324    47.942327   -890.68091    1717.1203   -902.46557    2.1575475    49.497623    0.1641586 
   62600    -945.0869    52.748385   -892.33851    1889.2559    729.78039    2.1732537    54.022616   0.16466327 
   62700   -937.02608    54.713694   -882.31239    1959.6461   -7347.0559    2.1363252    52.016925   0.17026246 
   62800   -939.12755    49.445917   -889.68163    1770.9734   -1474.2253    2.1599675    50.654007   0.15723199 
   62900   -939.66674     49.22336   -890.44338    1763.0022    5330.6901    2.1798976    51.730951   0.15094001 
   63000   -935.52172    54.503557   -881.01816    1952.1197   -5562.3365    2.1348213    53.177263   0.17359277 
   63100   -937.78043    49.859691   -887.92074    1785.7933   -5639.8031    2.1418759    47.960291   0.15798465 
   63200   -942.10626    52.057995   -890.04826    1864.5286    5328.6406    2.1796081    51.739567   0.16171752 
   63300   -937.97987    52.450075   -885.52979    1878.5715    2199.2905     2.164586    54.168173   0.15687213 
   63400   -933.09806    50.525274   -882.57279    1809.6321   -14397.135     2.115759    56.088154   0.18339752 
   63500   -940.99808    48.514942   -892.48314    1737.6293    3847.9301    2.1758568    55.135643   0.14624362 
   63600   -939.01733    51.838852   -887.17848    1856.6797    9630.7262    2.1835319    48.227099   0.16325574 
   63700   -937.49158    51.254233   -886.23735    1835.7407   -11626.492    2.1224254    51.930019   0.15786981 
   63800   -942.44362    45.643364   -896.80026    1634.7798    1686.7618    2.1704709    52.359193   0.15690081 
   63900   -937.94075    48.081486   -889.85927    1722.1045    7882.9593    2.1801302    49.622965   0.13636833 
   64000   -935.34607    49.403597   -885.94247    1769.4577   -1788.1376    2.1465695    59.728555   0.15840166 
   64100   -938.93738    51.767846   -887.16953    1854.1365   -7409.6652    2.1406263    55.649724    0.1505257 
   64200   -943.15715    48.360455   -894.79669    1732.0961    7395.2983    2.1879702    53.486462   0.13479923 
   64300    -935.0797    49.711507   -885.36819    1780.4859    568.80757    2.1520586    54.605091   0.17443252 
   64400   -938.45284    50.322865   -888.12997    1802.3825   -4113.1456    2.1471118    52.160915   0.18101846 
   64500   -942.06826     47.63147   -894.43679    1705.9865    2422.2945    2.1738331    51.312991   0.15866502 
   64600   -932.91378    47.721212   -885.19257    1709.2008    6196.9294    2.1652339     49.81385   0.16389906 
   64700   -937.47153    51.183017   -886.28851      1833.19   -3935.2486    2.1449838    36.708171   0.16542882 
   64800   -944.17996    50.456874   -893.72309    1807.1823   -3844.3173    2.1597074    35.796937   0.14698084 
   64900    -940.3271    50.720497    -889.6066    1816.6243    3836.5151    2.1729838    34.812221   0.17748463 
   65000   -935.73128    51.741838   -883.98944     1853.205   -1423.3354    2.1456163    46.823448   0.18801032 
   65100   -944.67783    52.114069   -892.56376    1866.5369   -9976.0932    2.1451885     49.90484   0.17439853 
   65200   -944.35168    54.725553   -889.62613    1960.0708    2563.1784    2.1717156    31.529713   0.15409421 
   65300   -932.21629    50.265499   -881.95079    1800.3279    2374.9344    2.1541162    19.710941   0.18900392 
   65400   -938.21075    46.631908   -891.57884    1670.1858   -9571.8679    2.1317425    22.450769   0.16000529 
   65500    -941.7468    50.235466   -891.51133    1799.2522    2637.9619    2.1719952     19.58277   0.15024737 
   65600    -936.1837    51.774408   -884.40929    1854.3715    14784.309    2.1901399    18.931739   0.16013132 
   65700   -938.07284    49.328271   -888.74457    1766.7598   -14004.206     2.123772    24.977832   0.16131108 
   65800   -942.38389     46.43218   -895.95171    1663.0323   -8052.5987     2.151084    24.003246   0.15591829 
   65900   -940.31976    53.196359    -887.1234    1905.3007     13833.63    2.1897912    21.228379   0.13785109 
   66000   -938.68008      49.5686   -889.11148    1775.3675   -2555.3861    2.1483814    21.026532   0.14045255 
   66100   -945.09659    47.071763   -898.02483    1685.9398   -7482.6487    2.1518343    20.066989   0.13778664 
   66200   -944.22278    53.714787   -890.50799    1923.8689    3741.5373    2.1746904    19.452574    0.1267209 
   66300   -941.10544    53.685166   -887.42028     1922.808    2515.5191    2.1677404      21.7172   0.14805838 
   66400   -945.36604     49.95083   -895.41521    1789.0576   -10614.251    2.1430724    21.254829   0.12319869 
   66500   -944.80891    53.994877   -890.81403    1933.9007   -1107.4063    2.1612763    24.748998   0.12766471 
   66600   -941.74883    57.252107   -884.49672    2050.5629    4115.3026    2.1693645     22.23283    0.1392775 
   66700   -941.32849    49.202783   -892.12571    1762.2653   -6041.0288    2.1430009    35.783561     0.173071 
   66800    -935.9782    49.595133   -886.38307    1776.3178    2593.7341    2.1513092      25.7712    0.1621939 
   66900   -933.39379    52.683346   -880.71044    1886.9264    5080.0565    2.1566635    29.526308   0.16646975 
   67000   -941.66322    51.189944   -890.47328    1833.4382   -3927.2253    2.1521313    28.708645   0.15159519 
   67100   -936.82423    47.468153   -889.35608    1700.1371    863.19986    2.1503876    30.277629   0.15204987 
   67200   -936.34071    53.704414   -882.63629    1923.4974    2951.3107    2.1507295    35.377354   0.14249937 
   67300   -940.88421     53.73541    -887.1488    1924.6075   -2750.2389    2.1461412    29.574612   0.17240761 
   67400   -937.87997    46.182821   -891.69714    1654.1012    1355.2668    2.1540081    30.731738   0.16158823 
   67500   -937.80623    50.203031    -887.6032    1798.0905    7568.1328    2.1743088    28.456365   0.17637469 
   67600   -939.75801    51.378391   -888.37962    1840.1876    272.11892    2.1559963    29.383425   0.17078474 
   67700   -943.91252    46.380309   -897.53221    1661.1745   -5482.2194    2.1571337    28.366863   0.16559766 
   67800   -940.86786    50.421166    -890.4467    1805.9033     6362.549    2.1746625     33.80836   0.18624221 
   67900   -937.80305    51.837553    -885.9655    1856.6332    5295.6226    2.1704628    27.941433   0.19870025 
   68000   -940.29877    50.451688   -889.84708    1806.9965   -17567.108    2.1202276    35.666016    0.1743023 
   68100   -943.83842    47.613591   -896.22483    1705.3462    6045.5751    2.1834337    31.729512   0.14724098 
   68200   -940.10049    54.328976   -885.77152    1945.8669    8995.2114    2.1831912    37.149237   0.15806087 
   68300   -937.23824    48.539134   -888.69911    1738.4958   -12425.682    2.1281498    27.705008   0.17172742 
   68400   -940.63404    46.268418   -894.36562    1657.1669   -1213.8269    2.1631071    28.863037   0.16745334 
   68500   -946.31224     53.09823   -893.21401     1901.786    10917.178    2.2012216    24.770381   0.13956258 
   68600   -938.94015    52.943386   -885.99676    1896.2401   -7871.3975    2.1387559    32.960389   0.16100132 
   68700   -940.10268    46.768527   -893.33415     1675.079   -5961.9175      2.14624    28.453343   0.15326098 
   68800   -943.05225    51.417928   -891.63433    1841.6037    7869.0971    2.1853034    28.430031   0.13841785 
   68900    -936.3901    53.263605    -883.1265    1907.7092   -1006.3531    2.1467989    28.937361   0.15650338 
   69000   -943.57118     51.62863   -891.94255    1849.1503   -8217.6519    2.1412272    30.486512   0.14108368 
   69100   -942.20004    50.199433   -892.00061    1797.9616    3734.8784    2.1693229    29.607651   0.13128687 
   69200   -934.71141    50.976954   -883.73445    1825.8096    4931.9181    2.1609328    31.643695   0.16741327 
   69300   -938.94036    48.875592   -890.06477    1750.5465    -6906.852    2.1402069    29.096264   0.15377973 
   69400   -943.16958    48.949313   -894.22027    1753.1869   -3614.0315    2.1578291    28.769641   0.14381279 
   69500   -938.52384    53.283104   -885.24074    1908.4075    10922.258    2.1799449    31.573939   0.15493692 
   69600   -936.48393    46.774657   -889.70927    1675.2986    144.78066    2.1502955    27.185518   0.15498289 
   69700     -941.634    44.318367   -897.31564    1587.3232   -6316.2507     2.150991    29.716711   0.14045266 
   69800   -940.65877    52.565667   -888.09311    1882.7115    8242.0239    2.1789993    30.023993   0.13694177 
   69900   -937.30505    48.886982   -888.41806    1750.9544    5241.3157    2.1661705    26.719652   0.14657111 
   70000   -943.89008    46.734788   -897.15529    1673.8706       -14844    2.1292491    28.870634   0.14782424 
   70100   -940.25459     49.44806   -890.80653    1771.0502    6218.5471    2.1747759    29.511243   0.14975899 
   70200   -940.21794    56.687223   -883.53072    2030.3307    17515.375    2.1992676     25.54021   0.13826645 
   70300   -940.24592    48.455535   -891.79039    1735.5015   -17388.029    2.1163632    28.602865   0.14740839 
[...]
   86800   -934.57501    46.663882   -887.91113     1671.331   -5024.2342    2.1376969    48.085412   0.15533655 
   86900   -939.13735     47.84794   -891.28941    1713.7397    1329.3453    2.1638748    53.604841   0.15223622 
   87000   -943.66556    47.777133   -895.88843    1711.2036    9763.9825    2.1940265    49.978304   0.13321529 
   87100   -935.42914    49.077593   -886.35155    1757.7814   -8012.5576    2.1310715    54.217573   0.16187469 
   87200   -937.07044    46.449457   -890.62098    1663.6511   -3083.1869     2.145957    51.825564   0.14671491 
   87300   -945.87293    53.829768   -892.04316    1927.9871    14030.792    2.2061578    51.872331   0.12258173 
   87400   -934.49977    52.172137   -882.32763    1868.6168   -4068.0098    2.1365523    48.645808   0.15532753 
   87500   -937.76777    50.232101   -887.53567    1799.1317   -12592.352    2.1209979    53.499339    0.1472794 
   87600   -941.28877    50.347519   -890.94125    1803.2656    11510.981     2.188859    49.936982   0.14013084 
   87700    -942.2699    50.518424   -891.75148    1809.3867    4453.1937    2.1753025    51.457901   0.13434568 
   87800   -934.16232    51.243913   -882.91841    1835.3711   -12009.327    2.1151192    55.782172   0.16379674 
   87900   -942.75741    49.598396   -893.15901    1776.4347    2965.5212    2.1723478    48.530234   0.13477279 
   88000   -941.09254    49.406302   -891.68624    1769.5546    3361.3449    2.1685368    48.708517   0.13689224 
   88100   -936.79549    50.622893    -886.1726    1813.1285   -2020.6095    2.1449034    51.458431   0.13970611 
   88200   -943.46727    51.089693   -892.37757    1829.8475   -3456.8546    2.1553003    51.540914   0.13770415 
   88300   -943.28379    48.756659   -894.52713    1746.2867    2776.6873    2.1740159    53.217311   0.13175262 
   88400   -940.68197    52.531609   -888.15036    1881.4917    842.10636    2.1624443    48.133453   0.15195355 
   88500   -940.47702    50.203379   -890.27364     1798.103   -5911.0173    2.1452248    52.143227   0.13471417 
   88600   -947.44414    49.566346   -897.87779    1775.2868    1743.4606     2.180291     51.65782   0.13959857 
   88700   -937.95779    49.994991    -887.9628    1790.6393    2520.8373    2.1613854    52.800612   0.14310001 
   88800   -939.48966     49.79813   -889.69153    1783.5884   -3025.4453    2.1475949    52.278738   0.14798424 
   88900   -946.42952    50.175831   -896.25369    1797.1163   -713.39398    2.1681295    48.550845   0.12678437 
   89000   -944.46674    51.988702   -892.47804    1862.0468    4397.2489    2.1805262    51.609664   0.14286524 
   89100   -943.02107    55.238915   -887.78215    1978.4576   -7152.1614    2.1447797    51.235928   0.13461887 
   89200   -943.60909    50.570085   -893.03901     1811.237   -8965.9803    2.1424418    50.724955   0.14414895 
   89300   -940.44887    50.479001   -889.96987    1807.9747    13635.299    2.1908458    48.898019   0.14063372 
   89400   -936.53835    54.305954    -882.2324    1945.0423     446.1036     2.146252    53.636023   0.15502837 
   89500    -943.3743    51.423186   -891.95111     1841.792   -13110.982    2.1290972    55.239846   0.14559123 
   89600   -940.71427     49.99383   -890.72044    1790.5977    7451.5702    2.1804568    53.259196   0.13565745 
   89700   -946.67409    60.293363   -886.38072    2159.4896    3320.8375    2.1741795    50.960165   0.13666173 
   89800   -937.47469    53.966363   -883.50833    1932.8794   -13683.031     2.116484    52.504862   0.17263405 
   89900   -943.10234    49.700219   -893.40212    1780.0816    1167.2106    2.1713196    52.169486   0.15442705 
   90000   -940.15052    52.127731   -888.02279    1867.0263    6211.1804    2.1715779    53.385465   0.15638331 
   90100   -935.59725    49.660443   -885.93681     1778.657    -2627.828    2.1443307    54.576147   0.16435307 
   90200   -941.84821    45.397106    -896.4511    1625.9597   -906.86448    2.1717041     49.69309   0.16785237 
   90300   -939.70442    49.386113    -890.3183    1768.8315    2486.8025    2.1679764    48.216067   0.17831882 
   90400   -935.51294    49.343749   -886.16919    1767.3141    638.65965     2.155377    48.919885    0.1691983 
   90500   -942.38116    47.505223   -894.87594    1701.4648    -4175.868    2.1626919    46.984282   0.16864469 
   90600   -940.99446    48.794496   -892.19996    1747.6419    3448.2592    2.1648961    54.004995   0.15772981 
   90700   -938.81285    53.783087   -885.02977    1926.3151   -2975.4982    2.1534636    43.708578   0.17139524 
   90800   -940.46443    47.847869   -892.61656    1713.7371   -982.07053    2.1581423     52.86254   0.14739044 
   90900   -942.04627    49.630663   -892.41561    1777.5904   -455.66999    2.1645057    53.588217   0.15042042 
   91000   -935.63653    51.722673   -883.91386    1852.5186    2507.3851    2.1570484    51.167668   0.16680937 
   91100   -939.67092     48.27779   -891.39313    1729.1354   -1872.4198    2.1498425     55.35336   0.18144496 
   91200   -938.97461    47.129116    -891.8455     1687.994   -1292.0285    2.1591172    53.464432   0.18100355 
   91300   -933.87176    52.251889   -881.61988    1871.4732     3106.636     2.153762    50.249525   0.18521147 
   91400   -939.90753    50.929251   -888.97828    1824.1011   -227.90556    2.1594554    53.569873   0.17926866 
   91500   -939.75248    47.257011   -892.49547    1692.5748   -4125.9967    2.1496616    52.849908   0.17342718 
   91600   -936.58348    53.327509   -883.25598     1909.998    3900.4694    2.1610019    50.276851   0.18866479 
   91700   -938.91437    50.791521   -888.12284    1819.1681    5706.2632    2.1660691     57.17831   0.15842825 
   91800   -940.17153    47.175498   -892.99604    1689.6552   -11503.161     2.135585    50.384257     0.179585 
   91900     -938.148    51.340201    -886.8078    1838.8198    2336.4517    2.1579954    50.463449    0.1889207 
   92000   -939.60028    52.748066   -886.85221    1889.2444     10514.02     2.181994    52.884244    0.1574979 
   92100   -941.36864    45.566499   -895.80214    1632.0268   -1870.0846    2.1546484     56.55621   0.18591881 
   92200   -940.58406     51.03405   -889.55001    1827.8546   -4201.7724    2.1464526    54.613233   0.17513408 
   92300   -940.00044    55.355808   -884.64463    1982.6443    7391.0862    2.1777245    50.460941   0.16773137 
   92400   -942.40019    48.346381    -894.0538     1731.592    817.69036    2.1698155    48.802193   0.16694689 
   92500   -937.50999    46.524699    -890.9853     1666.346   -8092.7382    2.1378515    51.063969   0.16352188 
   92600   -939.07505     54.36461   -884.71044    1947.1432    1280.9974    2.1573651    55.147895   0.15701573 
   92700   -941.06459    49.469739   -891.59485    1771.8267     2334.169    2.1736907    50.152998   0.16018234 
   92800    -938.7822    45.543228   -893.23897    1631.1933   -763.71594    2.1586544    50.012119    0.1621119 
   92900    -935.2273    51.416415   -883.81089    1841.5495   -2037.5294    2.1421504    46.612794   0.17669129 
   93000   -942.07624    51.765641    -890.3106    1854.0575    3075.3628    2.1744993    52.443593   0.16044964 
   93100   -942.69895    49.943029   -892.75592    1788.7782   -2373.1318     2.162946    52.595633   0.16176962 
   93200   -938.11882    54.223834   -883.89499    1942.1011   -4113.3414    2.1418445    55.110503   0.16787565 
   93300    -944.0116    53.029636   -890.98196    1899.3292     466.5617    2.1682203    50.714584   0.16008787 
   93400   -940.78114    48.201639    -892.5795    1726.4079    844.41954     2.165484    54.990532   0.15932276 
   93500    -936.4278     52.26025   -884.16755    1871.7726      -3348.9    2.1432633    49.913974   0.16847035 
   93600    -940.3357    48.601504    -891.7342    1740.7296    4220.4538    2.1715102    51.952196   0.16612585 
   93700   -938.44052    45.942583   -892.49794    1645.4967    1110.6869    2.1635792    49.765857   0.18038696 
   93800   -935.69018    50.231347   -885.45883    1799.1047   -263.79899     2.145296    53.959294    0.1755895 
   93900   -942.93443    50.635881   -892.29855    1813.5936    220.33678    2.1682586    54.798278    0.1617001 
   94000   -938.82241    45.318801    -893.5036    1623.1551    3491.2418    2.1647729     48.55232   0.17289447 
   94100   -936.25221    50.131446   -886.12077    1795.5266   -826.72711    2.1459967    54.699844   0.17832631 
   94200   -940.80741    50.310712    -890.4967    1801.9473    2401.3752    2.1639716    38.738386   0.16052118 
   94300   -937.94139    44.082278   -893.85912    1578.8673    6959.9845    2.1722252     39.85955   0.16600733 
   94400   -930.87075    45.624446   -885.24631    1634.1022    570.24966    2.1433197     39.01048   0.17490555 
   94500   -937.02712    47.520035   -889.50709    1701.9953   -2727.9613    2.1529384    35.365884   0.16205573 
   94600   -941.50016    47.604626   -893.89553    1705.0251    4027.0163    2.1766146    37.060947   0.14932624 
   94700   -934.84945    50.766772   -884.08268    1818.2817    3251.7846    2.1557703    37.594096   0.14554768 
   94800   -938.18653    48.000738   -890.18579    1719.2124   -2146.2727    2.1502763    37.577436   0.14398588 
   94900   -940.73779    46.597224   -894.14057    1668.9436    969.49468    2.1623434    39.756832     0.136802 
   95000   -934.15173     49.67013    -884.4816    1779.0039    7313.3661    2.1637105    34.228727   0.15072892 
   95100   -943.14197     53.06355   -890.07842    1900.5439   -2739.4631    2.1583442    37.983159   0.15170878 
   95200   -942.95772    47.849886   -895.10783    1713.8094   -6282.9291    2.1496379    36.918603    0.1280828 
   95300   -938.33056    52.551525   -885.77903    1882.2051    2863.1777    2.1620012    34.312209   0.14070769 
   95400   -940.84095    50.852626   -889.98832    1821.3566    4231.0863    2.1716862     34.37881   0.12364121 
   95500   -941.33306     45.04821   -896.28485    1613.4635    -6481.591    2.1477496    37.934282   0.13873767 
   95600   -937.58192    49.812268   -887.76965    1784.0948     456.1203     2.155821    32.314444   0.14819409 
   95700   -942.78934    54.797589   -887.99175    1962.6509    7704.3924    2.1835258    38.127875   0.14436818 
   95800   -945.01434    48.582087   -896.43226    1740.0342   -5119.2477    2.1599346    35.332976   0.14757674 
   95900   -940.03375    50.768728   -889.26502    1818.3517    -9305.382    2.1360647    36.619243   0.15037037 
   96000   -939.76322     54.43749   -885.32573    1949.7535    10558.855    2.1839637    37.127366   0.12865159 
   96100   -943.91462    50.092413   -893.82221    1794.1286    4523.5883    2.1771078    36.366399   0.13504283 
   96200   -940.49302    51.252281   -889.24073    1835.6708   -15296.109    2.1203327    34.848221   0.14125782 
   96300   -935.74072     50.89456   -884.84616    1822.8586    6976.8155    2.1658246    36.603231   0.14568282 
   96400   -941.46461    50.523773   -890.94084    1809.5783    11434.088    2.1920078    36.598855    0.1432421 
   96500    -941.5247    47.238988   -894.28571    1691.9292   -7707.4641     2.146966    36.905267   0.14443922 
   96600   -939.15118    55.277233   -883.87394      1979.83   -4203.7928    2.1432006    36.747989    0.1602107 
   96700   -945.48288    55.789634   -889.69325    1998.1824    4379.3855    2.1805455    39.434031    0.1317899 
   96800   -942.30945    48.451527   -893.85792     1735.358   -696.42941    2.1647761    39.362762   0.13980994 
   96900   -935.96929    50.626957   -885.34234     1813.274   -3805.2278    2.1480779    39.161655    0.1627516 
   97000   -939.67969     49.02478   -890.65491    1755.8898     3677.598    2.1705615    36.970276   0.14962087 
   97100   -943.54662     49.62086   -893.92576    1777.2393    1108.3784    2.1692379    37.395359   0.15213713 
   97200   -939.28743     52.94049   -886.34694    1896.1363   -2166.6589    2.1512845    37.712463   0.16838054 
   97300   -937.29632    47.005954   -890.29037    1683.5828    3085.9795    2.1625645    42.061249   0.15196879 
   97400   -941.29088    46.234525   -895.05635     1655.953    1923.1815     2.175164    36.765336   0.15771539 
   97500   -939.03548    52.224384    -886.8111     1870.488   -2478.0942    2.1539882     34.23322   0.14802728 
   97600   -939.58214    49.779828   -889.80231    1782.9329   -3574.9498    2.1527986    39.724909   0.16555764 
   97700   -944.36455    48.770172   -895.59437    1746.7707     4899.504     2.181657    40.564743   0.13539053 
   97800   -939.84516    53.834995   -886.01016    1928.1743    1245.1574    2.1617198    41.073074   0.14575394 
   97900   -938.48787     48.47575   -890.01212    1736.2256   -6935.5667    2.1427302    37.726233   0.14694254 
   98000   -945.55032    49.667218    -895.8831    1778.8996   -117.89551    2.1725074     37.31223   0.15439634 
   98100   -937.99775    51.653339   -886.34441    1850.0353     12672.73    2.1838653    34.693079   0.15053938 
   98200     -937.039    49.144956   -887.89404    1760.1941   -3339.9701    2.1452982    34.618695   0.17142182 
   98300   -943.55893    48.885258   -894.67368    1750.8927   -9708.6489    2.1445063    35.034911   0.13645391 
   98400   -941.43124    52.106961   -889.32428    1866.2824    11885.218    2.1941446    39.011036   0.13694205 
   98500    -938.5089      53.9444    -884.5645    1932.0928   -1180.5634    2.1582404    34.911598   0.16620093 
   98600   -944.21941    50.146081   -894.07333    1796.0508   -12807.276    2.1369452    35.165109   0.12520409 
   98700   -944.09372    53.253523    -890.8402    1907.3481    2880.6944    2.1731372    33.902909   0.16257234 
   98800   -937.41424    53.614074   -883.80017    1920.2617    5798.0064    2.1670914    35.407712   0.15455265 
   98900   -942.37273    50.508965   -891.86377    1809.0479   -6375.6297    2.1454074    38.044511   0.11998012 
   99000   -941.46429    48.307658   -893.15663    1730.2051   -691.08018    2.1589159    36.162388   0.14454702 
   99100   -936.31418    51.264408   -885.04978    1836.1052      6230.59    2.1671089     38.05905   0.11212118 
   99200    -941.7422    49.806831   -891.93537    1783.9001   -3791.1107    2.1540402    38.406442   0.14288448 
   99300   -945.45636    50.664389   -894.79197    1814.6147   -4615.6467    2.1612013    36.549402   0.14414094 
   99400   -935.57706    50.210344   -885.36671    1798.3524    4069.1475    2.1597875    34.872657   0.13524989 
   99500   -943.87163     52.96448   -890.90715    1896.9956   -1495.7957    2.1635725    33.384742   0.15791576 
   99600   -944.67314    48.801822   -895.87132    1747.9043   -3069.9832    2.1653613    37.726345   0.13564416 
   99700   -939.95588    54.167491   -885.78839    1940.0831   -2613.1587    2.1506062    35.663278   0.15491321 
   99800   -939.62716    49.378172   -890.24899    1768.5471    2511.9789      2.17123    37.663106   0.14547743 
   99900   -941.04154    45.928347    -895.1132    1644.9868   -1382.4063    2.1675838    37.124315   0.14384025 
  100000   -936.73802    51.788613   -884.94941    1854.8803   -5295.3233    2.1348076    36.157257    0.1801551 
  100100   -940.38311    52.443576   -887.93953    1878.3387    5949.4027    2.1719127     35.93486    0.1690849 
  100200   -939.26874    46.609416   -892.65933    1669.3802    5943.1362    2.1699894    34.388794   0.16305975 
  100300   -932.29903     48.57967   -883.71936    1739.9476    -10895.89    2.1184053     35.59998    0.2183517 
  100400   -939.44524    53.050278   -886.39496    1900.0686    5865.0397    2.1707209     34.99296   0.17296193 
  100500   -938.30801     48.36627   -889.94174    1732.3044    16185.218    2.1918165    27.127667   0.17152824 
  100600   -940.05132    53.260694   -886.79062    1907.6049   -10515.011    2.1288035    35.995929   0.16436054 
  100700   -934.46649    50.961114   -883.50538    1825.2423   -5066.3001    2.1339775    36.508172   0.16091575 
  100800   -941.30695     49.60098   -891.70597    1776.5272    15518.718    2.2011615    39.324945   0.13925772 
  100900   -940.16255    49.554171   -890.60838    1774.8507   -1945.6331    2.1570829    35.488658   0.14601458 
  101000   -936.74198    51.268815   -885.47316     1836.263   -10869.954      2.12632    40.483761   0.16620169 
  101100   -945.73491    49.965387   -895.76952     1789.579    6047.3769     2.187046    36.162371    0.1450886 
  101200   -943.77884    52.296377   -891.48247    1873.0666    1554.5268    2.1697822    36.383641   0.12567663 
  101300   -940.79356    52.854658    -887.9389    1893.0622   -7619.6526      2.13848    36.844448   0.12998735 
  101400    -942.8652    48.187837   -894.67737    1725.9136   -1797.5554     2.163042    31.530285   0.14424147 
  101500    -941.7242    48.233351   -893.49085    1727.5437    3729.8801    2.1767932    32.991578   0.13612108 
  101600   -938.33841    51.465698   -886.87271    1843.3146    -5404.082    2.1401812    33.036972   0.14763807 
  101700   -942.91998    50.836555   -892.08343    1820.7811   -3866.0866    2.1541261     34.67971   0.12959811 
  101800   -946.86002    53.155633   -893.70439     1903.842    5043.0949      2.18453    35.316796   0.13082712 
  101900    -933.2924    49.799337   -883.49306    1783.6316   -2359.9354    2.1427998    35.548254   0.15708506 
  102000   -933.84465    42.909785   -890.93486    1536.8729   -903.11236    2.1554551    35.579729   0.15285272 
  102100   -939.82536    47.604807   -892.22055    1705.0315    4795.7979    2.1760094    32.679374   0.13647397 
  102200   -938.55859    55.733422   -882.82517    1996.1691   -679.66655    2.1568726    39.402744   0.13890062 
  102300   -943.27381    53.253011   -890.02079    1907.3297   -8635.2739    2.1473134    37.620594   0.14475084 
  102400   -943.97696    50.718831   -893.25813    1816.5646   -3966.3827    2.1625756    36.855185   0.15010474 
  102500   -939.01639      54.5742   -884.44219    1954.6499    11919.476    2.1875697    36.836748   0.13685294 
  102600   -941.81115    52.049469   -889.76168    1864.2232   -7653.4702    2.1449054    38.431624   0.13143806 
  102700   -944.75622    48.399807   -896.35641    1733.5056   -9673.1368    2.1477685    40.913108   0.14897313 
  102800   -937.64272    50.519231   -887.12349    1809.4157    13495.537    2.1876701    40.574783   0.13857249 
  102900   -938.74967    49.549384   -889.20028    1774.6793    3821.7895    2.1653808    36.827034   0.14323574 
  103000   -944.50919    46.842365   -897.66682    1677.7236   -10759.214    2.1459804    38.645857   0.14040112 
  103100   -940.80007    51.012566   -889.78751    1827.0851    1893.9868    2.1673316    34.150338   0.14402635 
  103200   -939.28269    52.975152   -886.30754    1897.3778    8359.3213    2.1786962    34.065805   0.15230502 
Loop time of 70.6483 on 1 procs for 100000 steps with 217 atoms

Performance: 366.888 ns/day, 0.065 hours/ns, 1415.462 timesteps/s
100.0% CPU use with 1 MPI tasks x no OpenMP threads

MPI task timing breakdown:
Section |  min time  |  avg time  |  max time  |%varavg| %total
---------------------------------------------------------------
Pair    | 67.211     | 67.211     | 67.211     |   0.0 | 95.13
Neigh   | 1.8666     | 1.8666     | 1.8666     |   0.0 |  2.64
Comm    | 0.47484    | 0.47484    | 0.47484    |   0.0 |  0.67
Output  | 0.034118   | 0.034118   | 0.034118   |   0.0 |  0.05
Modify  | 0.91006    | 0.91006    | 0.91006    |   0.0 |  1.29
Other   |            | 0.1519     |            |       |  0.22

Nlocal:    217 ave 217 max 217 min
Histogram: 1 0 0 0 0 0 0 0 0 0
Nghost:    953 ave 953 max 953 min
Histogram: 1 0 0 0 0 0 0 0 0 0
Neighs:    4116 ave 4116 max 4116 min
Histogram: 1 0 0 0 0 0 0 0 0 0
FullNghs:  8232 ave 8232 max 8232 min
Histogram: 1 0 0 0 0 0 0 0 0 0

Total # of neighbors = 8232
Ave neighs/atom = 37.9355
Neighbor list builds = 3165
Dangerous builds = 62
Total wall time: 0:01:12
