LAMMPS (3 Mar 2020)

# ---------- 1. Initialize simulation ----------
units metal
atom_style atomic
dimension 3
boundary p p p
read_data /home/modeler/RemLabs/Project/arrhenius_4/T1500.0/n3_T1500.0_timestep3.000000e-03_eqsteps3200_time600_rseed3339/20201205-122324/lammps.data
  orthogonal box = (0 0 0) to (17.469 17.469 17.469)
  1 by 1 by 1 MPI processor grid
  reading atoms ...
  217 atoms
  read_data CPU = 0.00105323 secs

pair_style meam/c
pair_coeff * * library.meam Li Si LiSi.meam Li Si
Reading potential file library.meam with DATE: 2012-06-29
Reading potential file LiSi.meam with DATE: 2020-11-07

group Li type 1
1 atoms in group Li
group Si type 2
216 atoms in group Si

velocity all create 1500.0 3339 dist gaussian

# ---------- 2. Specify equilibration ensemble  ----------
fix 1 all npt temp 1500.0 1500.0 0.15 tchain 2 iso 1.0 1.0 1.0 pchain 2
# fix 1 all nvt temp 1500.0 1500.0 0.15

# ---------- 3. Run equilibration -------------
timestep 0.003
run 3200
Neighbor list info ...
  update every 1 steps, delay 10 steps, check yes
  max neighbors/atom: 2000, page size: 100000
  master list distance cutoff = 6
  ghost atom cutoff = 6
  binsize = 3, bins = 6 6 6
  2 neighbor lists, perpetual/occasional/extra = 2 0 0
  (1) pair meam/c, perpetual
      attributes: full, newton on
      pair build: full/bin/atomonly
      stencil: full/bin/3d
      bin: standard
  (2) pair meam/c, perpetual, half/full from (1)
      attributes: half, newton on
      pair build: halffull/newton
      stencil: none
      bin: none
Per MPI rank memory allocation (min/avg/max) = 8.895 | 8.895 | 8.895 Mbytes
Step Temp E_pair E_mol TotEng Press Volume 
       0         1500   -951.04357            0   -909.16328   -115839.99    5330.9442 
    3200    1644.4477   -952.40023            0   -906.48693    5323.3049     4577.654 
Loop time of 2.3426 on 1 procs for 3200 steps with 217 atoms

Performance: 354.069 ns/day, 0.068 hours/ns, 1366.006 timesteps/s
100.0% CPU use with 1 MPI tasks x no OpenMP threads

MPI task timing breakdown:
Section |  min time  |  avg time  |  max time  |%varavg| %total
---------------------------------------------------------------
Pair    | 2.2698     | 2.2698     | 2.2698     |   0.0 | 96.89
Neigh   | 0.022665   | 0.022665   | 0.022665   |   0.0 |  0.97
Comm    | 0.014381   | 0.014381   | 0.014381   |   0.0 |  0.61
Output  | 2.5751e-05 | 2.5751e-05 | 2.5751e-05 |   0.0 |  0.00
Modify  | 0.030481   | 0.030481   | 0.030481   |   0.0 |  1.30
Other   |            | 0.005197   |            |       |  0.22

Nlocal:    217 ave 217 max 217 min
Histogram: 1 0 0 0 0 0 0 0 0 0
Nghost:    957 ave 957 max 957 min
Histogram: 1 0 0 0 0 0 0 0 0 0
Neighs:    4253 ave 4253 max 4253 min
Histogram: 1 0 0 0 0 0 0 0 0 0
FullNghs:  8506 ave 8506 max 8506 min
Histogram: 1 0 0 0 0 0 0 0 0 0

Total # of neighbors = 8506
Ave neighs/atom = 39.1982
Neighbor list builds = 38
Dangerous builds = 0

# ---------- 4. Describe computed properties----------
compute msdli Li msd
compute msdsi Si msd
thermo_style custom step pe ke etotal temp press density c_msdli[4] c_msdsi[4]
thermo 100

# ---------- 3. Run production -------------
timestep 0.003
run 200000
Per MPI rank memory allocation (min/avg/max) = 9.666 | 9.666 | 9.666 Mbytes
Step PotEng KinEng TotEng Temp Press Density c_msdli[4] c_msdsi[4] 
    3200   -952.40023    45.913294   -906.48693    1644.4477    5323.3049    2.2031609            0            0 
    3300   -953.15478    42.183507   -910.97127    1510.8602   -3559.7907    2.1839878  0.028442242  0.088151622 
    3400   -954.58057    40.721898   -913.85867    1458.5107   -8172.0977    2.1752554   0.36921759   0.10970398 
    3500   -952.46076    44.142461    -908.3183    1581.0229     1064.168    2.1940627   0.15896511    0.1134312 
    3600   -950.90214    43.272589   -907.62955    1549.8672    7905.3446    2.2059802 0.0093625591   0.13472003 
    3700   -955.49624     39.40565   -916.09059    1411.3675   -862.28896    2.1982253   0.09781358   0.10856955 
    3800   -951.45578    41.400055   -910.05572    1482.7998   -10661.409    2.1675559    0.1032509   0.13939887 
    3900   -947.57962     39.77743   -907.80219    1424.6833   -73.215262    2.1856598   0.13677449   0.13787403 
    4000   -952.66579    41.184172   -911.48162    1475.0677    7656.6091    2.2122509   0.21366337   0.12147757 
    4100   -956.30594    40.531378   -915.77456     1451.687    1654.0674    2.2066359   0.20727658  0.083352966 
    4200   -946.30452    39.300515     -907.004    1407.6019   -6320.6024    2.1640762   0.14536585   0.11036947 
    4300   -947.47449     38.09318   -909.38131    1364.3596   -2885.0307     2.176602   0.40144228   0.10497786 
    4400   -953.84466    42.022066    -911.8226     1505.078    6469.9003    2.2127282   0.10430481  0.096191149 
    4500   -950.15466     47.02156    -903.1331    1684.1418    5177.6831    2.2008941   0.10351076   0.12835294 
    4600   -947.28173    41.174864   -906.10687    1474.7343   -1213.2191    2.1768534   0.37267435   0.10507357 
    4700   -951.84714    41.427705   -910.41943    1483.7901   -9730.1982    2.1693949   0.10815678   0.13719827 
    4800   -952.44287    43.555512   -908.88736    1560.0005   -708.52539    2.1910058   0.16841578   0.14204018 
    4900   -946.01362    45.035553   -900.97807    1613.0102     7990.043    2.1941863   0.18566907   0.13871203 
    5000   -952.00682    43.299163   -908.70766     1550.819    301.96458    2.1949949   0.15561539   0.12046318 
    5100   -951.50537    41.017419   -910.48795    1469.0952   -6587.0227    2.1745598   0.44069825   0.09830392 
    5200   -948.16195    44.254274   -903.90768    1585.0276   -2553.7687    2.1728508   0.22271132    0.1196106 
    5300   -951.30387    45.429625   -905.87425    1627.1244    3202.6889    2.1960396    0.1153289  0.097714525 
    5400   -953.55788    43.026707   -910.53117    1541.0606    513.21291    2.1967896   0.09328129   0.11768796 
    5500   -951.20677    42.423785   -908.78299    1519.4661   -2499.8683    2.1793368   0.10031794   0.10302992 
    5600   -947.37035    43.710636   -903.65972    1565.5565   -2362.9265    2.1700723   0.10761697   0.11832123 
    5700   -947.55053    40.598347   -906.95218    1454.0856    2322.2635    2.1884461   0.18852208   0.12747755 
    5800   -951.56428    40.740059   -910.82423    1459.1612     4214.805    2.1976503     0.184561   0.11719746 
    5900   -952.49622    43.262243   -909.23397    1549.4967    722.32525    2.1906558    0.2314072    0.1297309 
    6000   -950.93719    43.384028   -907.55316    1553.8585   -3316.5422    2.1769976   0.12909615   0.11520751 
    6100    -947.3418    47.496979   -899.84482    1701.1695   -1432.6423    2.1739399  0.071189048   0.12921901 
    6200   -948.69785    45.248858     -903.449      1620.65    3456.4631    2.1887036  0.019710474   0.10617495 
    6300   -950.94776    42.961632   -907.98612    1538.7299   -2928.0737    2.1788502   0.10069901   0.11098305 
    6400   -949.66384    39.987734    -909.6761    1432.2156    -988.2744    2.1828853   0.35472395   0.10546101 
    6500   -954.53586    44.443773   -910.09209    1591.8148    923.24372    2.1960812     0.190643   0.11664653 
    6600   -947.01037    46.457064   -900.55331    1663.9236    2013.7259    2.1768965   0.10226379   0.11941394 
    6700   -948.76223    41.613614   -907.14862    1490.4487    3379.4557    2.1912104   0.04076564   0.12123219 
    6800   -954.27871    44.273579   -910.00513     1585.719   -2143.9765    2.1892221   0.25548344   0.11719838 
    6900   -950.10552    41.245867   -908.85965    1477.2774   -2406.1835    2.1804452   0.11809977   0.11793438 
    7000   -946.36284    45.474922   -900.88792    1628.7468   -2352.2094    2.1721579    0.3594765   0.13956897 
    7100   -950.32266    41.381475   -908.94118    1482.1343    7082.0901    2.2063429  0.041862594    0.1116426 
    7200   -952.21527    42.263105   -909.95217    1513.7111    2423.8711    2.1993211   0.24166548   0.12092584 
    7300   -949.61945    45.176299   -904.44315    1618.0512   -6789.0497    2.1647594  0.037600845   0.11134712 
    7400   -947.30386     42.92167   -904.38219    1537.2986   -7607.7174    2.1618303   0.30071382    0.1287765 
    7500   -952.80676    42.728492   -910.07827    1530.3796    6469.5566    2.2048731   0.12908058    0.1136821 
    7600   -949.74685    41.823355    -907.9235    1497.9609    13020.948    2.2176362   0.18654132   0.11610948 
    7700   -950.23569    45.917667   -904.31803    1644.6043   -7403.1814    2.1689314   0.58948979   0.14572264 
    7800   -944.46085    45.846754    -898.6141    1642.0644   -15262.136    2.1387377    2.2426489   0.14973577 
    7900   -951.83922    43.134389   -908.70483    1544.9174    1779.4575    2.1977251    1.1948769   0.13873021 
    8000   -950.41831    43.140568   -907.27774    1545.1387    8511.8761     2.207611    5.3342479   0.13329593 
    8100   -950.60066    41.879062    -908.7216    1499.9561   -1479.3198    2.1856871    4.5180878   0.14503585 
    8200    -952.5585    35.758355   -916.80015    1280.7346   -1983.5539    2.1857562    3.6779778   0.13108886 
    8300   -952.02551     41.85874   -910.16677    1499.2283   -2973.4672    2.1835329    4.1468666   0.13077917 
    8400   -948.62008      41.7417   -906.87838    1495.0363    4790.0951    2.1924445    3.2667616   0.13988873 
    8500   -951.36758    41.292288   -910.07529      1478.94    2044.8562    2.1938928    6.1898001   0.12896464 
    8600   -954.29561    37.738758   -916.55685    1351.6654   -1179.3196    2.1966567    3.4367983   0.12673042 
    8700   -950.67393    43.204857   -907.46907    1547.4413   -5034.3465    2.1713132     4.336492   0.14026176 
    8800   -949.24945    41.856682   -907.39276    1499.1546    1373.6162    2.1906102    4.9404277   0.13806319 
    8900   -953.09839    41.610836   -911.48756    1490.3492    4366.6678    2.2064835    4.0465873   0.15953271 
    9000   -954.10455    38.459623   -915.64492    1377.4842   -2161.6677    2.1910338    5.2985251   0.13461784 
    9100   -946.12194    40.727946   -905.39399    1458.7273   -14081.672    2.1448384    4.7004707   0.12458174 
    9200   -952.81256    45.570589   -907.24197    1632.1732    2687.8691    2.1930145    4.9674773    0.1261237 
    9300   -949.75851    42.160214    -907.5983     1510.026    17003.699    2.2271303    3.8855577   0.13192966 
    9400   -953.77182    40.956503   -912.81532    1466.9134     -378.058    2.1918729    6.0359538   0.14619878 
    9500   -949.56087    41.323991   -908.23688    1480.0755   -5842.3179    2.1676765    6.6754546     0.130719 
    9600   -949.49309    44.220828   -905.27227    1583.8297   -2334.2676    2.1793943    6.0611217   0.14514692 
    9700   -950.56332    42.314585   -908.24874     1515.555    2185.9968    2.1902502    4.7444133   0.13382696 
    9800   -953.84936      43.4328   -910.41656    1555.6054   -1731.4958    2.1898528     3.597958   0.12443993 
    9900   -950.06728    44.828914   -905.23837    1605.6091   -872.95297    2.1774408    5.3657085   0.14627327 
   10000   -947.30516    43.356745   -903.94842    1552.8814   -1872.4505    2.1716473    4.9371502   0.14017312 
   10100   -950.57023    41.510649   -909.05958    1486.7609   -1124.4279    2.1848717    6.7575726   0.13445257 
   10200    -949.4233     40.82033   -908.60297    1462.0362    3155.9889    2.1888805    3.5740186   0.12953129 
   10300   -944.20072    44.445559   -899.75516    1591.8787    432.41624    2.1745178    4.9206408   0.15156899 
   10400    -947.5432    41.230221   -906.31298     1476.717     2706.319    2.1898478    8.3397243    0.1374088 
   10500   -948.42952    39.668164   -908.76136    1420.7698   -3525.2138    2.1728517    4.2593634   0.15062071 
   10600   -950.55539    42.575976   -907.97941    1524.9171   -5032.7703    2.1753646    4.7821524   0.14540406 
   10700   -946.41355     47.44647   -898.96708    1699.3605    5187.0391    2.1856018    3.4608356   0.16472752 
   10800   -949.63877    44.532372   -905.10639    1594.9881    9207.7322    2.2039838    4.8921445    0.1514706 
   10900   -948.28034    39.687676   -908.59267    1421.4686   -5395.4317    2.1629939    5.5937781   0.14086648 
   11000   -950.24412    41.182857   -909.06127    1475.0206   -12177.758    2.1553713    5.1356107   0.14193304 
   11100   -947.05509    44.502439   -902.55265     1593.916    7256.9123    2.1938374    6.5133043   0.13956887 
   11200   -946.51263    43.401187   -903.11144    1554.4731    10617.949    2.2062826    5.2651503   0.14001126 
   11300   -950.34891    41.294147   -909.05476    1479.0066    -5574.352    2.1754392    4.9435626   0.13340084 
   11400   -950.68795    41.788904   -908.89904     1496.727   -8086.6106    2.1664887    4.9786001   0.14571882 
   11500   -949.07124    46.712369   -902.35887    1673.0677    796.70796    2.1772941    5.3601953   0.13639509 
   11600   -946.79368    41.648656   -905.14502    1491.7038    6880.8498    2.1960833    4.6985015   0.14654354 
   11700   -948.98491    39.806659   -909.17825    1425.7302    1264.8636    2.1894477    4.9391818   0.13952061 
   11800   -949.85766     41.57821   -908.27945    1489.1807   -2231.2773    2.1805972    4.6289214   0.14700163 
   11900   -946.85396     44.47472   -902.37924    1592.9232   -2169.7386    2.1744863    6.2188432   0.15022192 
   12000   -947.64005    43.566047     -904.074    1560.3778    554.88859    2.1837906    6.7587586   0.14928337 
   12100   -948.62818    40.017643   -908.61054    1433.2868     2755.525     2.190974    4.2501763   0.15294958 
   12200   -950.66222    42.329723   -908.33249    1516.0972    1192.7057    2.1873403    5.2109669   0.13126489 
   12300   -950.44573    44.304524   -906.14121    1586.8274   -2964.4271    2.1793434     7.434344   0.13548784 
   12400   -943.52942    44.914334   -898.61509    1608.6686   -5738.3446     2.156063    5.2038169   0.14885576 
   12500   -948.39644    40.701622   -907.69482    1457.7845    6876.1312    2.1982825    5.2584881   0.14912966 
   12600   -948.41707    40.624991   -907.79207    1455.0399     10661.23    2.2093408    4.1221909   0.14706872 
   12700   -949.56116    39.636752   -909.92441    1419.6447   -6795.0851    2.1723061    8.5457964   0.14725152 
   12800   -954.53645    36.662065   -917.87438    1313.1022   -12710.966    2.1647748    3.9035597   0.14483238 
   12900   -949.99131    38.583463   -911.40785    1381.9197    4538.0999    2.1971857    6.3036724   0.15725871 
   13000   -950.13817    43.015554   -907.12262    1540.6611    13633.368    2.2214924    4.2273969   0.15551308 
   13100   -952.22273     43.77815   -908.44458    1567.9746   -2638.3624    2.1847966    5.7117996   0.14088341 
   13200   -952.87522    37.556049   -915.31917    1345.1215   -12399.573    2.1676936    5.6169225   0.15193474 
   13300    -949.7316    38.240132   -911.49147    1369.6228   -1009.4874     2.184337    5.4182042   0.14150544 
   13400   -949.02094    42.400915   -906.62003     1518.647    8589.6792    2.2055856    3.5699545   0.15408931 
   13500   -950.54838    41.482373     -909.066    1485.7482    3033.9349    2.1971798    4.0807827   0.14379505 
   13600   -954.31125    38.451373   -915.85988    1377.1887    -5698.061    2.1824937    5.3075977   0.14179073 
   13700   -948.26775    39.694088   -908.57366    1421.6983   -3875.2319    2.1748973    4.3473887   0.16234235 
   13800   -947.55983    41.135911   -906.42392    1473.3391    4892.5397    2.1960467    3.0974732   0.14941765 
   13900   -950.95828    41.161905   -909.79637    1474.2702    4903.1433    2.2020157    5.7769747    0.1455007 
   14000   -951.52073    37.009193   -914.51153    1325.5351    120.34396    2.1937367    4.4897106   0.14804324 
   14100   -948.39111    42.995492   -905.39562    1539.9426   -8066.7713    2.1644998    4.2870809   0.16420456 
   14200   -948.87518    41.329602   -907.54558    1480.2765     1861.197    2.1878783     3.633282    0.1543443 
   14300   -949.94148    39.957055   -909.98442    1431.1168     8541.812    2.2115794    2.9759438   0.14218077 
   14400   -949.43275    48.559398   -900.87335    1739.2215   -3127.5046    2.1803642    4.0277052   0.14928371 
   14500   -945.51604    39.398276   -906.11777    1411.1034   -6607.3579    2.1677185    5.2184164   0.14610922 
   14600   -947.97578    38.368431   -909.60735     1374.218   -4553.6182     2.175467    3.2009107   0.13580874 
   14700   -948.20626    43.078073   -905.12819    1542.9004    7315.6118    2.2025249    3.9367737   0.14318561 
   14800   -942.98838    42.123542   -900.86483    1508.7125    10836.323    2.2000122    4.8439799   0.16974078 
   14900   -948.40826    39.067221   -909.34104    1399.2462     -8407.56    2.1608748    3.9568357   0.13209157 
   15000   -949.80796    39.974855    -909.8331    1431.7543   -14897.554    2.1493083    5.7396671   0.13097023 
   15100   -950.69799    45.215545   -905.48244    1619.4569    7600.4466    2.2041454    4.1119223   0.12075631 
   15200   -948.38158    42.925521   -905.45606    1537.4365    13000.927    2.2139075    4.4183949   0.12780167 
   15300   -952.02795    39.249258   -912.77869    1405.7661   -4194.6231    2.1841926    3.2202889   0.14761991 
   15400    -953.2459    43.182195    -910.0637    1546.6296   -7583.0796    2.1735142    4.4048317   0.12349923 
   15500    -954.1613    46.608336   -907.55297    1669.3416   -2140.8617    2.1884208    3.5319426   0.11675406 
   15600   -954.92298     41.43519   -913.48779    1484.0583    3832.4374    2.2052099    3.8920061   0.10786111 
   15700   -951.75121    37.891217   -913.85999     1357.126    213.69383    2.1941685    4.1080867   0.12487675 
   15800   -949.45854    40.977629   -908.48092    1467.6701   -2926.1743    2.1789762    5.4501141   0.13036647 
   15900   -948.95947    40.612018   -908.34745    1454.5752    319.95843    2.1863485    4.3359006   0.12217501 
   16000   -955.69586    39.372471   -916.32339    1410.1791    4885.9789     2.212352    5.0180729   0.11583026 
   16100   -952.67755    43.227929   -909.44962    1548.2677   -2013.5973    2.1869024    4.4907797   0.12454281 
   16200   -952.91228    44.690727   -908.22155    1600.6598   -5301.7955    2.1766105     3.930965   0.13271066 
   16300   -955.58889    44.087836   -911.50106    1579.0664   -3233.6426    2.1882698    3.8461661   0.11762035 
   16400   -955.10323    38.794389   -916.30884    1389.4743    7508.6064    2.2172919    3.6313673   0.11136121 
   16500   -950.51792    43.644456   -906.87347    1563.1862   -224.85056    2.1834081    4.0080977   0.12252254 
   16600   -950.79523    42.101558   -908.69367    1507.9251   -9916.5961    2.1610033    3.6456996   0.12583367 
   16700    -950.7773    39.969892   -910.80741    1431.5766    -1655.623     2.183214    4.2425865   0.12980268 
   16800   -954.41392    38.534975   -915.87895    1380.1831    11579.578     2.224809    4.4907063   0.11083278 
   16900   -950.95699    41.889785   -909.06721    1500.3402    4624.9889    2.2023436    3.9400225   0.12068311 
   17000   -949.58245    41.515614   -908.06683    1486.9387   -6841.0254    2.1696025    4.0008557   0.13219881 
   17100   -948.38382    38.812376   -909.57145    1390.1186   -6515.9823    2.1702787     3.798191   0.14296341 
   17200   -950.05235    40.742776   -909.30957    1459.2585    6129.5429    2.2024772    4.6228622   0.13407701 
   17300    -942.8369    43.115352   -899.72155    1544.2355    9559.9959    2.1963936    4.2795937   0.13260437 
   17400   -946.98136    40.541363      -906.44    1452.0446    440.41605    2.1873225    3.2984449   0.13175682 
   17500   -949.90614    39.771513   -910.13463    1424.4714   -6085.5861    2.1719961    3.2195459   0.13057508 
   17600   -949.60854    41.029023   -908.57952    1469.5108   -119.09658    2.1827213    4.5078372   0.12623609 
   17700   -947.13408    46.943242   -900.19084    1681.3367    4649.8589    2.1884199    3.8134853   0.12989957 
   17800   -951.51168    43.183356   -908.32833    1546.6712    6668.3965    2.2060473    3.8647234   0.12264592 
   17900    -950.5194    40.348061   -910.17134    1445.1212   -4062.7517     2.175866    5.5004117   0.13558689 
   18000   -947.70592    42.029686   -905.67623    1505.3509   -11626.823    2.1503104    4.7636233   0.13422395 
   18100   -945.87431    44.409775   -901.46453    1590.5971    4247.1506     2.187207    3.4794527   0.13847331 
   18200   -951.83632    43.831863   -908.00446    1569.8984      23805.6    2.2483111    4.1751479    0.1122018 
   18300    -950.1581    40.732687   -909.42541    1458.8971    790.78428    2.1906682    4.4768869    0.1335252 
   18400   -949.00462     42.69946   -906.30516    1529.3398    -17569.27      2.14243    4.4748161   0.14725947 
   18500   -952.90704    40.989095   -911.91794    1468.0807   -4860.5846    2.1815783    4.9513817   0.12206605 
   18600   -956.52557    43.361598   -913.16397    1553.0552    6925.1684    2.2180552      3.67956    0.1245593 
   18700   -951.08402     42.30506   -908.77896    1515.2138    4720.3896    2.2052774    5.4913107   0.12809712 
   18800   -951.74733    43.500261   -908.24707    1558.0216   -6010.6381    2.1745314    6.0859098   0.13673014 
   18900   -955.63731    39.125097   -916.51221    1401.3191   -5559.1117    2.1862088     4.774785   0.12787887 
   19000   -951.05179    39.598092    -911.4537      1418.26    3463.2474    2.1986442     4.315689   0.12535984 
   19100   -951.33121    44.156641   -907.17457    1581.5307    6943.9352    2.2070858    4.3422534   0.11549294 
   19200   -953.78947    43.007422   -910.78205    1540.3699    -712.1353    2.1927296    4.1260158   0.12125953 
   19300   -955.83784    39.145708   -916.69214    1402.0573   -6831.9519    2.1847683    4.3563833   0.13044392 
   19400   -946.92238    38.562086   -908.36029    1381.1541   -3665.6874    2.1772036    2.6900847   0.13757008 
   19500   -952.32466    43.905758    -908.4189     1572.545    4759.2855    2.2042606    4.0129024   0.12877816 
   19600   -956.01311    43.344841   -912.66827     1552.455    6010.1057    2.2133833    4.7321462   0.11982559 
   19700    -956.4267    40.962535   -915.46417    1467.1294   -6570.9695    2.1860476    4.7315229   0.12704219 
   19800   -951.72874    45.207029   -906.52171    1619.1518   -12176.838    2.1552987    5.0445478   0.13052305 
   19900   -950.93636    42.093238   -908.84312    1507.6271    1518.3299    2.1952674    4.1403408   0.13051065 
   20000   -952.48647    43.026862   -909.45961    1541.0662    12354.572    2.2256917    3.4344026     0.126856 
   20100   -947.69984    44.231487   -903.46835    1584.2115    882.85642    2.1878159    3.8823733    0.1353273 
   20200   -944.67747    40.431567    -904.2459    1448.1121   -6989.7338    2.1585138    4.3254297   0.15512516 
   20300   -950.39412    40.549833   -909.84428     1452.348   -3684.9519     2.182637     5.366117   0.12237186 
   20400   -951.21464    42.105676   -909.10896    1508.0726    3661.3891    2.2045382    5.4236382   0.14751439 
   20500   -942.90777    42.033962   -900.87381    1505.5041    4407.8251    2.1824471    4.4673096   0.14848902 
   20600   -951.43279    42.610502   -908.82229    1526.1537   -1815.0363     2.186781    4.8114596   0.13289108 
   20700   -954.58712    44.464681   -910.12244    1592.5636   -3838.6563    2.1822396     4.962319   0.13700924 
   20800   -950.66747    43.913822   -906.75365    1572.8338    350.01783    2.1882209    4.4911499   0.12635071 
   20900   -947.21674    46.873558   -900.34318    1678.8409    1788.7808    2.1843771    3.7335349   0.12863678 
   21000   -948.74852    38.887923    -909.8606    1392.8244     4759.877    2.1987509    3.9413234   0.12941345 
   21100   -951.45416     41.77521   -909.67896    1496.2365   -5274.7713    2.1772321    3.3626613   0.13321152 
   21200   -948.58479    40.675703   -907.90909    1456.8562   -2316.7272    2.1775989    5.5086145   0.11713496 
   21300    -952.5385    42.606462   -909.93203     1526.009    3462.7852    2.2002344    5.0426712    0.1207618 
   21400   -954.98923    39.711456   -915.27777    1422.3203    8793.5207    2.2200473    5.4071343   0.13032517 
   21500   -950.97574    41.085359   -909.89039    1471.5286   -372.44856    2.1887186    4.3001304   0.14416547 
   21600   -947.22777    38.843676    -908.3841    1391.2396   -9142.2206    2.1590166    3.5660171   0.15426852 
   21700   -950.58849    42.334674   -908.25381    1516.2745   -620.38273    2.1856015     4.485161   0.12125082 
   21800   -956.56475    40.473246   -916.09151    1449.6049    17448.795    2.2461619    4.1287727   0.10632752 
   21900   -948.97171    39.686881   -909.28483    1421.4402    4092.3789    2.1966216    4.9926184   0.12462679 
   22000   -948.28112    39.598823   -908.68229    1418.2862   -11907.486    2.1546084    5.2957241   0.12984649 
   22100   -948.65496    39.857954   -908.79701    1427.5674   -3449.2311    2.1757563    5.3379376   0.11166123 
   22200   -958.13244    41.104087   -917.02836    1472.1993    6868.6213    2.2200543    4.6012904  0.098967151 
   22300   -950.79811    41.453144   -909.34496    1484.7013     2741.992    2.1934597    5.1593081   0.10684411 
   22400   -947.35655    38.954953   -908.40159    1395.2251   -3596.1338    2.1764442    6.4791422   0.12206807 
   22500   -952.62367    41.060399   -911.56327    1470.6346   -3474.9131    2.1813919    5.9397842   0.13013853 
   22600   -954.16041    37.427056   -916.73336    1340.5014    4584.3854    2.2079136    3.0042018    0.1326467 
   22700   -950.56628    42.457363   -908.10891    1520.6688    2940.6684    2.1917059    3.7428261   0.13741997 
   22800   -952.51066    43.420627   -909.09003    1555.1694   -4114.7035    2.1773186    5.4385648   0.13219604 
   22900   -954.55905    43.171629   -911.38742    1546.2512   -5888.0986    2.1797164    3.8524748   0.12909096 
   23000   -956.78274     37.94707   -918.83566    1359.1264    3820.8239    2.2127784    4.8550256   0.10921945 
   23100    -949.5634    39.130814   -910.43258    1401.5239    4310.6821    2.1955651    4.6875465   0.11500386 
   23200   -950.10476    40.847408   -909.25735     1463.006   -915.12622    2.1834485    5.1841023   0.11981255 
   23300   -947.38184    37.855364   -909.52647    1355.8418   -2593.2799    2.1759026    5.3587581   0.12911879 
   23400   -954.47541    42.722383   -911.75303    1530.1608    953.80983    2.1960459     5.044723   0.11491748 
   23500   -955.13163    37.749339   -917.38229    1352.0444    10008.018    2.2244305    4.5537752   0.11070439 
   23600   -953.78295     43.31492   -910.46803    1551.3834   -1395.2362    2.1922974    4.6365169   0.12332418 
   23700   -947.85153    38.887521   -908.96401      1392.81   -10313.332    2.1572052    4.0487021    0.1484874 
   23800   -946.07776    38.714377   -907.36338    1386.6086   -1571.9363    2.1753881    3.8223681   0.14147105 
   23900   -954.11012    37.802429   -916.30769    1353.9459    14436.858    2.2321019    4.8444405   0.12787316 
   24000   -951.92943    41.438916   -910.49051    1484.1917     3345.992    2.1965041     4.364341   0.12013077 
   24100   -951.12685    42.628404   -908.49844    1526.7948   -9935.0319    2.1630602    4.8396778   0.12126116 
   24200   -945.92586    36.476195   -909.44966     1306.445   -2898.6982    2.1754451    6.5050954   0.13729899 
   24300   -956.65862    40.080705   -916.57791    1435.5455    6350.5233    2.2197076    4.2713575   0.11093062 
   24400   -952.57245    44.347363   -908.22508    1588.3617    1471.2348    2.1933039     5.661166   0.11033524 
   24500   -951.97876    43.356201   -908.62256    1552.8619   -5922.7754    2.1764339    3.3294814   0.11437966 
   24600    -953.3796    41.202917   -912.17669    1475.7391   -4518.9764    2.1808059     3.168349    0.1230893 
   24700   -956.14925       39.911   -916.23825    1429.4673    3200.4475    2.2069127    4.6916847   0.13293706 
   24800   -950.92415    43.493691   -907.43046    1557.7863    923.73857    2.1892744    4.2546309   0.13510079 
   24900   -950.26215    41.273825   -908.98833    1478.2787    -1452.126    2.1832654    3.0970134   0.15170772 
   25000   -953.26089    41.353845   -911.90704    1481.1447   -2054.2838    2.1863747    4.1098388   0.13780348 
   25100   -953.74054    35.801107   -917.93944    1282.2658    4086.6813    2.2075044    4.7621948   0.12443237 
   25200   -949.95296    39.910979   -910.04198    1429.4665    2996.8968      2.19504    5.5259241   0.13177466 
   25300    -951.6473    42.640682   -909.00662    1527.2346     98.58402    2.1919248    3.1643953   0.12361679 
   25400   -950.62141    41.501401   -909.12001    1486.4297   -4436.0257    2.1776409    4.1623406   0.13171445 
   25500    -949.6949    40.541466   -909.15344    1452.0483   -3352.0896    2.1732355    3.0269482   0.11200165 
   25600   -958.45256    40.445886   -918.00668    1448.6249    8705.0296    2.2283001    3.9872313   0.10488698 
   25700   -953.12904    42.052587   -911.07646    1506.1712    7515.6422     2.210287    3.5897313   0.11307699 
   25800   -951.00584    42.186379   -908.81946    1510.9631   -9108.5722    2.1636621    4.5066816    0.1320891 
   25900   -946.58745    38.466918   -908.12053    1377.7455   -8452.5992    2.1602549    4.6870657   0.15179877 
   26000   -955.29812    38.294487   -917.00363    1371.5697    6716.2162    2.2182506    5.1117875   0.13174582 
   26100   -954.73827    44.105815   -910.63245    1579.7103     6703.372    2.2122983    4.3447018   0.12639705 
   26200   -951.78566    43.364593   -908.42106    1553.1625   -4695.2969     2.178973    3.8185046   0.12635005 
   26300   -950.87001    40.898521   -909.97149    1464.8367   -9619.9388    2.1677164    4.1592751    0.1386233 
   26400   -959.03604    41.747085   -917.28896    1495.2292    1282.1044    2.2073896    4.4984098   0.11907508 
   26500   -948.88075    39.902293   -908.97846    1429.1554    6780.4197    2.2040177     3.630064   0.13007078 
   26600   -950.23578    41.709896   -908.52588    1493.8972    1521.3564    2.1916715      3.26221   0.12227117 
   26700   -951.47494    40.246555   -911.22838    1441.4856   -5673.2205    2.1767515    2.7194682   0.12132256 
   26800   -956.63103    38.659435    -917.9716    1384.6408   -1526.5534    2.1969208    3.2289837   0.11591723 
   26900   -949.20299    39.845899   -909.35709    1427.1356    5565.9903    2.1969284    4.4201521    0.1212069 
   27000   -948.19264    39.709854   -908.48278     1422.263    6897.3698    2.2014471    4.7642969   0.12974849 
   27100   -951.25666    40.572383   -910.68428    1453.1556   -4013.1182    2.1794235    4.8097747   0.13007884 
   27200   -953.00342    35.488442   -917.51498    1271.0673   -10609.488    2.1710692    5.1767247   0.14424773 
   27300   -954.07246    40.926337   -913.14612     1465.833    3600.7883    2.2016696    4.2178691   0.12499731 
   27400   -950.91101    43.015687   -907.89533    1540.6659    18075.327    2.2347665    4.1137775   0.13453305 
   27500   -952.42169    43.231458   -909.19023     1548.394   -1566.4169    2.1838086    3.2050736    0.1259017 
   27600   -944.83893     39.12381   -905.71512     1401.273   -12318.898    2.1468748    3.2603681    0.1446724 
   27700   -943.11122    44.661012   -898.45021    1599.5955   -3531.8736    2.1639314    4.7065459   0.14210843 
   27800   -950.83666    43.262647   -907.57401    1549.5111    11562.958    2.2161931    3.8737047   0.11033326 
   27900   -950.60718    41.199482    -909.4077     1475.616    3370.7137    2.1966851    4.4185921   0.12632953 
   28000   -951.10782     40.94172    -910.1661    1466.3839   -6763.7042    2.1693766    4.3567496   0.12199164 
   28100   -943.21843    39.491618   -903.72681    1414.4465    1394.1603    2.1731162    5.1856437    0.1554408 
   28200   -944.34658    41.418448   -902.92813    1483.4586     9502.058    2.1957427    4.7524633    0.1406838 
   28300   -949.83125    41.875408   -907.95584    1499.8252    1489.2387    2.1867307    4.9162065   0.12854828 
   28400   -950.76731    39.898014   -910.86929    1429.0022   -7030.1373    2.1731837    4.5705625   0.13217979 
   28500   -951.01081    44.311128   -906.69968    1587.0639   -1868.0985    2.1809108    2.8774509   0.12635061 
   28600   -948.94674    45.718004   -903.22873    1637.4531    4021.7768    2.1912555    4.3886414    0.1396384 
   28700   -949.77453    40.301086   -909.47345    1443.4387    1880.9828    2.1913877    5.4631953   0.12384498 
   28800    -951.6786    41.756932   -909.92167    1495.5819   -5283.4057    2.1742352    4.8322775   0.11643161 
   28900   -946.54599    44.286131   -902.25986    1586.1686   -3051.1358    2.1681391    5.1658195   0.13211145 
   29000   -949.96975    40.558158   -909.41159    1452.6461    10522.565    2.2097922    4.5753133   0.12331402 
   29100   -952.25727    41.913999   -910.34327    1501.2075    2601.5752    2.1962586    4.0460692   0.12079535 
   29200   -950.53382    42.391286   -908.14253    1518.3021   -11294.679    2.1577482    5.1171291   0.12847718 
   29300   -945.70192     43.15795   -902.54396    1545.7613   -6486.5836     2.159272    4.6175927   0.14739052 
   29400   -951.28978    39.073123   -912.21666    1399.4576    16757.568    2.2343129    4.3133691   0.14858961 
   29500   -952.33252    42.362091   -909.97043    1517.2565    7112.7363    2.2105843    3.9858005   0.13775804 
   29600   -950.81433     42.78578   -908.02855    1532.4315   -10004.438    2.1584214    4.1321727   0.12976236 
   29700   -949.83709    45.722983   -904.11411    1637.6314   -8378.2352    2.1650962    5.2220827   0.12699924 
   29800   -953.92122    40.134894   -913.78633    1437.4864    8578.4331    2.2160008    6.2322663   0.11774338 
   29900   -952.60288    41.650703   -910.95218    1491.7771     2453.628    2.1994319    4.5917692   0.12648159 
   30000   -949.08743    41.143562   -907.94387    1473.6132   -3824.8501    2.1784844    5.5010995   0.12661141 
   30100   -950.09627    42.484495   -907.61177    1521.6405   -4464.4159    2.1778157    3.7961307   0.11618338 
   30200   -955.19119    39.933342   -915.25785    1430.2675    5392.9954    2.2136396    4.7158901   0.10301275 
   30300   -951.52195    42.567608   -908.95434    1524.6173     3278.404    2.2013102    4.4862309   0.12836727 
   30400   -951.10879    43.057717   -908.05107    1542.1713    -4793.814    2.1787245    3.4249026   0.12100874 
   30500   -952.11084    37.359612   -914.75123    1338.0858   -6588.2202    2.1795997    4.6922145   0.11466838 
   30600   -956.24788    44.386452   -911.86142    1589.7617   -950.23994    2.1949974    4.2011838   0.10556379 
   30700   -951.09994    44.319314   -906.78063    1587.3571    7890.3212    2.2083315      4.59988   0.13060181 
   30800   -951.91945    40.838169   -911.08128    1462.6751   -37.843072      2.18936    5.4821663   0.11704846 
   30900   -956.06513     40.74768   -915.31745    1459.4341   -11146.244    2.1706608    5.0058224    0.1020894 
   31000   -951.63154    45.075605   -906.55593    1614.4447   -7220.4663    2.1686409    4.7067585   0.10267281 
   31100    -949.7448    43.579915   -906.16488    1560.8745    12818.473     2.219302    4.0318274   0.11359011 
   31200   -949.78768    41.365041   -908.42264    1481.5458    7628.7047    2.2032416    5.9107276   0.14153525 
   31300   -945.88748    44.340028   -901.54745     1588.099   -7476.2836    2.1584168    12.886102   0.13288995 
   31400   -947.87776    45.282855    -902.5949    1621.8676   -5524.4173    2.1641453    13.308825   0.13998276 
   31500   -949.37814    42.107324   -907.27081    1508.1316    526.97018    2.1850356    8.0762629   0.12163149 
   31600   -952.58647    42.885512   -909.70096    1536.0035    627.45582    2.1920536    10.307554   0.13541653 
   31700   -944.91938    37.853521   -907.06586    1355.7759    2517.8721    2.1851789    10.642921   0.15169275 
   31800   -944.40118    44.279309   -900.12187    1585.9243   -3512.6179    2.1610216    12.452115   0.14702909 
   31900   -949.71081    42.448105   -907.26271    1520.3372   -1383.4688    2.1810578    15.069209   0.13274706 
   32000   -952.53402    44.216042   -908.31798    1583.6583    5241.1997    2.2021425    9.8537787   0.13518587 
   32100   -951.20723    38.884179   -912.32305    1392.6903    1192.0968    2.1930199    10.709267   0.13672753 
   32200   -956.29566     37.55751   -918.73815    1345.1738   -6747.2727    2.1811314    11.808555   0.13405641 
   32300   -948.16366    39.037823   -909.12584    1398.1932    -7034.033    2.1664637    10.349941   0.15219108 
   32400   -951.04022    43.251354   -907.78887    1549.1066    5301.2124    2.1993973    9.9184397    0.1360774 
   32500   -951.42092     43.58129   -907.83963    1560.9238    10877.785    2.2094605    9.5290722   0.13530048 
   32600   -949.82973    36.831419   -912.99831    1319.1679    -2022.536    2.1770738    10.989962   0.13429672 
   32700   -954.41073    39.409332   -915.00139    1411.4994   -9042.2889    2.1717591    13.227936   0.12685998 
   32800   -951.44858    43.123987   -908.32459    1544.5448    2311.9141     2.191833    9.3156258   0.12494866 
   32900    -951.1554    43.880855   -907.27454    1571.6531    4120.2988    2.1946632    9.9320203   0.13070448 
   33000     -953.338     39.89867   -913.43934    1429.0257   -2105.0999    2.1877188    13.683729   0.13827261 
   33100   -947.64615     37.05418   -910.59197    1327.1463   -1647.0962    2.1784237    26.458034   0.14667242 
   33200   -952.63759    46.169395   -906.46819    1653.6203    -3619.265    2.1790241    26.983301   0.12103164 
   33300    -950.5161    41.736207   -908.77989    1494.8396   -1097.4557    2.1844569    21.777925   0.12052469 
   33400   -951.83868    37.535795   -914.30289    1344.3961    517.82448    2.1880004    22.435016   0.13364886 
   33500   -950.10622     41.45194   -908.65428    1484.6582    3326.2635    2.1897428    19.539035   0.14317264 
   33600   -949.87234    43.202824   -906.66952    1547.3685    4193.1006    2.1936555    10.810448   0.13759212 
   33700   -949.21382    40.749842   -908.46398    1459.5116   -3996.3855    2.1781283    7.4802532   0.12586155 
   33800   -951.18602    38.419388   -912.76663    1376.0432   -5829.4063    2.1771312    11.085068   0.13217004 
   33900   -953.01622    36.689589   -916.32663     1314.088    1699.6492    2.1989823    12.936484   0.13100532 
   34000   -947.84245    39.817058   -908.02539    1426.1026    4042.8993    2.1881646    11.642439   0.15103505 
   34100   -948.13044    40.142852   -907.98758    1437.7714    685.32131    2.1822193    8.4310942   0.15661393 
   34200   -950.74323    42.140468   -908.60277    1509.3187   -2128.5357    2.1845276    12.704081   0.13772303 
   34300   -954.44918    37.067685   -917.38149    1327.6301    3758.4294    2.2037716     10.87884   0.12662899 
   34400   -953.36822    43.583778   -909.78444    1561.0129    -4000.292    2.1856067    12.458684   0.13522823 
   34500   -952.55637    45.354262   -907.20211    1624.4252   -389.88223    2.1790216    10.963416   0.13118054 
   34600   -950.48852    40.629708   -909.85881    1455.2088   -1051.0845    2.1861735    16.417776   0.13074562 
   34700   -955.36004    39.937877   -915.42217    1430.4299    3568.1087    2.2035209    16.895446   0.11524327 
   34800   -951.83389    45.516637   -906.31726    1630.2409   -1135.2894    2.1804727    15.534352   0.11763856 
   34900   -950.59831    43.059755   -907.53855    1542.2443   -6302.7013    2.1720312    16.315555    0.1317552 
   35000   -952.56903     43.05252   -909.51651    1541.9852   -3037.2693    2.1854494    14.952374   0.14312023 
   35100   -953.92531    36.981562   -916.94375    1324.5454    4294.8482    2.2096955    12.855093    0.1553992 
   35200    -951.1687     41.25934   -909.90935    1477.7599   -30.651296    2.1866913    12.341673   0.14505072 
   35300   -951.16324    42.796077   -908.36717    1532.8003   -4348.1652    2.1828577    10.893383   0.14149988 
   35400   -949.18114    40.814263   -908.36688    1461.8189    1811.0612    2.1871118     12.09673   0.13059068 
   35500   -951.00788     36.58765   -914.42023    1310.4369    4565.3087    2.2004042    10.850201    0.1448879 
   35600   -949.42091    37.698146   -911.72276    1350.2109    2353.7989    2.1905344    13.055958   0.15123281 
   35700   -948.39675    41.702254    -906.6945    1493.6235    864.20034    2.1827108    11.836237   0.13289415 
   35800   -949.90328    40.071369   -909.83191    1435.2111    617.12842    2.1875176    11.045832   0.13671812 
   35900   -952.75307     37.95887    -914.7942    1359.5491   -333.26724    2.1937048    11.861543   0.15678454 
   36000     -950.929    45.846217   -905.08278    1642.0452   -3178.0634    2.1760749     13.01662   0.15273817 
   36100   -946.91956    40.259649   -906.65991    1441.9546    6588.1671    2.1914864    12.237377   0.14772406 
   36200    -948.9497    38.567971   -910.38173    1381.3649    3656.1142    2.1954869    12.989008   0.14167598 
   36300   -949.76055    42.297997   -907.46255    1514.9609   -2317.5892    2.1798125    10.039426   0.12314643 
   36400   -946.29109    43.721239   -902.56985    1565.9362   -4640.0266    2.1658309    13.433051   0.12501846 
   36500   -949.71165    40.863301   -908.84835    1463.5752    -1169.407     2.183829    13.051149   0.12951571 
   36600    -947.0811    38.876463   -908.20463    1392.4139    8172.3462    2.2005198    12.697563   0.14199204 
   36700   -946.14045    46.307316   -899.83314    1658.5601   -41.887545    2.1746913    14.591536   0.14397933 
   36800   -951.74533    44.053011   -907.69232    1577.8191    -7267.951    2.1700501    14.468758    0.1199665 
   36900   -948.53823    39.795081   -908.74314    1425.3155   -1793.8212    2.1752415    14.155821   0.14112927 
   37000   -949.26167    44.023053   -905.23861    1576.7461    10523.858    2.2008007    16.113419   0.13989125 
   37100   -942.98713    46.139697   -896.84743    1652.5566    7541.3628    2.1871781    11.094549   0.16921936 
   37200   -946.06942    40.170976   -905.89844    1438.7787   -820.22113    2.1766958    12.455644   0.14860871 
   37300   -946.58974    39.264976   -907.32476    1406.3291   -11006.079    2.1517471    12.339578    0.1461614 
   37400   -949.50759    40.843172   -908.66442    1462.8543    786.79586    2.1865202    10.845321   0.13800497 
   37500   -953.90721    40.807703   -913.09951    1461.5839     14379.03    2.2262376    11.976039    0.1390317 
   37600   -951.21561    38.790523   -912.42509    1389.3359    4292.3729    2.1981636    13.546837    0.1462167 
   37700   -949.20865    42.590297   -906.61836      1525.43    -9951.861    2.1551275    12.839136   0.16125629 
   37800   -949.37563    41.041622     -908.334     1469.962   -2626.0069    2.1728549     20.31149   0.14913241 
   37900   -953.04942    44.234126   -908.81529     1584.306    5889.4518    2.2019872    21.441681   0.13285401 
   38000   -948.38067    48.929705   -899.45096    1752.4846    438.26034    2.1791581    28.158859   0.12968601 
   38100   -950.08381    44.141563   -905.94225    1580.9907   -2556.1108    2.1807129    22.517937   0.13789021 
   38200   -948.61095    40.040054   -908.57089    1434.0895   -2001.3454    2.1795425    17.207067   0.13917964 
   38300   -945.70102    38.229602   -907.47141    1369.2457    3198.7874    2.1900137     18.43482   0.13779049 
   38400   -957.30449    40.375771   -916.92872    1446.1137    2189.6719    2.2108704    19.900951   0.11206414 
   38500    -954.0742    42.193651   -911.88055    1511.2236   -4217.5156    2.1841228    23.190829   0.11300764 
   38600   -950.89032    42.338409   -908.55191    1516.4083   -4431.8603    2.1750591    20.133996   0.11303271 
   38700   -949.22575    42.203511   -907.02224    1511.5767    1973.1612    2.1921779    21.026084   0.13225386 
   38800   -956.27106    40.373712   -915.89735    1446.0399    7084.1134    2.2189926    18.645482   0.12562503 
   38900   -950.68116     40.16626    -910.5149    1438.6098   -4021.1219    2.1799994    18.370279   0.12438173 
   39000   -949.17558    40.965232   -908.21035     1467.226   -9902.0843    2.1594235    21.260758   0.12802652 
   39100   -953.94031    44.006634   -909.93367    1576.1581    284.56693    2.1934461    21.338694   0.11046045 
   39200   -957.02967    42.053735   -914.97594    1506.2123    16033.143     2.240439    18.629594   0.12265041 
   39300   -945.74601    39.174369   -906.57164    1403.0838    2442.7388    2.1836776    22.358357   0.13052226 
   39400   -950.04016    41.141405   -908.89876    1473.5359   -13814.182    2.1525844    19.669998   0.12918854 
   39500   -950.96285    39.364275   -911.59857    1409.8856   -899.25724    2.1864406    21.025263   0.11696078 
   39600   -953.23834    36.532531   -916.70581    1308.4628    11792.392    2.2258332    21.431204   0.12310075 
   39700   -949.31401    41.819894   -907.49412    1497.8369     601.8555    2.1879203    18.589298   0.13882589 
   39800   -948.99722    40.713039   -908.28418    1458.1934   -2234.0041     2.179413    18.542552   0.12738769 
   39900   -954.87407    45.085868    -909.7882    1614.8123   -1526.8056     2.187446    19.406836   0.10787751 
   40000     -952.832    39.645977   -913.18602    1419.9751    3650.6295    2.2038807    18.123135   0.12038016 
   40100    -958.9501    39.797337   -919.15277    1425.3963    2282.5128    2.2131723    19.692076   0.11407961 
   40200   -951.18856    40.489177   -910.69939    1450.1755   -3805.0283    2.1809074    23.204951   0.13651071 
   40300    -951.0403    41.594718   -909.44559     1489.772   -6756.3944    2.1757913    18.770342   0.13669337 
   40400   -950.09569    42.810662   -907.28503    1533.3227    3885.2177    2.1958847    21.619164    0.1215289 
   40500   -953.68442    41.627474   -912.05695    1490.9452     5480.114    2.2084903    20.426449   0.12295978 
   40600   -954.93176    40.307477   -914.62428    1443.6677    -3347.712    2.1899608    20.809419   0.12650461 
   40700   -949.04536      38.8723   -910.17306    1392.2648   -4798.5297    2.1758642    22.070215   0.13279271 
   40800   -953.32415    45.697309   -907.62685    1636.7119     109.4036    2.1921149    17.161673   0.10999734 
   40900   -955.22468    41.270014   -913.95467    1478.1422    8859.9022    2.2217209     19.41049   0.11261138 
   41000   -955.44334    42.039365   -913.40397    1505.6976   -2543.4288    2.1916888    17.896566   0.11848778 
   41100   -952.60474      43.8221   -908.78264    1569.5487   -12608.003    2.1574438    21.169702   0.13307788 
   41200    -949.9317    41.177672   -908.75403    1474.8349   -1134.5807    2.1841903    21.215303   0.14652934 
   41300   -956.72841    41.847361   -914.88104    1498.8207    13748.474    2.2320376    19.278033   0.12366963 
   41400   -950.22276    41.059816   -909.16295    1470.6137    4495.7866     2.198719    20.525531    0.1231616 
   41500   -948.04308    40.072182    -907.9709    1435.2402   -7723.2341    2.1656726    22.923931   0.13041418 
   41600   -948.44398    38.406338   -910.03764    1375.5757   -4079.1162     2.176006    19.758898   0.14332339 
   41700   -951.26865    38.819575   -912.44907    1390.3764    8080.1447    2.2120015     18.54176   0.13837661 
   41800   -948.04511    45.157299   -902.88781    1617.3707    3894.0805    2.1896235    20.244443   0.13038994 
   41900    -947.5774     40.93732   -906.64008    1466.2264   -1243.3571    2.1799141    21.555602   0.12145491 
   42000   -951.99781    41.706306    -910.2915    1493.7686   -3469.5573    2.1797636    23.206586   0.11614022 
   42100   -952.58857    42.812569     -909.776    1533.3909      1562.55    2.1940673    19.876926   0.13807702 
   42200   -948.21016    46.626529   -901.58363    1669.9932    85.708913    2.1814473    20.830775   0.14662776 
   42300   -951.38782    42.352708   -909.03511    1516.9204   -1247.1993    2.1890218    21.615507   0.13431468 
   42400   -951.44049    40.918995    -910.5215      1465.57   -1727.5547    2.1852693    21.997327   0.13058242 
   42500   -946.87585    43.211609   -903.66424    1547.6831    3261.1181    2.1821858    20.785671   0.13801678 
   42600   -951.31317    45.426694   -905.88648    1627.0194   -450.88302    2.1870964    21.036225   0.13374944 
   42700   -951.75371    41.206271   -910.54744    1475.8592   -2166.9521    2.1854954    18.834766   0.13431559 
   42800   -951.29254    42.836546   -908.45599    1534.2497   -2886.0383    2.1799867    20.302891   0.12342837 
   42900   -946.53516    45.059096   -901.47606    1613.8534    397.30185    2.1783041    20.924802   0.13007977 
   43000   -951.54898    41.314971   -910.23401    1479.7524    8612.3631    2.2096549    19.612749   0.12910955 
   43100   -952.40454    42.093523   -910.31102    1507.6373   -7558.9691    2.1754808    23.296582   0.13158293 
   43200   -951.78103    43.641608   -908.13942    1563.0841   -11910.719    2.1588929    22.338321   0.12870122 
   43300   -948.67773    43.031888   -905.64584    1541.2462    4062.3621    2.1883177    20.564031   0.12213243 
   43400   -940.64411     44.24878   -896.39533    1584.8308     9510.246    2.1897989    19.189603   0.14152607 
   43500   -948.13346    43.328497   -904.80496    1551.8696    1456.0979    2.1869827    19.475336   0.13769713 
   43600   -954.32013    45.890458   -908.42967    1643.6298   -9581.9202    2.1677233    21.151965   0.12753858 
   43700   -952.90726    42.469624   -910.43764    1521.1079   -2793.0595    2.1802504    21.164755   0.11506206 
   43800   -951.86639    38.993305   -912.87309    1396.5988    7781.6478    2.2130202    18.414171   0.12125917 
   43900   -947.15876    43.804417   -903.35435    1568.9154    2686.9957    2.1872669    22.079405   0.13257956 
   44000   -952.13412    45.243042   -906.89108    1620.4417   -4364.9112    2.1806791    21.871315   0.14283176 
   44100   -951.19963    41.168858   -910.03077    1474.5192   -4378.6529    2.1800849    21.073654   0.14008753 
   44200   -950.31776     40.45895   -909.85881    1449.0928    2613.9233    2.1946593    21.701066   0.12830851 
   44300   -947.39123    46.677693   -900.71354    1671.8257    3802.7063    2.1878543    18.221651   0.13375394 
   44400   -950.40347    42.542327   -907.86115    1523.7119    4079.4079     2.194093     18.64361   0.12997677 
   44500   -950.65541     40.04025   -910.61516    1434.0965   -3993.7175    2.1792472    21.184181    0.1342875 
   44600     -948.784    43.179878   -905.60412    1546.5466   -3456.3238    2.1738694    21.630721   0.13837235 
   44700   -949.78942    46.819752   -902.96967    1676.9137    2540.8268    2.1902716    21.023219   0.12238617 
   44800   -951.20825     41.69163   -909.51661     1493.243    6665.7503    2.2054959    22.313249   0.12478237 
   44900   -951.56304    42.437047   -909.12599    1519.9411   -4772.2059      2.18089    22.092178   0.13370068 
   45000   -944.29706    41.430518   -902.86654    1483.8909   -6446.3571    2.1559479    24.738384   0.15244256 
   45100   -950.21974    41.480542    -908.7392    1485.6826    648.32946    2.1880912    18.218267   0.13538424 
   45200   -951.56715    41.355807   -910.21135     1481.215    9214.9311    2.2127798    18.674971   0.12771732 
   45300   -948.87582    40.460994   -908.41483    1449.1661    3514.2967    2.1965627    19.712655   0.13435044 
   45400   -949.15424    41.594572   -907.55967    1489.7667   -8787.9703    2.1658626    20.094106   0.13835814 
   45500   -957.96979    41.158574   -916.81121    1474.1509   -4400.8208       2.1923    19.465966   0.11932658 
   45600   -953.90346    42.738368    -911.1651    1530.7333    6684.2451    2.2099691    20.714346   0.12916287 
   45700   -949.33076    41.875613   -907.45514    1499.8326    5728.6912     2.201393    17.518526   0.13305803 
   45800   -952.57125    42.538174   -910.03307    1523.5631   -8623.2027    2.1702282    21.168873   0.12064264 
   45900   -953.56019    36.829851   -916.73034    1319.1117   -6115.0313    2.1816807     20.67689    0.1165299 
   46000    -949.5877     40.42965   -909.15805    1448.0435    6604.7306    2.2049492    21.054531   0.14283767 
   46100   -948.11975    40.440956   -907.67879    1448.4484    12906.455    2.2170672    21.661577   0.14330566 
   46200   -950.10663    36.914164   -913.19246    1322.1315   -2635.8462    2.1833903    20.987903   0.13048762 
   46300   -951.35736    36.331676   -915.02569    1301.2689    -13142.26    2.1602586    19.214762   0.11728102 
   46400   -946.85054    38.956037    -907.8945     1395.264    842.97936    2.1861153    20.860176   0.13216866 
   46500   -952.10125    43.805783   -908.29547    1568.9643    12749.814    2.2232364    18.114765   0.12554399 
   46600   -952.03049    40.552663   -911.47783    1452.4493     5129.902    2.2028789    22.022775   0.12443538 
   46700   -944.84672    42.354452   -902.49227    1516.9829   -6277.2986      2.16158    21.427898   0.13458583 
   46800   -949.91681    43.849589   -906.06722    1570.5333   -1026.9927    2.1831203    21.742206   0.12074995 
   46900    -950.0558    39.989143   -910.06666    1432.2661    4139.3575    2.1990223    18.820869   0.13624786 
   47000   -949.94388     41.14499   -908.79889    1473.6643    903.64724    2.1947099    19.659995   0.13538709 
   47100    -945.1559    43.324864   -901.83104    1551.7395   -3336.4286     2.168237    19.229166   0.13817351 
   47200   -950.91699    40.279626   -910.63736    1442.6701    277.10432    2.1917044    22.312454   0.13013971 
   47300   -951.86478    42.396577    -909.4682    1518.4916    3094.3231    2.1993789    20.346009   0.11043711 
   47400   -946.48338    42.614524   -903.86886    1526.2977    3061.8277    2.1872393    21.305212   0.12958569 
   47500   -951.11068    43.178592   -907.93209    1546.5006    -6349.158    2.1750904    19.557002   0.12717229 
   47600   -951.07128    39.733604   -911.33767    1423.1136   -5466.1046    2.1794573    22.704901   0.11948854 
   47700   -951.27034    44.002786   -907.26756    1576.0202    5360.4548    2.2044082    20.870585   0.11886317 
   47800    -953.2028    44.736875   -908.46593    1602.3126    6861.3392    2.2100887    20.893013   0.11587839 
   47900    -954.0341    38.783683   -915.25042    1389.0909   -4031.0659    2.1882903    19.928274   0.12197741 
   48000   -949.54525     39.78073   -909.76452    1424.8015   -9167.1239    2.1627994    23.719299   0.13699452 
   48100   -949.66806    42.411762    -907.2563    1519.0355    2960.9213     2.195116    19.775344   0.12646579 
   48200   -956.73397    43.230764    -913.5032    1548.3692    10707.554    2.2291741    21.112113   0.11040407 
   48300   -953.49811    40.885355   -912.61275    1464.3652   -531.35513    2.1938279    18.837239   0.11545542 
   48400   -951.11945    43.295719   -907.82373    1550.6956     -13769.3    2.1524964    21.104088   0.11775351 
   48500   -953.25335    43.364707   -909.88864    1553.1666   -5720.8953    2.1801634    20.997614   0.11488527 
   48600   -952.96699    39.043863   -913.92313    1398.4096    10651.839    2.2251556    22.653516   0.11707937 
   48700    -948.6753    43.821164   -904.85414    1569.5152    2107.7485    2.1876008    19.936014   0.12388765 
   48800   -952.06761    44.452086   -907.61553    1592.1125    -4861.863    2.1766867    22.167001   0.11426176 
   48900   -954.09043     43.09906   -910.99137     1543.652   -3236.3922    2.1888088    20.331886   0.12067455 
   49000   -952.41945    42.048486   -910.37096    1506.0243    3551.4637    2.1979081    19.769134    0.1148263 
   49100   -947.77728    44.539931   -903.23735    1595.2588   -2374.0128    2.1764557    19.881906   0.12587523 
   49200   -949.45189    40.008553   -909.44334    1432.9613   -2007.3314    2.1832614     20.87231   0.13390973 
   49300   -951.45395     40.84567   -910.60828    1462.9438   -648.83099    2.1886365    20.266899   0.11618309 
   49400   -946.73851    44.628159   -902.11035    1598.4188    3149.2303    2.1843212    20.105833   0.12679954 
   49500   -951.26316    43.684315   -907.57885    1564.6137    3272.5526    2.1950016    18.863097   0.11891113 
   49600   -950.82569    39.974716   -910.85097    1431.7493   -1668.7232    2.1834877    21.433929   0.12761327 
   49700   -948.46354    42.142502   -906.32104    1509.3916   -4250.3641    2.1740036    22.091515   0.13909668 
   49800   -944.96744     42.07566   -902.89178    1506.9976    4112.0158    2.1876626    23.110681   0.12637091 
   49900   -953.44053    42.690762   -910.74977    1529.0283    7733.2981    2.2159645    17.597994   0.12409558 
   50000   -953.64152    44.964205   -908.67732    1610.4547   -2304.2331     2.189993    20.476891   0.11905427 
   50100   -945.36662    40.174452   -905.19217    1438.9032   -11612.981    2.1565717    21.210764   0.15038429 
   50200   -953.33964    38.553848   -914.78579     1380.859   -252.45041    2.1990116    18.498876   0.12645763 
   50300   -953.64683    43.059195   -910.58763    1542.2242     10773.05    2.2235738    19.421625   0.12823099 
   50400   -951.67184     44.52995   -907.14189    1594.9013    1760.9641    2.1974581    18.315776   0.13001462 
   50500   -953.10431    42.913531   -910.19078    1537.0071   -13102.593    2.1630647    23.661315   0.12873163 
   50600    -951.4499    36.509318   -914.94058    1307.6314   -3536.3922    2.1885335    22.381052   0.13680836 
   50700    -948.2864    41.087563   -907.19883    1471.6075    9247.9749    2.2099359    21.891703   0.13080431 
   50800   -950.39416    41.768139   -908.62602    1495.9832    4672.9257    2.2016113    21.817911   0.13826869 
   50900   -954.35294     39.30848   -915.04446    1407.8872   -4482.6255    2.1869082    19.980496   0.11680555 
   51000   -951.16086    42.716529   -908.44433    1529.9511    -2846.862    2.1790221    18.763205   0.13358886 
   51100   -949.10826    41.994276   -907.11398    1504.0827    4021.2216    2.1953153    18.802458   0.12926562 
   51200   -951.52886    40.126773   -911.40208    1437.1955    3154.7722    2.2001965      17.7747   0.12319799 
   51300    -951.8868    40.639344   -911.24745    1455.5539   -1558.0512    2.1887884    21.480248   0.13444628 
   51400    -948.2378    43.870064   -904.36773    1571.2666   -4215.9561    2.1700712    24.375944   0.13430686 
   51500   -950.54975    40.868117   -909.68163    1463.7477    42.586552    2.1905592    24.089445   0.13925645 
   51600   -948.40904    37.797935    -910.6111     1353.785    6521.2577    2.2034774    21.762653   0.13199093 
   51700   -944.45378    42.653417   -901.80036    1527.6907    2110.8843     2.178814    21.511714   0.14320679 
   51800   -952.03394    43.087346   -908.94659    1543.2325   -3699.5616    2.1816547    20.412236   0.13212304 
   51900   -950.10121    39.482314   -910.61889    1414.1133   -301.60646    2.1857751    20.613577   0.13786004 
   52000   -949.23359    45.365383   -903.86821    1624.8235    805.01645    2.1903776    17.611179   0.15118544 
   52100   -947.57504    43.146434   -904.42861    1545.3488    7017.2383    2.1994373    21.473955   0.14937799 
   52200   -953.89612    43.360225    -910.5359     1553.006   -7216.8707    2.1752503    26.808874   0.14115622 
   52300   -945.41577    38.474201   -906.94157    1378.0064   -6715.5514    2.1585995    29.898897   0.16257983 
   52400   -945.24707    44.120557   -901.12652    1580.2384    3501.2445    2.1879973    22.692121   0.17417221 
   52500   -951.32356    41.450041   -909.87352    1484.5902    17363.244    2.2301496    14.874251    0.1486437 
   52600   -947.46033    39.044373   -908.41596    1398.4278   -2162.1244     2.178465    18.965216   0.15857218 
   52700   -949.78541    43.340673   -906.44474    1552.3057   -12655.946    2.1514799    13.811791   0.13074985 
   52800   -953.54794    38.452042    -915.0959    1377.2127    592.45432    2.1994463    14.502501   0.11953177 
   52900    -954.9578    45.495518   -909.46228    1629.4845    5279.0511    2.2087978    15.493154   0.13132785 
   53000   -949.61808    42.460201   -907.15788    1520.7704    568.73688     2.189333    12.872372   0.11610561 
   53100   -950.25333    36.266171   -913.98716    1298.9227   -3879.7626    2.1799332    15.857456   0.12994717 
   53200   -952.34911    41.553212   -910.79589    1488.2854   -4092.3752    2.1822922    11.694835   0.12535957 
   53300   -950.48224    44.102079   -906.38016    1579.5765    3170.7033    2.1961151    13.120052   0.12355113 
   53400   -949.93552    38.371246   -911.56428    1374.3189    3576.9828    2.2005049    12.846191   0.14038285 
   53500   -953.09088    40.926719   -912.16416    1465.8467   -4466.7815    2.1871409    12.347271   0.12949084 
   53600   -945.30556    40.275307   -905.03025    1442.5154   -4607.0574    2.1681982    14.933856   0.13647159 
   53700   -953.36734    43.117786   -910.24956    1544.3227     220.8372    2.1919308    15.134946   0.13109451 
   53800   -955.33792    44.805549   -910.53237    1604.7723    4273.2251    2.2068746     12.04795   0.13721623 
   53900   -946.18735    43.695467   -902.49188    1565.0132    882.45351    2.1786592    14.883005   0.14048578 
   54000   -948.65306    38.545462    -910.1076    1380.5587    -3648.301    2.1759866    13.930743   0.13299409 
   54100   -952.00719    41.788411   -910.21878    1496.7093   -3082.7467    2.1833439    14.097183   0.12720662 
   54200   -947.20551    44.515137   -902.69038    1594.3708     9355.102    2.2061496    13.490577   0.12351219 
   54300   -949.86772    40.272585   -909.59514    1442.4179    8863.6983    2.2085052    14.790059   0.12728301 
   54400   -951.42429    39.687814   -911.73648    1421.4736   -13865.232    2.1553243    12.662508   0.12488133 
   54500   -946.72862    39.881673   -906.84695    1428.4169   -9849.6388    2.1570148    11.824458   0.14461519 
   54600   -952.77694    44.382794   -908.39414    1589.6307    8535.7339    2.2136783    12.337326   0.14009523 
   54700   -956.17657    43.019574   -913.15699    1540.8051     11229.03    2.2272078    13.027865   0.13183545 
   54800   -948.81016    41.117045   -907.69312    1472.6635   -4509.9508     2.177752    14.485757   0.13970826 
   54900   -950.48514     42.70059   -907.78455    1529.3803   -10098.593    2.1622247    13.201884   0.13394724 
   55000   -955.56951    40.562542   -915.00697    1452.8031    819.03923     2.202007    14.160123   0.12351574 
   55100   -949.63138    42.198349   -907.43303    1511.3918     8557.786    2.2076287    12.784189   0.12594991 
   55200   -950.35285    42.477786   -907.87507    1521.4003    1335.4729    2.1921661    14.693055    0.1311582 
   55300   -955.54412    41.740778   -913.80334    1495.0033    -7675.547    2.1790419    14.640376    0.1054404 
   55400   -951.30039    42.844407   -908.45598    1534.5313   -4008.0438    2.1826966    13.561102   0.13001979 
   55500   -950.11496    43.979117   -906.13585    1575.1725    6422.8652    2.2032597    13.675028   0.13302949 
   55600   -954.00829    42.895408   -911.11289     1536.358    2473.6723    2.2027297    13.288369   0.11921585 
   55700   -947.77515    38.784381   -908.99077    1389.1159   -5127.1838    2.1781283    14.393281   0.14911753 
   55800   -947.17868    42.912188    -904.2665     1536.959    -5915.664    2.1674438    14.743798   0.14163811 
   55900    -950.7422    40.012238   -910.72996    1433.0933    4731.4066    2.2027101    15.334989   0.13693654 
   56000    -953.6872    44.353103    -909.3341    1588.5673    8599.2143    2.2159461    14.559247   0.11897061 
   56100    -945.1705     42.45554   -902.71496    1520.6035    -1909.612    2.1730621    16.045699   0.13616402 
   56200   -947.83671    37.255149   -910.58156    1334.3443    -9306.114    2.1574486    13.967474     0.129102 
   56300   -951.59077    41.343496   -910.24727    1480.7741   -716.37812    2.1868345    11.854622   0.12027922 
   56400   -947.86966    43.860265    -904.0094    1570.9156    19610.131    2.2314401    13.741548   0.13074551 
   56500   -950.94403    40.331504   -910.61253    1444.5282     6368.878    2.2058996    13.472243   0.11583387 
   56600   -953.88393    40.561506   -913.32242    1452.7661   -13314.672     2.161513    13.677027   0.13072967 
   56700   -946.69531    39.486665   -907.20865    1414.2692   -3456.3987    2.1716659     15.05059   0.13356793 
   56800   -948.26103    39.176313   -909.08472    1403.1535     8776.821    2.2062562    14.015435   0.14622446 
   56900   -954.71801    40.168545   -914.54946    1438.6916    6845.9764    2.2150101    10.536843   0.11942844 
   57000   -950.30908    43.997695   -906.31139    1575.8379   -5085.5996    2.1724805    14.320186   0.12545596 
   57100   -947.56573    38.683002   -908.88272    1385.4848   -4627.4111    2.1739218    14.897598   0.13461873 
   57200   -952.84308    39.792935   -913.05014    1425.2386     3385.113    2.2023781    13.706323   0.11128296 
   57300   -949.00436    44.310668   -904.69369    1587.0474    4978.7299    2.1976195     12.16703   0.12303941 
   57400   -947.24917    39.456772   -907.79239    1413.1985    2208.8185    2.1883496    13.642287   0.10964792 
   57500   -953.42994    41.105351   -912.32458    1472.2446   -5369.3346    2.1796672    14.902961   0.10679239 
   57600   -948.44052    43.099226    -905.3413     1543.658   -1223.8109    2.1791934    14.080295   0.12468121 
   57700   -950.34848    44.146256   -906.20222    1581.1588    4603.5067    2.2025665    14.406903   0.12604605 
   57800   -951.59431     40.24141    -911.3529    1441.3014    3621.0383    2.1992438    13.946282   0.12734268 
   57900   -947.95717    40.530232   -907.42694    1451.6459   -5718.8746    2.1698328    13.996742   0.13903697 
   58000   -949.58707    45.377547   -904.20953    1625.2592   -7808.9582    2.1647271    14.763212   0.12666257 
   58100    -955.0793    42.800041   -912.27926    1532.9423    6188.2073    2.2145232    14.115243   0.12041492 
   58200   -951.28178    43.531395   -907.75038    1559.1367    10275.087    2.2157202    12.614187   0.12019742 
   58300   -949.38736    42.299633   -907.08773    1515.0195   -8316.8236    2.1629357    13.825802   0.10798548 
   58400   -949.39999    34.198779   -915.20121    1224.8762   -9701.3463    2.1626276    13.507498   0.11219372 
   58500   -951.62545    41.128655    -910.4968    1473.0793    1391.0013    2.1948094    15.619036   0.12316511 
   58600   -948.94152    43.086631   -905.85489    1543.2069    11042.951    2.2136368     14.99717   0.12417385 
   58700   -952.59128    39.985233   -912.60605     1432.126    724.50186    2.1930463    13.811956   0.12023638 
   58800   -948.88902    36.865023     -912.024    1320.3714   -4929.4364    2.1757147    14.383136   0.11933691 
   58900   -950.92198    44.498638   -906.42335    1593.7798   -3150.5078    2.1804696    15.065609   0.11907639 
   59000   -950.58163    39.968717   -910.61291    1431.5345    4993.8562    2.1981712     14.21201   0.13443824 
   59100   -953.78526    40.131417   -913.65384    1437.3618    2256.6789    2.2027392    13.891884   0.12718364 
   59200   -949.02336    44.238567   -904.78479     1584.465    -6294.402    2.1704296    13.876575   0.12175038 
   59300   -950.80771    41.181543   -909.62617    1474.9735   -1903.7115    2.1826689    13.577808   0.11479103 
   59400    -951.1829    39.760932   -911.42196    1424.0924    5408.6065    2.2021958     13.11332    0.1040807 
   59500   -944.64321    41.851123   -902.79208    1498.9555    3188.0558    2.1847931    14.605414   0.11770826 
   59600   -948.76293    40.207954   -908.55498    1440.1031   -1881.0095    2.1819593    16.091425   0.12309057 
   59700   -952.75742    41.094302   -911.66312    1471.8489   -5906.8446     2.179923    13.389371   0.12079061 
   59800   -948.80928    44.348812   -904.46046    1588.4136    1888.3036    2.1867155    13.991524   0.11824537 
   59900   -951.90284    43.925615   -907.97723    1573.2562    7661.1964    2.2091705    12.305922   0.12626379 
   60000   -951.18759    39.451358   -911.73624    1413.0046     -2579.37     2.185452    15.037156    0.1242329 
   60100   -950.72392    43.324406   -907.39952    1551.7231   -10972.684    2.1552602    15.447299   0.12116202 
   60200   -948.55588    44.057531   -904.49835     1577.981   -545.79194    2.1815105    14.891403   0.13360886 
   60300   -953.36569    41.058296    -912.3074    1470.5593    15263.916       2.2343    12.316231   0.11869995 
   60400   -949.79802    41.904801   -907.89322     1500.878    3824.1528    2.1956074    13.881904   0.12904103 
   60500   -949.35065    41.765962   -907.58468    1495.9053   -12804.919    2.1529596    15.768529   0.12921463 
   60600   -955.12802    39.924618    -915.2034     1429.955   -4509.7739    2.1846674    13.025681   0.11081408 
   60700   -947.94935    38.970449    -908.9789    1395.7801    8287.8522     2.206824    13.793997   0.10373448 
   60800     -949.883    42.913884   -906.96912    1537.0197    4560.7279    2.1984991    11.634774   0.10817808 
   60900   -954.49974    40.753511   -913.74623     1459.643   -5374.1563    2.1812392    13.972788   0.10870799 
   61000   -950.16098     41.08311   -909.07787     1471.448   -4546.2093     2.176214    15.980876   0.11811042 
   61100   -954.11971    48.100062   -906.01965    1722.7698     586.0592    2.1926549    14.625108   0.10650517 
   61200   -952.69711     40.87474   -911.82238    1463.9849    3435.3259    2.2034576    14.081796   0.11397285 
   61300   -948.42189    39.577186   -908.84471    1417.5113    418.63021     2.184025    13.998087   0.11562882 
   61400   -946.56775     41.55916   -905.00859    1488.4984   -4859.1391    2.1652111     14.76762   0.12638541 
   61500   -953.09689    41.229339   -911.86755    1476.6854    936.42702    2.1933506    14.360639    0.1250726 
   61600   -952.78812    43.666463   -909.12166    1563.9744    6255.3248    2.2085878    12.318968   0.11869887 
   61700   -948.55022     44.51332    -904.0369    1594.3057    -616.5146    2.1809574    12.271278   0.12700086 
   61800   -954.42359     42.16474   -912.25885    1510.1881   -9020.5439    2.1733282    11.489391   0.10473623 
   61900   -952.01212    42.427549   -909.58457    1519.6009   -4091.1591    2.1793628    14.195404  0.095382311 
   62000   -946.96984    43.337403   -903.63244    1552.1886    12547.904    2.2088717    14.727421   0.11385759 
   62100   -952.78755    41.156169   -911.63138    1474.0647    10945.926     2.217872    13.670847   0.11025062 
   62200   -949.67952    38.935458   -910.74406    1394.5269    -11959.22    2.1554644    14.295653   0.11148982 
   62300   -952.85902    46.427411   -906.43161    1662.8615   -15836.163    2.1507786    14.288505    0.1157926 
   62400   -952.92505     41.78684   -911.13821    1496.6531    8542.0191    2.2146872    15.470422   0.12003508 
   62500   -954.70101    42.379568   -912.32144    1517.8824     10346.69    2.2261534    13.767332   0.12942948 
   62600   -949.15979    43.441136   -905.71866     1555.904   -2937.5325    2.1750811    17.243942   0.12342175 
   62700    -951.1562    40.485011   -910.67119    1450.0263   -8716.8924    2.1691437    13.988027   0.11871868 
   62800    -956.6495     44.43527   -912.21423    1591.5102   -1882.7279    2.1935594    14.512579   0.10737277 
   62900   -949.72834    45.892912   -903.83543    1643.7177    4245.8869      2.19374    12.125262   0.12476754 
   63000    -948.6845    40.030952   -908.65355    1433.7635    2912.5576     2.189681    13.301774    0.1473763 
   63100   -953.61109    41.477573   -912.13351    1485.5762   -5423.6607    2.1795318    12.817344   0.13178984 
   63200   -948.31611    44.424172   -903.89194    1591.1127   -1995.2691     2.171001    13.106152   0.13046464 
   63300   -952.84872    44.618569   -908.23015    1598.0753    2885.8056    2.1969753    10.795768   0.12750343 
   63400   -954.96349    44.036356   -910.92713    1577.2226    2159.3275    2.1986169    11.985347    0.1320209 
   63500     -950.228    45.562113   -904.66589    1631.8697   -6899.1962    2.1647649     13.20855   0.14882835 
   63600   -950.29816    42.444158     -907.854    1520.1958   -7916.2366    2.1635956    11.594788   0.15335812 
   63700   -951.69449    40.608458   -911.08603    1454.4477    3427.0904    2.1958166    12.368516   0.14301586 
   63800   -946.51502    42.353847   -904.16117    1516.9612    14288.247    2.2091567    12.333323   0.14716518 
   63900    -951.4503    43.247504    -908.2028    1548.9687    195.39098    2.1829583    8.9631867   0.13852922 
   64000   -952.01082    38.476902   -913.53391    1378.1031   -13529.535    2.1579034    10.018634   0.14091832 
   64100   -948.07804    40.919767   -907.15827    1465.5977   -2307.0324    2.1703653    12.128018   0.14446609 
   64200   -948.27785     42.39165    -905.8862    1518.3152    12502.213    2.2135802    9.4592282   0.13558345 
   64300   -950.20453    37.327194   -912.87733    1336.9247    12069.773    2.2156794    16.581773   0.13950962 
   64400   -947.68116    41.389947   -906.29122    1482.4378   -5229.4851    2.1679677    12.296936   0.12724009 
   64500   -948.77442    41.095998   -907.67842    1471.9096   -6041.1434     2.169509    14.162953   0.14219149 
   64600   -952.87274    40.204213   -912.66853    1439.9691     3096.065    2.1992515    15.240063   0.13254799 
   64700    -947.5423    42.317534   -905.22477    1515.6606    4597.4467    2.1914338    14.658429   0.14165065 
   64800   -950.12768    42.124251   -908.00343    1508.7379    -1043.477    2.1857033    13.076698   0.14308055 
   64900   -951.85828    38.996906   -912.86137    1396.7278   -3594.4174    2.1853189    12.930809    0.1318612 
   65000   -948.58505    43.162429   -905.42262    1545.9217   -862.37947    2.1788733     12.36057   0.12259132 
   65100   -949.15118    40.831826   -908.31935    1462.4479    4106.9241    2.1961912    12.899975   0.12188693 
   65200   -952.73794    40.200414   -912.53753    1439.8331    1541.4468    2.2006116    12.041159   0.11628973 
   65300   -951.60341    45.769446   -905.83397    1639.2956    -6108.391    2.1735779    12.147509   0.11959655 
   65400   -951.06085    42.308659   -908.75219    1515.3427   -5095.0306    2.1795945     11.47342   0.13531438 
   65500   -951.46057    38.919352   -912.54122    1393.9501    4041.3157    2.2036502    14.014767   0.12357373 
   65600   -949.25848    44.020248   -905.23823    1576.6456    5858.3071    2.1992953    13.377008   0.12896548 
   65700   -952.29007    42.797814   -909.49226    1532.8625    -3038.594    2.1823841    15.184527   0.12931111 
   65800   -951.74719    37.949148   -913.79804    1359.2009   -9725.5407    2.1697747     12.86849   0.12837331 
   65900    -946.8313    40.554079   -906.27722       1452.5    803.94742    2.1857466    13.236577    0.1455622 
   66000   -950.48459    42.077006   -908.40758    1507.0458    15513.109    2.2248702    10.977317   0.10818219 
   66100    -955.3767     41.88902   -913.48768    1500.3128    1422.5437    2.2039182    13.526956   0.10464862 
   66200   -948.20831    42.212274   -905.99603    1511.8906   -12775.022    2.1512106    15.482047   0.13190687 
   66300    -948.1186    41.898748   -906.21985    1500.6612   -4275.2285    2.1711191    17.465632   0.13408687 
   66400    -950.9273    39.355756   -911.57155    1409.5805    10561.939    2.2171768    17.685104   0.16003905 
   66500   -948.50939    44.149505   -904.35988    1581.2751    5521.2909    2.2011437    12.416588   0.12875212 
   66600   -952.55512     45.06219   -907.49293    1613.9642   -5689.7234    2.1782469    13.983585   0.12134162 
   66700   -948.48771    36.199607    -912.2881    1296.5386   -3890.5789     2.180428    10.692588   0.12429504 
   66800   -951.99759    46.023239   -905.97435    1648.3855    1001.2823    2.1944957    11.772441   0.13373952 
   66900   -950.85677    45.011529   -905.84524    1612.1497    4438.9629    2.2001726    11.380477   0.12434084 
   67000    -952.2425    40.415466   -911.82703    1447.5354   -764.92293    2.1941077    12.803487   0.11860984 
   67100   -952.34346    45.284909   -907.05855    1621.9412   -4063.7367    2.1767092    13.018594   0.12719423 
   67200   -947.32988    42.310381   -905.01949    1515.4044   -1454.5278    2.1790467    13.144272   0.13557607 
   67300   -952.89735     40.63023   -912.26712    1455.2275    4342.9047    2.2079912    11.916927   0.13450323 
   67400    -953.1212    45.715349   -907.40585     1637.358     2741.379    2.1985334    13.435495   0.12093364 
   67500   -950.69476    44.173435   -906.52133    1582.1322   -4608.9272    2.1742681    13.009408   0.11828651 
   67600   -954.08377    39.802755   -914.28102    1425.5903   -5042.6044    2.1846815    14.714963   0.10497026 
   67700   -952.06857    43.873397   -908.19517     1571.386    2738.3043    2.1980609    11.944574   0.10844359 
   67800     -952.406    46.087547   -906.31845    1650.6888    7807.6914    2.2073421     12.86481   0.12230439 
   67900   -956.90501    42.595694   -914.30932    1525.6233   -5505.8271    2.1877427    11.912385   0.10817569 
   68000   -949.53182    41.031259   -908.50056    1469.5909   -14571.882    2.1491649    13.473738   0.13248656 
   68100   -947.85757    41.255896   -906.60168    1477.6366     2128.326    2.1891154    12.500545   0.12111777 
   68200   -953.60521    42.858696   -910.74651    1535.0431    17926.156    2.2365205    12.153269   0.11960441 
   68300   -951.65392    40.472753   -911.18117    1449.5872    3876.1274    2.1986801     13.35368    0.1181015 
   68400    -950.4492    45.515351   -904.93385    1630.1948   -14038.845    2.1479612    13.612011   0.12513482 
   68500   -951.20621    39.893315   -911.31289    1428.8339   -3037.6168    2.1811514     13.99051   0.11363352 
   68600   -952.47411    42.805287   -909.66882    1533.1302    7580.3157    2.2100749    13.302462  0.098215399 
   68700   -949.38319     46.12934   -903.25385    1652.1857    3672.0827    2.1899187    13.332162   0.10655314 
   68800   -950.89052    39.468098   -911.42243    1413.6041   -3359.9627    2.1828731    12.371398   0.11973997 
   68900   -949.91376     39.77633   -910.13743    1424.6439   -4874.3244    2.1766965    14.918299   0.13221317 
   69000   -946.19569    42.225268   -903.97042     1512.356    1902.8929    2.1869448    15.279872   0.12166274 
   69100   -955.02996    43.115184   -911.91478    1544.2295    7146.0057    2.2123816    11.105185   0.10149911 
   69200   -950.16548    39.939718   -910.22576    1430.4959   -563.65261    2.1863228    11.590273   0.11441094 
   69300   -949.08544    43.039666   -906.04577    1541.5248    -8062.165    2.1657684    14.428417   0.13071374 
   69400   -953.20734    39.480026   -913.72731    1414.0314    284.34655    2.1981177    12.072934   0.13046094 
   69500   -952.15369    41.495067   -910.65862    1486.2028    6370.4542    2.2107965    13.308065   0.10606222 
   69600   -948.28716    42.350935   -905.93623    1516.8569    2302.1923    2.1899214    12.917441    0.1198631 
   69700   -949.46109    37.270889    -912.1902    1334.9081    -7972.823    2.1702964    13.053871   0.12036925 
   69800   -951.19155    39.759106   -911.43245     1424.027   -6018.0308    2.1751243    14.773059   0.13143976 
   69900   -949.36128    44.393845   -904.96743    1590.0265    10880.074    2.2124033    13.865462   0.14135805 
   70000   -952.58069    42.941395    -909.6393     1538.005    11048.106    2.2199828    12.518698   0.10872785 
   70100    -951.1418    37.539466   -913.60234    1344.5275    -8466.242    2.1691325    14.961499   0.12188598 
   70200    -946.8398    41.516562   -905.32324    1486.9727   -13302.981    2.1488211    12.249099   0.12706223 
   70300   -952.16858    43.277074   -908.89151    1550.0278    8065.1017     2.207176    13.269807   0.12390078 
[...]
  186800   -952.17583    40.430474   -911.74535     1448.073   -9224.2085    2.1656541    180.60457   0.10997055 
  186900   -949.78437    43.504531   -906.27984    1558.1745   -13802.321    2.1535897     163.4385   0.13872377 
  187000   -948.40933    44.954504   -903.45483    1610.1073    4316.6663    2.1907411     176.1724    0.1320122 
  187100   -951.17984    40.696719   -910.48312    1457.6089    10716.355    2.2183772    172.80367   0.13090515 
  187200    -951.0861    42.458132   -908.62796    1520.6963   -1131.2048    2.1868944    178.98244   0.13558572 
  187300   -947.18252    43.186628    -903.9959    1546.7884   -9293.0216    2.1595441    179.77434   0.12601152 
  187400   -956.64057     43.29488   -913.34569    1550.6656    3.9202555    2.2001939    181.83862   0.13373376 
  187500   -952.01344    42.131978   -909.88147    1509.0146    6224.7429    2.2091982    178.39364   0.12192029 
  187600   -948.69033    42.458634   -906.23169    1520.7143    309.31669    2.1877027    180.60389   0.12966074 
  187700   -954.97612    44.227676   -910.74845     1584.075   -8097.0318    2.1746093    183.23322    0.1237883 
  187800   -953.09944    39.851845   -913.24759    1427.3486    -3915.781    2.1864628    177.06029    0.1193474 
  187900   -951.03967     43.98904   -907.05063    1575.5279    6892.5648    2.2033592    175.16593   0.13248444 
  188000    -953.4745    44.299943   -909.17456    1586.6633    4065.5685    2.2009511    174.08745   0.11490601 
  188100   -954.06964    38.129736   -915.93991    1365.6689   -5024.1038    2.1863613    190.90785    0.1400469 
  188200   -952.63111    44.155181   -908.47593    1581.4785   -12266.168    2.1629655    179.53986   0.13328707 
  188300   -950.30464    42.629297   -907.67535    1526.8268    6395.8664    2.2010276    184.20904   0.13286038 
  188400   -952.68878    39.929618   -912.75916    1430.1341    15236.503    2.2330399    172.77408   0.12939841 
  188500   -949.11547    43.370397   -905.74507    1553.3703   -4044.9754    2.1762072    179.16095   0.12826899 
  188600   -947.11835      40.6168   -906.50155    1454.7465   -13619.678    2.1458361    184.39592   0.13098549 
  188700   -953.82303    42.894216   -910.92882    1536.3153    -3315.788    2.1880766    176.17664   0.11908943 
  188800   -950.96698    41.612393   -909.35459     1490.405     15556.44    2.2310267    174.63442   0.13301387 
  188900   -944.40289    41.939169   -902.46372    1502.1089    3578.1419    2.1851791    177.90696   0.13374608 
  189000   -950.14031    39.759283   -910.38102    1424.0333   -6363.4469    2.1749704    182.31651   0.14091634 
  189100   -948.42668    38.422326   -910.00435    1376.1484   -734.86963    2.1843095    181.63492   0.12465949 
  189200   -946.70145    43.404145   -903.29731    1554.5791    2552.1828    2.1889314    183.86534   0.13688816 
  189300   -950.99416    42.092158     -908.902    1507.5885    3039.1417    2.1983317    178.58455    0.1292519 
  189400   -950.71739    39.452519   -911.26487    1413.0462   -3331.7697    2.1854835    179.92751   0.11316267 
  189500   -949.05366    41.839101   -907.21456    1498.5249   -2691.1494     2.181465    168.90085   0.14885684 
  189600   -950.34832    46.450976   -903.89735    1663.7055    2071.8076    2.1904753    179.41146   0.12852239 
  189700   -952.15321    39.138644   -913.01457    1401.8043    8885.2627    2.2177159    169.03183   0.13887905 
  189800   -952.77964    43.073956   -909.70569    1542.7529   -3669.0562    2.1857573     173.2182   0.12335482 
  189900   -947.70548     40.25817   -907.44731    1441.9016   -8695.0612    2.1650418    177.47863   0.12777519 
  190000   -953.56457    38.722714   -914.84186    1386.9072   -1137.8057     2.197529    183.07306   0.14128208 
  190100   -951.89632     39.36659   -912.52973    1409.9685     8385.297    2.2166992    180.41038   0.14084767 
  190200   -950.11859    42.874559   -907.24403    1535.6112    3812.5587     2.192648    173.98029   0.13245711 
  190300   -951.09843    41.089745   -910.00869    1471.6856   -8812.7706    2.1693941    172.46187   0.13228811 
  190400   -955.47785    39.266065   -916.21179    1406.3681   -5781.9833    2.1878308     172.3553   0.12171273 
  190500   -948.56089    40.663526   -907.89737      1456.42    7560.1272    2.2046501    181.62049   0.13699692 
  190600   -950.17912    42.323381   -907.85574      1515.87     9941.841    2.2111068    175.64138   0.13573287 
  190700   -952.54821    39.660798   -912.88741     1420.506   -5129.1043    2.1807716    179.22633   0.12615469 
  190800   -950.13374    40.281655   -909.85208    1442.7428   -12494.102    2.1582062    176.13056   0.14288843 
  190900   -951.12159    45.318341   -905.80325    1623.1386    2474.0872    2.1954415    176.38304   0.12470746 
  191000   -951.58452    43.489973   -908.09455    1557.6531    15302.783    2.2281742    180.32429   0.13728385 
  191100   -951.79114    40.165029   -911.62611    1438.5657   -1089.4233    2.1911743    182.14306   0.13401221 
  191200   -946.54475    43.912546   -902.63221    1572.7881   -18637.055     2.135719     183.5603   0.14101395 
  191300   -949.28805    42.113569   -907.17448    1508.3553    -1210.416    2.1828647    184.08615   0.13093837 
  191400   -951.71034    42.062743   -909.64759    1506.5349    9103.3974    2.2140372    177.33242   0.13288695 
  191500   -947.92606    39.112246   -908.81381    1400.8588    2672.2461    2.1959057    178.40511   0.14633699 
  191600   -943.37339    42.454459   -900.91893    1520.5647    -2679.048    2.1625526    186.53938   0.13673966 
  191700    -950.3529    40.494031   -909.85887    1450.3493    1657.0987    2.1882664    181.14805   0.12574097 
  191800   -952.96784    43.263014   -909.70483    1549.5243    2228.6541     2.196858    172.97508   0.12486986 
  191900   -947.46298     40.44107   -907.02191    1448.4525    520.90426    2.1887207    176.32419   0.14363127 
  192000   -946.98533    46.690962   -900.29437    1672.3009   -4235.9946      2.16744    180.45627   0.14873777 
  192100   -953.54112    44.111478   -909.42964    1579.9132    529.60583    2.1930808    188.72042   0.12586831 
  192200   -950.98817    41.458187   -909.52998    1484.8819   -106.95272    2.1896182    180.13254   0.12359488 
  192300    -950.4686    41.708183   -908.76041    1493.8358   -1984.0816    2.1845277    175.72257   0.12625781 
  192400   -952.49843    45.059582   -907.43885    1613.8708   -2777.2507    2.1850615    183.00088   0.13138001 
  192500   -945.85868    48.797199   -897.06149    1747.7387   -278.92504    2.1738854    174.78473   0.14124506 
  192600   -951.14327    46.545138   -904.59813     1667.078    6517.2471    2.2020398    180.20378     0.135277 
  192700   -951.10102    42.868392   -908.23262    1535.3903   -1000.8647    2.1900525    176.98184   0.13200826 
  192800   -949.31373    38.390457   -910.92327    1375.0069    -8399.134    2.1670149    188.56999   0.12542131 
  192900   -948.44565    42.660178   -905.78547    1527.9329   -1871.2707    2.1768526    171.47573   0.14116055 
  193000   -947.64243    44.477584   -903.16485    1593.0258    9721.3917    2.2028468    179.34234   0.12795131 
  193100   -948.71655    39.732009   -908.98454    1423.0565    4706.2502    2.1973603    172.73578   0.12200221 
  193200   -952.88945    42.236502   -910.65295    1512.7583   -8919.8408    2.1686767    176.95043   0.13304352 
  193300   -948.05641    44.821804    -903.2346    1605.3545   -5635.4835    2.1657616    176.96736   0.13016467 
  193400   -946.67136    41.365479   -905.30589    1481.5614    9809.0619    2.2031797    184.75248    0.1219129 
  193500   -951.49091    41.886674   -909.60423    1500.2288    3681.0905    2.1998918    173.75895   0.12937953 
  193600   -949.97576    40.648205   -909.32755    1455.8713   -6093.9549    2.1689944    175.98671   0.11657106 
  193700   -947.38115     44.85816   -902.52299    1606.6566   -7099.2006    2.1581072    187.11582   0.14176407 
  193800   -949.51266     42.02165   -907.49101    1505.0631    6040.9818     2.197626     176.7282   0.13038227 
  193900   -951.80535    42.094947   -909.71041    1507.6884    8059.2364    2.2063806    182.86552   0.12484006 
  194000   -949.02671    40.058059   -908.96865    1434.7344   -2893.4478    2.1782437    177.57718   0.13395069 
  194100   -950.00583    43.738739    -906.2671     1566.563   -11833.549    2.1551287     177.9333   0.11881058 
  194200   -945.34762     47.67251   -897.67511    1707.4564    3746.9735    2.1784436    176.71252   0.11990981 
  194300   -949.15313    44.786931    -904.3662    1604.1054    23666.896    2.2417313    173.38239   0.12633943 
  194400   -948.13454    40.368591   -907.76595    1445.8565   -3245.0071    2.1724025    185.71214   0.12869069 
  194500   -950.43188    41.035827   -909.39606    1469.7545   -15497.073    2.1493255    180.69065   0.12304806 
  194600   -952.38393     43.49431   -908.88962    1557.8085    -797.2544     2.184907    178.28963   0.12762002 
  194700   -949.57679     47.69849    -901.8783    1708.3869     10396.52    2.2067592    176.10227   0.13035342 
  194800   -950.16688    46.580677    -903.5862    1668.3509   -1362.0886    2.1827525    171.76272   0.13491974 
  194900    -950.0709    40.923747   -909.14715    1465.7402   -9599.7176    2.1614097    172.98754   0.14140265 
  195000   -949.47021    39.429993   -910.04022    1412.2393   -2692.9726    2.1797882    180.90209   0.13102026 
  195100   -950.20231    41.547344   -908.65497    1488.0752    10240.177    2.2110751    182.48962   0.12093945 
  195200   -946.50845    45.141678   -901.36677    1616.8112    1114.5509    2.1791652      174.943   0.12987909 
  195300   -952.83354    44.192628   -908.64091    1582.8197   -9453.7175    2.1701129    175.87902    0.1259438 
  195400   -953.09394     42.69437   -910.39957    1529.1575   -3503.7904    2.1833028    172.92258   0.13218157 
  195500   -948.87498    42.004291   -906.87069    1504.4414    9180.2123    2.2071506    175.33636   0.12798921 
  195600   -946.46894    44.217551   -902.25139    1583.7123     2233.409    2.1826036    183.22336   0.12671424 
  195700   -952.18868    42.073041   -910.11564    1506.9037   -7703.2487    2.1716654    176.05468   0.12243295 
  195800   -951.67189    41.965631   -909.70626    1503.0567   -2946.0498    2.1798286    170.34263   0.13015935 
  195900   -947.74022    44.734598   -903.00563    1602.2311    6110.4458    2.1956046    178.47331    0.1369893 
  196000   -951.07201    43.504441   -907.56757    1558.1713    2792.0207    2.1935277    180.20671   0.11684599 
  196100   -950.31326    39.269007   -911.04425    1406.4734   -7138.2276    2.1663456    175.97938   0.12036641 
  196200   -952.36627    44.131646   -908.23462    1580.6355   -5823.5456    2.1725168    182.69081   0.11441397 
  196300    -948.6287    45.404455   -903.22425    1626.2229    8739.1281    2.2020809    177.88302   0.12804826 
  196400   -951.56214    43.697033   -907.86511    1565.0693    4488.7727    2.1985235    176.48001    0.1235888 
  196500   -954.21151    43.113522   -911.09799      1544.17   -11319.981    2.1616211    178.58403   0.12237787 
  196600   -949.19029    39.649912   -909.54038    1420.1161   -4894.8632    2.1734163    175.12922   0.12436781 
  196700   -948.57534    42.796786   -905.77856    1532.8257    10213.866    2.2047786    180.46159   0.12032145 
  196800   -947.41666    38.351402   -909.06526    1373.6082    5874.1235    2.1929554    176.23147   0.12324273 
  196900   -955.65007    42.062454   -913.58761    1506.5246   -4858.1498    2.1846889    177.43303   0.11844975 
  197000   -951.35197    41.917228   -909.43475    1501.3231   -329.95917    2.1853184    181.18937   0.11442574 
  197100   -951.30339    44.410336   -906.89305    1590.6172    1668.8421    2.1869772    175.10532   0.11064007 
  197200   -956.01571    41.296895   -914.71882     1479.105    -2075.684    2.1949493    174.54149   0.11596413 
  197300   -953.25121    40.954683   -912.29653    1466.8482   -4041.6524    2.1837369    180.87556   0.12383326 
  197400   -949.98805    42.183729   -907.80432    1510.8682   -696.04318    2.1834475    181.62171    0.1157085 
  197500    -949.5434     39.55475   -909.98865    1416.7077    3311.7712      2.19623     184.6262   0.12422617 
  197600   -955.05244     39.17975   -915.87269    1403.2765    4487.2892    2.2074853     171.4401   0.11898306 
  197700   -949.47516    41.675718   -907.79944    1492.6731   -4318.7374    2.1758791    179.61468   0.13217104 
  197800   -949.04309    39.882062   -909.16103    1428.4308   -3516.8842    2.1739069    173.74437   0.14693645 
  197900   -951.58401    39.974553   -911.60945    1431.7435    3765.9874     2.199602    175.78626   0.13788754 
  198000     -945.675    43.414255   -902.26074    1554.9412    5202.4226    2.1875393     165.7529   0.14606874 
  198100   -949.92802    44.004285   -905.92373    1576.0739   -7.3212362    2.1858522    166.58882   0.13732288 
  198200   -950.55707    40.736199   -909.82087    1459.0229   -6119.5033    2.1739276    169.29439   0.13950391 
  198300    -950.3932    43.869491   -906.52371    1571.2461    -796.9088    2.1833081    184.07617   0.12488552 
  198400   -946.50307    45.927677   -900.57539    1644.9628    3597.6088     2.186438    189.81018   0.13050594 
  198500   -951.27237     42.53995   -908.73242    1523.6267    3477.9465    2.1963403    189.74342   0.12075596 
  198600   -951.72176    42.014633   -909.70713    1504.8118   -3759.0186    2.1791903    181.87785   0.12445051 
  198700   -950.17531    43.661052   -906.51426    1563.7806   -6295.9649    2.1684104    187.83034   0.14364927 
  198800    -950.1022    49.682894   -900.41931    1779.4611   -1349.6574      2.17791    187.05334   0.13777386 
  198900   -949.20958    40.816535   -908.39305    1461.9002    9555.5839    2.2116735     196.3273    0.1365114 
  199000   -951.49453    41.958455   -909.53608    1502.7997   -454.85052    2.1907498    180.80975    0.1362178 
  199100   -950.35034    43.105843   -907.24449     1543.895   -11562.108     2.159381    185.52377   0.13609715 
  199200   -945.96624    46.309425   -899.65682    1658.6357   -6933.0867    2.1627781    187.26888   0.16072377 
  199300   -951.82543    43.297988   -908.52744    1550.7769    11634.654    2.2220326    187.16375   0.13198477 
  199400   -950.35958     40.93831   -909.42127    1466.2618    7280.3962    2.2078195    181.32599   0.12839356 
  199500   -949.69682     41.48577   -908.21105    1485.8698   -7309.4711    2.1699854    183.12528   0.14300216 
  199600   -942.17255    43.005231   -899.16732    1540.2914   -4016.5615    2.1620731    183.10783   0.15524991 
  199700   -948.70681    40.737518   -907.96929    1459.0702    11179.114    2.2101856    186.92915   0.15536071 
  199800   -952.27502    42.903383   -909.37164    1536.6436    3429.2281    2.2027106    187.40119   0.15082594 
  199900   -947.77456    38.285537   -909.48902    1371.2491   -2141.2079    2.1795856    190.52848   0.14255151 
  200000   -948.05084    47.553379   -900.49746    1703.1896   -4798.9479     2.171338    184.04883   0.15524994 
  200100   -951.11138    44.564187    -906.5472    1596.1276     2946.548    2.1972656     182.4875   0.13211358 
  200200   -950.64701    41.030727   -909.61628    1469.5718   -45.334943     2.192935    187.17862   0.14140172 
  200300   -951.91167    42.610234   -909.30144     1526.144   -2179.9858    2.1856298    178.18474   0.12788877 
  200400    -945.7171    45.062356   -900.65475    1613.9702   -786.91233    2.1762334    182.47686   0.14288718 
  200500   -950.18573    43.755317   -906.43041    1567.1568    3344.0209    2.1981594    185.12006   0.14015463 
  200600   -949.45571    39.917138   -909.53857    1429.6871    433.11041    2.1904777    183.45717   0.15228238 
  200700   -951.84712    42.256614    -909.5905    1513.4787   -6229.0526     2.177135    185.32151   0.14679088 
  200800   -948.15807    46.786137   -901.37193    1675.7098   -1982.4658    2.1745653     185.4938   0.13987277 
  200900   -949.14012    42.880934   -906.25918    1535.8395    9879.0376     2.212914    193.74493    0.1308276 
  201000   -954.34676    44.989037   -909.35773    1611.3441    -943.3624    2.1887048     186.5319   0.11776116 
  201100   -948.69316    39.001854   -909.69131     1396.905   -11439.082    2.1552991    175.10417   0.13052355 
  201200   -948.95726    45.692395   -903.26487    1636.5359    -4717.198    2.1726386    179.95999   0.13190121 
  201300   -953.52175    49.751212   -903.77054     1781.908    7830.3127    2.2102592    185.48708   0.13200814 
  201400   -954.21572    45.120155   -909.09557    1616.0403     1647.936    2.1967374    184.51921   0.12980014 
  201500   -953.93546    44.406418   -909.52904    1590.4769   -8352.4639    2.1680528    188.73678   0.13472461 
  201600   -949.72867    43.953365   -905.77531    1574.2501   -5023.6881    2.1744778    178.57241    0.1336168 
  201700   -945.56363    45.946685   -899.61695    1645.6436    3954.1885    2.1857851    187.94066    0.1413643 
  201800   -951.31922    42.888078   -908.43115    1536.0954    6762.7349    2.2058402     185.1197   0.13092567 
  201900   -950.50537    41.063081   -909.44228    1470.7306   -930.21969    2.1830432    177.32328   0.12941276 
  202000   -950.67079    43.158008   -907.51278    1545.7633   -6462.5312    2.1728624    184.54679    0.1304924 
  202100   -946.43752     47.73924   -898.69828    1709.8464   -1165.1611     2.174783    179.77612   0.12621694 
  202200   -951.57483    43.832728    -907.7421    1569.9294    8219.0535    2.2084459    186.14461   0.13800742 
  202300   -949.98216    40.423045   -909.55911    1447.8069    1262.5009    2.1901395    192.78737   0.13861342 
  202400   -950.84377     42.03344   -908.81033    1505.4854   -4713.8982     2.177023    184.92774   0.15079442 
  202500   -947.13335    47.542959   -899.59039    1702.8164   -1275.9197    2.1736026    191.84885   0.15182852 
  202600   -948.30678    41.913425   -906.39336    1501.1869    7134.4294    2.1964386    180.91084    0.1301692 
  202700   -950.53472    41.320129   -909.21459    1479.9372    685.30363    2.1889055    182.35556   0.13610005 
  202800   -949.84396    40.272678   -909.57128    1442.4213   -2671.0711    2.1786311    182.94565   0.13036412 
  202900   -947.29095    45.963271   -901.32768    1646.2377   -19.786544     2.176229    187.85239   0.14731018 
  203000   -950.46676     44.47186    -905.9949    1592.8207    4788.8345    2.1965829    176.41803    0.1331044 
  203100   -950.46224     40.86631   -909.59593     1463.683   -1448.4101    2.1811141    180.05777   0.11755794 
  203200   -954.06602    44.741329   -909.32469    1602.4721   -6803.4879    2.1739436    185.12279   0.12551229 
Loop time of 143.455 on 1 procs for 200000 steps with 217 atoms

Performance: 361.367 ns/day, 0.066 hours/ns, 1394.163 timesteps/s
100.0% CPU use with 1 MPI tasks x no OpenMP threads

MPI task timing breakdown:
Section |  min time  |  avg time  |  max time  |%varavg| %total
---------------------------------------------------------------
Pair    | 139.42     | 139.42     | 139.42     |   0.0 | 97.19
Neigh   | 0.93545    | 0.93545    | 0.93545    |   0.0 |  0.65
Comm    | 0.86737    | 0.86737    | 0.86737    |   0.0 |  0.60
Output  | 0.066432   | 0.066432   | 0.066432   |   0.0 |  0.05
Modify  | 1.8569     | 1.8569     | 1.8569     |   0.0 |  1.29
Other   |            | 0.3053     |            |       |  0.21

Nlocal:    217 ave 217 max 217 min
Histogram: 1 0 0 0 0 0 0 0 0 0
Nghost:    953 ave 953 max 953 min
Histogram: 1 0 0 0 0 0 0 0 0 0
Neighs:    4230 ave 4230 max 4230 min
Histogram: 1 0 0 0 0 0 0 0 0 0
FullNghs:  8460 ave 8460 max 8460 min
Histogram: 1 0 0 0 0 0 0 0 0 0

Total # of neighbors = 8460
Ave neighs/atom = 38.9862
Neighbor list builds = 1580
Dangerous builds = 13
Total wall time: 0:02:25
