LAMMPS (3 Mar 2020)

# ---------- 1. Initialize simulation ----------
units metal
atom_style atomic
dimension 3
boundary p p p
read_data /home/modeler/RemLabs/Project/arrhenius_4/T1800.0/n3_T1800.0_timestep3.000000e-03_eqsteps3200_time600_rseed3332/20201205-150740/lammps.data
  orthogonal box = (0 0 0) to (17.469 17.469 17.469)
  1 by 1 by 1 MPI processor grid
  reading atoms ...
  217 atoms
  read_data CPU = 0.000953625 secs

pair_style meam/c
pair_coeff * * library.meam Li Si LiSi.meam Li Si
Reading potential file library.meam with DATE: 2012-06-29
Reading potential file LiSi.meam with DATE: 2020-11-07

group Li type 1
1 atoms in group Li
group Si type 2
216 atoms in group Si

velocity all create 1800.0 3332 dist gaussian

# ---------- 2. Specify equilibration ensemble  ----------
fix 1 all npt temp 1800.0 1800.0 0.15 tchain 2 iso 1.0 1.0 1.0 pchain 2
# fix 1 all nvt temp 1800.0 1800.0 0.15

# ---------- 3. Run equilibration -------------
timestep 0.003
run 3200
Neighbor list info ...
  update every 1 steps, delay 10 steps, check yes
  max neighbors/atom: 2000, page size: 100000
  master list distance cutoff = 6
  ghost atom cutoff = 6
  binsize = 3, bins = 6 6 6
  2 neighbor lists, perpetual/occasional/extra = 2 0 0
  (1) pair meam/c, perpetual
      attributes: full, newton on
      pair build: full/bin/atomonly
      stencil: full/bin/3d
      bin: standard
  (2) pair meam/c, perpetual, half/full from (1)
      attributes: half, newton on
      pair build: halffull/newton
      stencil: none
      bin: none
Per MPI rank memory allocation (min/avg/max) = 8.895 | 8.895 | 8.895 Mbytes
Step Temp E_pair E_mol TotEng Press Volume 
       0         1800   -951.04357            0   -900.78722   -114161.75    5330.9442 
    3200    1848.4957   -937.71276            0    -886.1024    3520.1625    4667.6469 
Loop time of 2.27713 on 1 procs for 3200 steps with 217 atoms

Performance: 364.248 ns/day, 0.066 hours/ns, 1405.278 timesteps/s
100.0% CPU use with 1 MPI tasks x no OpenMP threads

MPI task timing breakdown:
Section |  min time  |  avg time  |  max time  |%varavg| %total
---------------------------------------------------------------
Pair    | 2.1559     | 2.1559     | 2.1559     |   0.0 | 94.68
Neigh   | 0.071394   | 0.071394   | 0.071394   |   0.0 |  3.14
Comm    | 0.015575   | 0.015575   | 0.015575   |   0.0 |  0.68
Output  | 2.5833e-05 | 2.5833e-05 | 2.5833e-05 |   0.0 |  0.00
Modify  | 0.029317   | 0.029317   | 0.029317   |   0.0 |  1.29
Other   |            | 0.004934   |            |       |  0.22

Nlocal:    217 ave 217 max 217 min
Histogram: 1 0 0 0 0 0 0 0 0 0
Nghost:    952 ave 952 max 952 min
Histogram: 1 0 0 0 0 0 0 0 0 0
Neighs:    4142 ave 4142 max 4142 min
Histogram: 1 0 0 0 0 0 0 0 0 0
FullNghs:  8284 ave 8284 max 8284 min
Histogram: 1 0 0 0 0 0 0 0 0 0

Total # of neighbors = 8284
Ave neighs/atom = 38.1751
Neighbor list builds = 121
Dangerous builds = 0

# ---------- 4. Describe computed properties----------
compute msdli Li msd
compute msdsi Si msd
thermo_style custom step pe ke etotal temp press density c_msdli[4] c_msdsi[4]
thermo 100

# ---------- 3. Run production -------------
timestep 0.003
run 200000
Per MPI rank memory allocation (min/avg/max) = 9.661 | 9.661 | 9.661 Mbytes
Step PotEng KinEng TotEng Temp Press Density c_msdli[4] c_msdsi[4] 
    3200   -937.71276    51.610354    -886.1024    1848.4957    3520.1625    2.1606836            0 3.032983e-32 
    3300   -935.93553    46.450111   -889.48542    1663.6745   -11438.845    2.1250916  0.092647518   0.14221571 
    3400   -938.84889    49.640498   -889.20839    1777.9426    5482.3996    2.1732156    5.7738112   0.15722854 
    3500   -943.38842     44.22558   -899.16284    1583.9999    9472.5463    2.1965138    4.9837242    0.1706168 
    3600   -939.53611    48.815002   -890.72111    1748.3764   -14073.955    2.1236514     5.571321   0.18487736 
    3700    -938.6629    49.877989   -888.78491    1786.4487    5835.9177    2.1695828    13.958686   0.14489446 
    3800   -943.45204    53.256841    -890.1952    1907.4669    9110.1358    2.1851887    13.307757   0.11919871 
    3900   -945.42794    48.624427   -896.80352    1741.5506   -13028.514    2.1402399    13.753655   0.15105505 
    4000   -942.41745    45.281314   -897.13614    1621.8125    881.12442    2.1719278    14.961132   0.15355405 
    4100   -936.03536     47.35211   -888.68325    1695.9808     11733.81    2.1868056    14.141837   0.14340848 
    4200   -939.96225    49.591584   -890.37066    1776.1907   -9172.3148    2.1406889    15.010207   0.16255497 
    4300   -936.91445    52.975716   -883.93873     1897.398   -4486.3503    2.1455179      17.3899   0.17348471 
    4400   -932.13813    53.833165   -878.30497    1928.1088    9724.4143    2.1679988    27.294071   0.18618565 
    4500     -936.167    47.947414   -888.21958    1717.3025    92.152634    2.1570267     19.32711   0.20078752 
    4600   -938.24025    49.370642   -888.86961    1768.2773   -4741.5567    2.1498775    15.286503   0.19932077 
    4700   -940.19654    52.009853   -888.18669    1862.8043    4858.7657     2.166147    15.993991   0.18426059 
    4800    -943.1025    43.714718   -899.38779    1565.7027    4807.7459    2.1823874    13.037461   0.17601538 
    4900   -940.60509    47.338595   -893.26649    1695.4968   -6773.8864    2.1484505    32.813471   0.16134722 
    5000    -941.8662    52.609996   -889.25621    1884.2993    69.367658    2.1697487    33.900824   0.15914975 
    5100   -940.62364    50.636458   -889.98719    1813.6143    2975.2378    2.1758637    32.757144   0.16514694 
    5200   -946.22525    46.256569   -899.96868    1656.7426     -5315.69     2.165193    34.824354   0.15650801 
    5300    -943.0662    50.674094    -892.3921    1814.9623   -7820.6547     2.155007     31.10804   0.15626432 
    5400   -940.33878    52.077785     -888.261    1865.2374    7539.7569    2.1814537    31.355168   0.16959978 
    5500    -943.8223    50.377344   -893.44496    1804.3338   -2905.4521    2.1628441    30.233101   0.14206756 
    5600     -944.848    44.767782   -900.08022    1603.4196   -6167.6067    2.1605448    31.631787   0.13402926 
    5700   -942.42041    52.699693   -889.72071    1887.5119    1092.6652    2.1690141    30.971599   0.14486155 
    5800   -939.81929    50.685462   -889.13383    1815.3694    6733.8844    2.1781747    33.561648   0.15486234 
    5900   -939.47979    46.809421   -892.67037    1676.5437   -5889.1553    2.1480555    30.195616   0.14544557 
    6000   -941.56292    50.005002   -891.55792    1790.9978   -986.67815    2.1596822    32.894916   0.14316398 
    6100   -940.89312    58.100745   -882.79237     2080.958    492.24111    2.1598487    32.388197   0.15010966 
    6200   -940.33845    51.527868   -888.81059    1845.5414     -4142.75    2.1523085     31.40767   0.16973591 
    6300   -941.28151     48.86577   -892.41574    1750.1947   -2492.9781    2.1583734    29.987314   0.15448638 
    6400   -942.26459    52.464044   -889.80055    1879.0718     4732.798    2.1783967    33.198531   0.16264311 
    6500   -938.00449    55.322523   -882.68196    1981.4521    -8815.738    2.1323892    34.019965   0.15328879 
    6600   -941.19252     49.39773   -891.79479    1769.2476   -5928.7895    2.1479496    34.310355   0.16568035 
    6700   -938.16652    48.257727    -889.9088    1728.4168    14484.586    2.1960167     35.37307   0.17299243 
    6800   -938.95385    53.934263   -885.01959    1931.7297   -967.20894    2.1520439    32.049537   0.14760622 
    6900   -935.59901    51.368562   -884.23045    1839.8356   -15106.297    2.1105854    32.700566   0.16719592 
    7000    -942.8345    51.132617   -891.70188    1831.3849    8173.9116    2.1912708    33.896755   0.14388564 
    7100   -942.31022    52.716186   -889.59403    1888.1026    7631.3588    2.1860236     31.08761   0.16200394 
    7200   -936.21858    51.107273   -885.11131    1830.4772   -12146.006    2.1248247    30.726123    0.1678867 
    7300   -942.59405    46.361266   -896.23278    1660.4924    4546.9988    2.1773903    35.085205   0.14910041 
    7400   -942.99999    51.093685   -891.90631    1829.9905    4838.2609    2.1721356    45.092284   0.18317031 
    7500   -939.81131    52.934688   -886.87662    1895.9286   -4396.1618    2.1502737    63.997603   0.17597765 
    7600   -939.69523    48.976762   -890.71847      1754.17   -4311.9465    2.1483673    63.406415    0.1727638 
    7700   -942.54687    47.206394   -895.34048    1690.7618    5905.4415    2.1809216    63.581256   0.17387728 
    7800   -943.15818    57.221282    -885.9369    2049.4588    -3497.357     2.151818    65.265072   0.17385673 
    7900   -938.58921    48.525948   -890.06327    1738.0235    -6836.164    2.1425353    64.871779   0.18328854 
    8000   -941.84422    47.664463   -894.17976    1707.1682    7616.7849    2.1784872    62.709249    0.1858422 
    8100   -935.42759     52.78324   -882.64435    1890.5042    4384.4463    2.1563313    69.912457   0.19123628 
    8200     -936.346     49.30146   -887.04454    1765.7995   -2308.3051    2.1438869     68.12966   0.16383678 
    8300   -939.23244    46.541183   -892.69126    1666.9364    1381.2732    2.1596252    82.210022   0.16251444 
    8400   -943.01265    52.309539   -890.70311     1873.538    9942.7894    2.1851673    75.712097   0.15734459 
    8500    -940.0513    56.780911   -883.27039    2033.6863   -10872.926    2.1248761    79.728525   0.14298245 
    8600   -939.55525    46.310542   -893.24471    1658.6757   -1635.1623    2.1526722    81.992788   0.14975819 
    8700   -942.14557     52.35941   -889.78616    1875.3242    12282.267    2.1915211    77.438097   0.14083262 
    8800   -937.81065    50.655039   -887.15561    1814.2798   -4973.6887    2.1414508    80.098422   0.14030417 
    8900   -931.21372    49.850898   -881.36282    1785.4784   -8142.5669    2.1184674    79.568355   0.16848443 
    9000    -943.1835     50.39884   -892.78466    1805.1037    17530.779    2.2086249    79.214436   0.15473896 
    9100    -937.5005    47.153207    -890.3473    1688.8569    689.02507    2.1578709    79.180261   0.15574514 
    9200   -935.59215    46.947896   -888.64425    1681.5034   -10407.683    2.1283824    77.764951   0.18378169 
    9300   -942.55694    44.099842   -898.45709    1579.4964    8162.2467    2.1931943    79.668874   0.15838463 
    9400    -940.7254    47.088471   -893.63692    1686.5383    4381.4277    2.1755954    80.812081   0.14893501 
    9500   -937.22311    47.668696   -889.55442    1707.3198   -4149.2414     2.147502    77.549789   0.15324601 
    9600   -939.58606    49.542689   -890.04337    1774.4394    504.98898    2.1654073    73.047882   0.14467963 
    9700   -945.79046    46.438772   -899.35169    1663.2684    6312.7587    2.1979616    80.729429   0.15687443 
    9800   -938.37736    48.503136   -889.87423    1737.2064   -4467.6179    2.1521807    77.741316   0.18626838 
    9900   -939.87243    50.526149   -889.34628    1809.6634   -818.79514     2.157176    79.455443    0.1793053 
   10000   -942.22177    49.707733   -892.51404    1780.3507    6711.1592    2.1836593    82.395003   0.16049895 
   10100   -942.44882    41.603154   -900.84566    1490.0741    353.21573     2.176696    78.339053   0.17330874 
   10200   -939.55079    49.098222   -890.45257    1758.5203   -7329.0693    2.1411726    79.947133   0.17304422 
   10300   -942.77584    54.090264   -888.68558    1937.3171    11332.001    2.1950329    80.829153   0.15388731 
   10400   -941.69688    51.460853   -890.23602    1843.1411    2636.2909    2.1713792    77.158779   0.16008742 
   10500   -940.17907    53.851926   -886.32715    1928.7807   -17132.027    2.1156303    76.060418   0.15786692 
   10600    -932.1872    52.223985   -879.96322    1870.4738    4386.4768    2.1590931    81.970286   0.17342958 
   10700   -940.38557    53.727439   -886.65813     1924.322    10027.575    2.1863911    81.925379   0.16581284 
   10800   -940.42692    49.295237   -891.13168    1765.5766   -7657.1466    2.1406974    83.973976   0.15781801 
   10900   -936.02027    46.585091   -889.43518     1668.509    551.32627    2.1558825    77.359142    0.1559557 
   11000   -932.16567    53.967132   -878.19854    1932.9069    5274.5853     2.157957    78.155853   0.16044113 
   11100    -941.2306    54.108972   -887.12162    1937.9871   -1714.4755    2.1564393    75.767687   0.16010393 
   11200   -940.38527    49.153492   -891.23177    1760.4998   -5238.8589    2.1489458    77.205566   0.12637694 
   11300   -944.91632    56.107767   -888.80855    2009.5767    661.07959     2.168733    74.616917   0.13699255 
   11400   -932.05997     53.69402   -878.36595    1923.1251    3579.4664    2.1451083    80.646873   0.16730466 
   11500   -940.58439    51.666908   -888.91749    1850.5213    -1776.963    2.1557062    75.514028   0.15506444 
   11600   -939.76038    48.680527   -891.07985    1743.5599   -1886.0728    2.1555602    77.291567   0.15591098 
   11700   -940.10525    50.772535   -889.33271    1818.4881    4844.6895    2.1679736     76.34431   0.14429527 
   11800   -935.18853    56.695323   -878.49321    2030.6209    1607.6419     2.146126    79.331459   0.14694329 
   11900   -938.24992    50.781122    -887.4688    1818.7956    -1029.539    2.1545918    75.175588   0.16196473 
   12000   -944.33535    53.288628   -891.04672    1908.6054   -8191.4646    2.1501696    74.426458   0.13805747 
   12100   -941.78785      52.3613   -889.42655    1875.3919    5062.3801    2.1743634     74.82776   0.14288848 
   12200   -934.41454    54.154338   -880.26021     1939.612     2817.388    2.1543969    81.939945   0.14117298 
   12300   -936.70889    52.001067   -884.70782    1862.4896   -8758.7659     2.126501    81.777924   0.14918721 
   12400     -938.878    47.848671   -891.02933    1713.7659    3012.7804    2.1665218    84.287228   0.16293582 
   12500   -937.90863    49.047276   -888.86135    1756.6955    15396.394    2.1920068    76.202663    0.1571759 
   12600   -937.75652    51.860087   -885.89643    1857.4403   -9227.2776    2.1279778     77.57354   0.15198916 
   12700   -932.23041    57.029733   -875.20067    2042.5982   -6385.4147      2.12351    79.656213   0.15994837 
   12800   -940.74942    53.737241   -887.01218    1924.6731    14086.661    2.1950103    75.982128    0.1465214 
   12900   -936.46772    47.059316   -889.40841     1685.494   -6005.7548    2.1386213    81.099758   0.16651252 
   13000   -939.40214    48.194352   -891.20778    1726.1469   -1921.1485    2.1499303    85.614681   0.15638504 
   13100   -941.23915    51.648453   -889.59069    1849.8603    9326.2646    2.1865447    80.516514   0.15817936 
   13200   -936.15556    55.481161    -880.6744     1987.134   -6454.9601     2.131658    78.340477   0.16370679 
   13300   -943.85071    52.836951   -891.01376     1892.428   -2906.2631     2.155124     77.49517   0.14157231 
   13400   -944.61085    53.958198   -890.65265     1932.587    3584.2596    2.1780849    78.358558   0.15751545 
   13500   -937.87633    50.682698   -887.19364    1815.2704    373.14382    2.1555139    79.488085   0.15614667 
   13600   -933.71943    52.863997   -880.85544    1893.3967   -8111.3778    2.1250272    77.785391   0.15537091 
   13700   -941.79798    50.548305   -891.24968     1810.457    5904.9939    2.1801597    77.033167   0.15540391 
   13800   -939.66469     49.32239    -890.3423    1766.5491    4907.2297    2.1692367    78.414914   0.15842291 
   13900   -936.71248    51.817097   -884.89538    1855.9005   -7946.6846     2.129853    84.533419   0.16531313 
   14000   -936.95787     49.62059   -887.33728    1777.2296    1021.1248    2.1594324    72.273792   0.16949925 
   14100   -945.49804    52.474871   -893.02317    1879.4596     7245.238     2.189455    79.663416   0.14732186 
   14200   -941.30867    51.076268    -890.2324    1829.3667   -5548.7205    2.1503592    84.509785   0.15709977 
   14300   -936.05501     47.79362   -888.26139    1711.7941   -4201.4994    2.1414076    75.658681   0.15289846 
   14400   -945.76489    47.343395   -898.42149    1695.6687    11861.487    2.2060111    79.968152    0.1447992 
   14500   -941.63167    49.568055   -892.06362     1775.348   -4892.0217    2.1529506    74.656314   0.14370429 
   14600   -939.38871    49.573574   -889.81514    1775.5456    -13093.05    2.1268646    80.033051   0.14363791 
   14700   -942.26442    54.638794   -887.62563    1956.9634    16519.948    2.2003314    79.564491   0.14207759 
   14800   -943.88477    47.473671    -896.4111    1700.3347    8217.0871    2.1903576     78.87972   0.15021324 
   14900   -937.43817    50.566362   -886.87181    1811.1037   -20210.215     2.105326    75.020251   0.16489612 
   15000   -940.54509    53.807658   -886.73743    1927.1952    5554.6801    2.1751553    78.653036   0.15658138 
   15100   -943.96198    52.900552   -891.06143    1894.7059    4836.1518    2.1845331    83.367487   0.15351415 
   15200   -940.71112    47.075428   -893.63569    1686.0711     -7071.33    2.1453017    81.336916   0.16476893 
   15300   -935.00276    52.389041   -882.61372    1876.3855    1186.2458    2.1505534    79.202833    0.1590345 
   15400   -941.99266    55.583707   -886.40895    1990.8068    7202.1378    2.1825985    89.823232   0.14061996 
   15500   -941.49888    49.322754   -892.17613    1766.5622   -7427.0152    2.1485147    78.442308   0.15933279 
   15600   -941.30946    53.210457   -888.09901    1905.8056   -5080.5824    2.1500179    76.566677   0.15642374 
   15700   -935.95193     56.53146   -879.42047    2024.7519    6177.5446    2.1662426    75.732065   0.18615695 
   15800   -939.81415    49.736248    -890.0779     1781.372    1690.4768    2.1643603    76.099742   0.16861429 
   15900   -940.52909    49.087018   -891.44207     1758.119   -8342.9697    2.1425816    81.849087   0.13943714 
   16000   -939.39389    53.751957   -885.64193    1925.2002    6180.9212     2.172686    84.919588   0.14997048 
   16100   -938.24006    54.715016   -883.52504    1959.6935    1399.3684    2.1594824     78.18561    0.1817275 
   16200   -941.64755    47.490305   -894.15724    1700.9305   -4541.4045    2.1583219    77.023573   0.16170304 
   16300   -943.46562    52.220831   -891.24479    1870.3608    375.90336    2.1671482    74.122289   0.15712901 
   16400   -942.34934    54.692303   -887.65704    1958.8799    2812.8396    2.1669007    77.258844   0.15473359 
   16500   -937.31343    50.197928    -887.1155    1797.9077   -6375.6918    2.1428801    83.683244   0.15870086 
   16600    -940.9559    44.413403   -896.54249     1590.727    6366.4297    2.1787851    116.84936   0.19539731 
   16700   -942.92651    53.413222   -889.51329    1913.0679    11663.315    2.1919811    117.16142   0.18791402 
   16800    -937.8684    49.335759   -888.53264     1767.028    -15842.96    2.1186736     120.4677   0.16899642 
   16900   -931.08131    46.393375   -884.68794    1661.6424   -2721.4193    2.1421033     96.95206   0.17833391 
   17000   -940.78265    45.818165   -894.96449    1641.0405    21505.252    2.2227068    104.36527   0.16299651 
   17100     -942.296    51.551905   -890.74409    1846.4023   -7909.5313    2.1447971    96.438625   0.14966392 
   17200   -938.05688    49.682948   -888.37394     1779.463   -5458.7571    2.1423711    99.491486   0.17674794 
   17300   -941.26105    48.030709   -893.23034    1720.2858     8801.191    2.1854203    104.39099   0.16766401 
   17400   -946.97659     49.16057   -897.81602    1760.7533    885.42378    2.1806225    100.54681   0.13458376 
   17500    -937.6518    49.758138   -887.89366    1782.1561   -9011.7989    2.1355278    94.248915    0.1601445 
   17600   -940.85053     50.88515   -889.96538    1822.5215    3322.7743    2.1706612    103.17706   0.15711143 
   17700   -940.75872    45.818942   -894.93978    1641.0684    10713.073    2.1894531    99.875168   0.15484227 
   17800   -934.71123    50.760132   -883.95109    1818.0439   -7623.0026    2.1311162    100.38462   0.16372606 
   17900   -938.15888    49.537529   -888.62135    1774.2546    2477.0659    2.1635323    99.931207   0.14853695 
   18000   -939.64089    47.565621   -892.07527     1703.628    6598.4965    2.1819573    104.30069   0.16397983 
   18100   -934.42339    48.603187    -885.8202    1740.7899   -151.26815    2.1473429    103.06152   0.16179275 
   18200   -934.68529    50.065049   -884.62024    1793.1485   -2838.7747    2.1449997    101.94888    0.1601335 
   18300   -939.24829    47.438284      -891.81    1699.0673    6985.3704     2.180652    107.49996     0.145964 
   18400   -939.09847    49.473369   -889.62511    1771.9567    3563.5784    2.1700234    105.53821   0.15635475 
   18500   -932.01947    49.061662    -882.9578    1757.2108   -8942.7493    2.1266564     98.68759   0.17249537 
   18600   -941.04522    46.753505   -894.29172     1674.541    5663.6206    2.1849714    96.232143   0.14651572 
   18700   -942.44458    52.012516   -890.43206    1862.8997    8844.1423    2.1915403    96.814847   0.15479866 
   18800   -936.77699    47.943229   -888.83376    1717.1526   -13506.234    2.1210958    98.475561   0.16224886 
   18900   -935.22975    52.165429   -883.06433    1868.3765   -1052.0452    2.1499166    102.63623     0.174257 
   19000   -931.54538    58.813452   -872.73193    2106.4846     12693.96    2.1741466    102.92583   0.18806168 
   19100   -941.76632    56.577554   -885.18877    2026.4028   -8800.3804    2.1390204    101.69947   0.14895093 
   19200   -939.50757    50.641164    -888.8664    1813.7829   -5279.9086    2.1445703    100.82656   0.14234216 
   19300   -939.30229    50.028799   -889.27349    1791.8502     8553.135     2.181161    97.266202   0.17585102 
   19400   -935.46967    48.285068   -887.18461     1729.396    356.87463    2.1569165    101.82972   0.15532017 
   19500   -932.12835     52.86984   -879.25851    1893.6059    -9339.054    2.1182017    102.75412   0.17455003 
   19600   -944.43229    54.546006   -889.88629    1953.6401    7696.0606    2.1845518    100.87406   0.14454074 
   19700   -941.33637    51.054866    -890.2815    1828.6002    3358.3164    2.1725429    101.97321   0.15085046 
   19800   -936.86336    48.881658    -887.9817    1750.7637   -4703.2668      2.14144    96.747432     0.162076 
   19900   -932.46701    55.463099   -877.00391    1986.4871    929.88589    2.1451897    98.986152   0.16791991 
   20000   -937.26954    50.156842   -887.11269    1796.4362    7436.6009    2.1750904    86.141833   0.18558613 
   20100   -939.65413    49.473024   -890.18111    1771.9443   -8305.9432    2.1412624     53.94919    0.1520952 
   20200   -941.78783    51.201129    -890.5867    1833.8388    -1297.851    2.1569561    54.824192   0.15421285 
   20300   -944.67244    44.215633    -900.4568    1583.6436    6385.4838    2.1933516    51.687658   0.15023336 
   20400   -943.51204    50.640688   -892.87135    1813.7658   -3847.8713     2.154534    51.368001   0.12327683 
   20500   -940.15271    50.047691   -890.10502    1792.5268   -258.83127    2.1595349    53.644073   0.14993472 
   20600   -939.11766    49.478263   -889.63939    1772.1319    4007.3235    2.1680631    54.500606    0.1580782 
   20700   -945.50983    50.519731    -894.9901    1809.4335   -4311.9552    2.1594779    54.513187    0.1537633 
   20800   -944.53729     46.66677   -897.87052    1671.4345    1591.7614    2.1741018    51.733291   0.14842247 
   20900   -936.05723    45.830735   -890.22649    1641.4907    5973.0784     2.171474    59.346783   0.15767189 
   21000   -939.62909    49.930175   -889.69892    1788.3178   -3537.4892    2.1536667    57.059447   0.14860887 
   21100   -942.88006    48.036751   -894.84331    1720.5022   -3142.9687    2.1625233    56.383611   0.14665347 
   21200   -944.91659    47.459254   -897.45734    1699.8184    6658.9528    2.1904557    52.603003   0.14455109 
   21300   -938.38868    49.401802   -888.98688    1769.3934   -320.17622    2.1556886    54.755294   0.14661047 
   21400   -939.03926    48.413483   -890.62578    1733.9954   -14221.251    2.1236144    60.977282   0.14517824 
   21500   -938.06187    46.467797   -891.59407     1664.308    14625.172    2.1971795    52.549192   0.16331435 
   21600   -945.70269    44.544836   -901.15786    1595.4345    14133.783    2.2097901    56.448888   0.14635944 
   21700   -937.35673    46.741639   -890.61509     1674.116   -19322.412    2.1066108    54.440718   0.14771953 
   21800   -941.47651    51.877171   -889.59934    1858.0521    3910.3574     2.170378    59.404615   0.14729404 
   21900   -942.54097     53.44322   -889.09775    1914.1423    9520.4392    2.1845903    53.929565    0.1367115 
   22000   -941.13909    48.954239   -892.18485    1753.3633   -12457.977    2.1292628    52.807575   0.13336779 
   22100   -944.14082    45.036332   -899.10449    1613.0381    3468.8695    2.1765916    53.340758   0.12644867 
   22200   -944.85387    54.227587   -890.62628    1942.2355    7688.0457    2.1820085    49.084142   0.13798892 
   22300   -941.32192    51.362655   -889.95926     1839.624   -8904.5468    2.1377666    58.313281   0.13611279 
   22400   -938.01719    50.732208   -887.28499    1817.0437   -2822.7673    2.1461284    54.098782   0.14938923 
   22500   -944.83646    46.102346   -898.73411    1651.2189    10473.801    2.1988586    52.906395    0.1544624 
   22600   -940.14381    46.684834   -893.45898    1672.0814   -4760.9757    2.1466531    57.100328   0.13801926 
   22700   -941.90054    52.146578   -889.75396    1867.7013   -4549.6939    2.1500963    53.477704   0.15355497 
   22800   -940.47363    52.397112   -888.07651    1876.6745    9050.8939    2.1797453    54.153794   0.15679349 
   22900   -945.98396    47.374638   -898.60932    1696.7877   -1361.8298     2.168982    52.029166   0.13616132 
   23000   -944.13338    51.366553   -892.76683    1839.7636   -10900.359    2.1381667    55.871802   0.14252357 
   23100   -939.08101    51.436162   -887.64484    1842.2568    9512.6815    2.1802088    55.246073   0.15441995 
   23200   -944.57262     51.57217   -893.00045    1847.1281    -144.6609    2.1708433    53.968409   0.15121467 
   23300   -943.08909    43.771617   -899.31748    1567.7406   -6067.2493    2.1542004     53.05612   0.14515217 
   23400   -940.01932    50.482502   -889.53682    1808.1001    1960.5102    2.1662041    53.770305   0.15992716 
   23500   -940.61814    51.999593   -888.61854    1862.4369    6584.3157    2.1747011    55.926919   0.15991799 
   23600   -943.32645    50.937719   -892.38873    1824.4044   -6545.2013    2.1471268     54.42549   0.14810194 
   23700   -939.83928    50.146907   -889.69238    1796.0803    975.28623    2.1602878    54.112722   0.14587558 
   23800   -937.43669    54.725266   -882.71142    1960.0606   -1667.7952    2.1481393    51.759625   0.14900376 
   23900   -943.57065    53.206207   -890.36445    1905.6534   -3639.9278    2.1546513    53.911887   0.14054371 
   24000   -943.83486    52.215272   -891.61959    1870.1617   -1024.5101    2.1619052    53.496188   0.13792232 
   24100   -942.37687    59.817779   -882.55909    2142.4559   -1618.3848     2.153212    57.427305   0.14992768 
   24200   -938.98993     52.38452   -886.60541    1876.2235   -1889.0388    2.1488826    50.739278   0.14749971 
   24300   -936.07103    43.685888   -892.38514    1564.6701    1050.9402    2.1521949    58.713013   0.15787175 
   24400   -941.30597    53.587117   -887.71885    1919.2962    4143.1757    2.1676146    53.553806   0.14606684 
   24500   -936.99989    54.154426   -882.84547    1939.6151   -825.21038    2.1405344    46.945862     0.130595 
   24600   -940.86153    46.469044   -894.39249    1664.3526    929.76091    2.1624218    52.244262    0.1372711 
   24700   -938.64252    46.730339   -891.91218    1673.7113    3970.2058    2.1651462    55.099133   0.15306252 
   24800   -936.72967    49.236269    -887.4934    1763.4646    3405.2089    2.1614756    53.696471   0.13620098 
   24900   -942.46382    50.085642   -892.37818     1793.886   -4826.7393    2.1485384    51.763429   0.14118718 
   25000   -942.18733    45.938954   -896.24837    1645.3667    1857.8711    2.1708228    51.104857   0.14996514 
   25100   -935.16571    47.229134   -887.93658    1691.5763    8074.8148    2.1744677     49.13315   0.16945332 
   25200    -937.3197    46.210574   -891.10912    1655.0952   -5645.5549    2.1407558    55.299186   0.16692655 
   25300    -944.5702    46.345744   -898.22446    1659.9365   -2973.7349    2.1623431     50.90246   0.13181224 
   25400   -941.35483    49.437072   -891.91776    1770.6566    12804.635    2.1918035     55.14756   0.13529683 
   25500   -939.39275    50.777809   -888.61494     1818.677   -2273.7079    2.1514249    47.978046   0.13522756 
   25600   -938.37052     45.75574   -892.61478    1638.8047   -7272.4452    2.1360685    52.725387   0.14361235 
   25700   -940.63981    48.133177   -892.50663    1723.9558    10638.857    2.1876647    48.062792   0.14787512 
   25800   -937.55871    54.807635   -882.75107    1963.0107    1566.5366    2.1461958     56.55775   0.15096349 
   25900   -939.07111    48.684718   -890.38639      1743.71   -4888.5437    2.1377204    53.568047   0.13805306 
   26000   -939.23038    47.758566   -891.47181    1710.5386    7674.6983    2.1742102    54.884893   0.15627755 
   26100   -938.45925    53.598174   -884.86108    1919.6922    5447.5172    2.1651299    54.977304   0.15224556 
   26200   -934.89303     50.00622   -884.88681    1791.0414   -6579.4047    2.1286491    56.301217    0.1370391 
   26300   -941.73635    48.933344   -892.80301    1752.6149    -1056.735    2.1602042    55.705809   0.12943669 
   26400   -942.75003    53.785275   -888.96475    1926.3935    6661.5563    2.1785843    56.163143   0.14676799 
   26500   -937.66362    54.126564   -883.53706    1938.6172    -4685.782    2.1395707    55.814855   0.15543105 
   26600    -943.9291    49.322876   -894.60622    1766.5666   -1072.1373    2.1638865    55.616592   0.16013366 
   26700    -940.4367     49.22501   -891.21169    1763.0614    3894.9663    2.1652372    54.037011   0.16365749 
   26800   -936.71496    50.247136   -886.46782    1799.6702   -52.331725    2.1513749    53.325072   0.17709767 
   26900    -945.3527    52.055784   -893.29691    1864.4494    -7581.794    2.1518379    56.088294   0.15640291 
   27000   -942.18497    47.198995   -894.98597    1690.4968    2129.0348    2.1678643    54.955643   0.14664168 
   27100   -939.91204    51.998366   -887.91368    1862.3929     3114.478    2.1615557    55.066748   0.14060061 
   27200   -943.34077    52.709276   -890.63149    1887.8551   -6409.9059    2.1485763    55.461215   0.13660157 
   27300    -946.0446    48.122885   -897.92171    1723.5872    1103.7414    2.1722904    49.557903   0.13672692 
   27400   -944.51006    56.428218   -888.08184    2021.0541   -3790.2777    2.1555293    56.810108   0.14778407 
   27500   -940.68447    50.981188   -889.70328    1825.9613    184.01823     2.157108    51.524859   0.16169927 
   27600   -942.38894    46.014387   -896.37455    1648.0685    825.04994    2.1683246    47.918373   0.14128605 
   27700   -940.00802    51.210933   -888.79709    1834.1899    2380.0452    2.1614891    54.021772   0.14179224 
   27800    -937.5499    50.098224   -887.45167    1794.3367    3499.6551    2.1611653    54.365559   0.14262901 
   27900   -937.76164    44.632741    -893.1289    1598.5829   -652.80273    2.1499513    48.049912   0.15271181 
   28000   -938.40539    49.114918   -889.29047    1759.1182    4217.1716    2.1650715    53.999773   0.13612545 
   28100   -933.59263    51.244924    -882.3477    1835.4073    8786.3465    2.1652728    54.064776   0.15052388 
   28200   -939.54211    48.363127   -891.17899    1732.1918   -9855.1552    2.1344169    55.071065   0.14659236 
   28300   -941.55208    50.726794   -890.82529    1816.8498   -398.32643    2.1624456    54.768179   0.14573883 
   28400   -937.89053     52.49157   -885.39896    1880.0577     12766.95    2.1845856    55.654495   0.15180454 
   28500   -936.81529    53.817813   -882.99748    1927.5589   -10905.323    2.1184323    53.494169   0.15797166 
   28600   -944.77689    51.701373   -893.07552    1851.7557   -6800.2898    2.1530356    58.289428   0.12296213 
   28700   -941.11035    52.218349     -888.892    1870.2719    12643.228    2.1924201    52.810735   0.14343946 
   28800   -939.67348    51.102111   -888.57137    1830.2923   -3284.0474    2.1473706    56.751266   0.14372368 
   28900   -946.26389    47.388502   -898.87539    1697.2843   -7974.0769    2.1552958    56.414819   0.13390105 
   29000   -943.79761    49.114397   -894.68321    1759.0996    4361.8086    2.1809742    52.744997   0.16645621 
   29100   -942.00177    52.991968    -889.0098    1897.9801    1288.3566    2.1701923    53.171136   0.16788467 
   29200   -939.24469    48.941859   -890.30283    1752.9199   -8792.5596    2.1392464     56.74155   0.17079942 
   29300   -944.18994    44.728385   -899.46156    1602.0085    3800.8035    2.1808909    54.544792   0.14667414 
   29400   -941.14718    50.440238   -890.70694    1806.5864    3760.1608    2.1733915     56.66411   0.14082258 
   29500    -936.7242    47.588092   -889.13611    1704.4329   -1994.5063    2.1519411    53.827852   0.14680024 
   29600   -939.70944    48.106696   -891.60274    1723.0074   -3822.4533    2.1515838    56.122682   0.15840056 
   29700   -945.88409    45.848104   -900.03599    1642.1128    9928.7739     2.201596    53.598453   0.15966956 
   29800   -939.66585    49.660803   -890.00505    1778.6699   -4520.1149    2.1515514    57.955467   0.17469967 
   29900   -938.84241    48.820372   -890.02203    1748.5687   -5971.0408    2.1448181     55.31548   0.16658174 
   30000   -941.20283    54.178511   -887.02432    1940.4778    11021.385    2.1872174    29.643907   0.18814372 
   30100   -936.91762    47.848037   -889.06958    1713.7432   -785.95228    2.1527081    30.970996    0.1743697 
   30200   -944.02664    46.813182   -897.21345    1676.6784   -8364.4622     2.144406    28.987857   0.17134735 
   30300   -943.12365    52.042436   -891.08121    1863.9713    9295.6224    2.1864087      29.6896   0.19394837 
   30400   -937.09738    50.437928   -886.65945    1806.5037    3072.0501    2.1609879    30.046496   0.19540541 
   30500   -941.58852    51.235123   -890.35339    1835.0563   -13998.124    2.1258353    30.905979   0.19211867 
   30600   -944.72668    50.018843   -894.70784    1791.4936    4922.4168    2.1801514    34.271173   0.16915063 
   30700   -936.02178    51.871327   -884.15045    1857.8428     7944.369     2.164627    30.548387   0.18680669 
   30800   -938.48574    49.229614   -889.25613    1763.2262   -6800.6985    2.1421274    26.072749   0.19817408 
   30900   -941.46079    47.887135   -893.57366    1715.1435    925.52677    2.1638185     28.96315   0.17553011 
   31000   -934.88683    50.117453   -884.76938    1795.0254    8877.7567    2.1732893    58.890187    0.1901734 
   31100   -940.96519    54.246823   -886.71836    1942.9245   -2563.8465    2.1561316    55.202667   0.15331119 
   31200   -943.78509    50.086875   -893.69822    1793.9302   -6910.5548    2.1525802    56.018001   0.15792998 
   31300   -938.81616    50.614901   -888.20126    1812.8422    3692.3673    2.1699277    51.101817    0.1614387 
   31400   -937.29299    53.285599   -884.00739    1908.4969    163.75226    2.1550571    51.543591    0.1598035 
   31500   -941.08319    47.239148   -893.84404     1691.935   -160.90249    2.1666193      54.3402   0.14548801 
   31600    -937.8127    48.432305    -889.3804    1734.6695    3146.9489    2.1645771    59.959248   0.18565378 
   31700   -932.27009    48.479401   -883.79069    1736.3563    1562.0231    2.1491752    61.066854   0.18023041 
   31800   -941.76775    48.026835   -893.74091    1720.1471   -2002.8338     2.158621    75.208928   0.16435475 
   31900   -939.52148     49.30896   -890.21252    1766.0681    2363.0446    2.1628477    67.355888    0.1771927 
   32000   -934.71418    51.207369   -883.50681    1834.0622    2593.1935    2.1540875    64.793445   0.18998884 
   32100   -944.34809     51.33452   -893.01357    1838.6164   -722.43441    2.1647564    81.669393   0.17916036 
   32200   -943.79926    52.746336   -891.05292    1889.1825   -6037.8134    2.1514886    73.317493   0.18061926 
   32300   -934.53673     50.62353    -883.9132    1813.1512    1988.2295    2.1530618    74.010409    0.1883803 
   32400   -944.85719    51.933325   -892.92387    1860.0634    2126.6265    2.1726113    79.399708   0.18409428 
   32500   -939.25766    48.044942   -891.21272    1720.7956   -4522.1367    2.1486638    80.925736   0.17268065 
   32600   -935.85025    51.462227   -884.38802    1843.1904   -2064.2817    2.1445907    76.635362   0.17687406 
   32700   -940.92429    48.902215   -892.02208       1751.5    7605.5223    2.1821727    82.470349    0.1763451 
   32800   -934.55368    42.823618   -891.73006    1533.7867    552.36771     2.150204    64.256005   0.17682987 
   32900   -934.10401    48.730612    -885.3734    1745.3538   -6749.4134    2.1293844     70.12492   0.17749596 
   33000   -941.52194    49.616299   -891.90565    1777.0759    10139.508    2.1888621    86.877655   0.17436834 
   33100   -940.03448     47.67367   -892.36081     1707.498    6041.6971    2.1737534    84.894675   0.16580327 
   33200   -932.01559    46.075351   -885.94024     1650.252   -8471.6046    2.1217297     79.89357    0.1710026 
   33300   -938.71745    49.427201   -889.29025    1770.3031    4702.6192    2.1654772    82.562185   0.18182448 
   33400   -943.67815     50.23351   -893.44464    1799.1822    8478.4721    2.1864592    87.711743   0.17195616 
   33500   -942.09787      54.7643   -887.33357    1961.4586   -10499.472    2.1328647    86.298469   0.15616574 
   33600   -938.24156    51.334701   -886.90686    1838.6228   -1551.9701    2.1488815    79.257849   0.14983708 
   33700    -941.3044    47.671321   -893.63308    1707.4138    11899.794    2.1949513    83.718302   0.15851537 
   33800   -939.88355    52.880347    -887.0032    1893.9822   -2948.6449    2.1488833    85.706204   0.14476079 
   33900   -939.32936    52.129135   -887.20022    1867.0766   -7599.2133    2.1369042    75.730577    0.1497026 
   34000   -940.34203    47.429545   -892.91249    1698.7543    8180.2347    2.1835349    81.229746   0.18362483 
   34100   -939.18794     53.85249   -885.33545    1928.8009    3023.3349    2.1686717    63.775418   0.18960526 
   34200    -936.1988    50.310083   -885.88872    1801.9247   -8164.2151    2.1302286    61.031498   0.18436115 
   34300   -944.04174    51.332683   -892.70906    1838.5505   -1726.5616    2.1637007    76.415132    0.1395352 
   34400   -940.19089    50.142664   -890.04823    1795.9284    6784.0089    2.1745967    72.070052    0.1684235 
   34500   -934.08393    50.350276   -883.73365    1803.3643   -3660.8505    2.1405126    77.542757   0.18685856 
   34600   -937.87078    44.723952   -893.14683    1601.8498    3482.8385    2.1619508    81.365034   0.18184214 
   34700   -939.74224    50.648598   -889.09364    1814.0491    2711.5933    2.1620646    63.296923   0.15929361 
   34800   -939.04907    55.099618   -883.94945    1973.4685   -1130.8265    2.1535969    82.465483   0.16996465 
   34900   -944.25276    50.589042   -893.66372     1811.916   -1111.8702     2.166843    71.411873   0.17176184 
   35000   -939.76009    50.294558   -889.46554    1801.3687    -3821.575    2.1547222    71.995404   0.18062798 
   35100    -935.9107    51.999023   -883.91168    1862.4164   -717.00735      2.15021    82.833963   0.16120771 
   35200   -942.24424    48.602936   -893.64131    1740.7809    4540.8029    2.1746963    84.749663   0.15721971 
   35300   -941.60728    53.078107   -888.52917    1901.0653    -4189.195    2.1533812    101.35921   0.16182594 
   35400   -942.49301    57.811155   -884.68185    2070.5859   -4138.2236    2.1489874    93.609319   0.16884606 
   35500    -943.8818    50.594898    -893.2869    1812.1258    5501.3441    2.1807722    93.867746    0.1636625 
   35600   -937.89594    48.983105   -888.91283    1754.3972   -1161.0689     2.157063    84.715026   0.16582408 
   35700   -939.87005    55.945915   -883.92414    2003.7798   -8079.4184    2.1388525    108.78516   0.14182615 
   35800   -943.89916    51.526124   -892.37303    1845.4789   -804.61215    2.1672715    67.472792   0.16022533 
   35900   -938.97021    50.072887   -888.89733    1793.4292    5245.3367    2.1708911    48.950566   0.16271991 
   36000   -930.56365    47.014862   -883.54879    1683.9019   -5880.3828    2.1308386    84.201115   0.17412023 
   36100   -942.84007    48.589502   -894.25057    1740.2997   -1451.6029    2.1688092    82.245422   0.15804149 
   36200   -941.99335    51.456428   -890.53693    1842.9826    6550.5827    2.1771634    89.686809   0.14892225 
   36300   -937.43255    51.806687   -885.62587    1855.5276   -3876.0099    2.1457973    80.241486   0.15620034 
   36400   -939.67316    48.641697   -891.03147    1742.1692    -7992.416    2.1448158     83.57671   0.15295085 
   36500   -944.95191    51.333177   -893.61874    1838.5682    6871.4409    2.1882857    90.397396     0.149338 
   36600   -939.85599    52.734704   -887.12128    1888.7658    4390.5707    2.1684801    90.652925   0.14683934 
   36700   -940.69321    50.999187   -889.69402    1826.6059   -11732.822    2.1281094    88.765802   0.15289951 
   36800   -944.20347    47.475975   -896.72749    1700.4172    4120.5353     2.182409    83.929741   0.16491037 
   36900   -941.15369    54.234891    -886.9188    1942.4971    7516.6181    2.1864895    83.279696    0.1810552 
   37000   -940.79353    51.854457   -888.93908    1857.2386    -10320.59    2.1413643    81.328815   0.15577977 
   37100   -944.99906    50.170818   -894.82824    1796.9368    -5121.444    2.1610097    86.821048   0.16492837 
   37200   -943.67855    51.490524   -892.18803    1844.2038    9851.7386     2.196758    86.200642   0.14736664 
   37300   -936.83119    50.631325   -886.19987    1813.4305   -3365.7139    2.1506631    85.806026   0.14999236 
   37400   -943.27943    49.820104   -893.45933    1784.3754   -7716.0196    2.1519647    89.793758   0.14546739 
   37500   -938.59394    47.136418   -891.45752    1688.2556    5543.4326    2.1781093    81.433176   0.14023043 
   37600   -938.68615    54.822021   -883.86412     1963.526   -500.60673    2.1548498    80.554146   0.14533586 
   37700   -943.12074     50.05495   -893.06579    1792.7868   -3022.5922    2.1601416    83.174806   0.15724868 
   37800   -938.65147    47.507839   -891.14363    1701.5585    2334.9897    2.1647542    85.499435   0.16592285 
   37900   -934.70315     51.67003   -883.03312    1850.6331    2105.9301    2.1547912    81.779101   0.16799469 
   38000   -943.76763    51.056169   -892.71146    1828.6468   -673.39185    2.1659213    85.309187   0.13994916 
   38100   -941.59662    49.737337   -891.85928     1781.411   -3180.8099    2.1561353    80.227574   0.14834391 
   38200   -938.28349     53.76496   -884.51853    1925.6659   -2352.6145    2.1560459    84.354496   0.16381033 
   38300   -941.15496    47.663196   -893.49177    1707.1228    2155.2329    2.1694945    81.518876   0.15330981 
   38400   -941.54579    48.638441   -892.90735    1742.0526    -3124.959    2.1538811    85.592233   0.14739186 
   38500   -942.21022    56.484097   -885.72612    2023.0555   -757.60916    2.1603575    77.288482   0.13813407 
   38600   -946.38357    52.656324   -893.72724    1885.9586    1510.7225     2.177775    85.009716   0.15847706 
   38700   -943.15361    49.203503    -893.9501     1762.291   -9325.9385    2.1470935    77.776302   0.15112395 
   38800   -939.02724    52.110832   -886.91641     1866.421   -1693.2433    2.1540307    86.189397   0.16180044 
   38900   -943.14063    51.620285   -891.52035    1848.8514    8549.6402    2.1862356    84.961846   0.14544945 
   39000   -948.80836    51.767969   -897.04039    1854.1409   -7681.1903    2.1550302    84.943526   0.13395648 
   39100   -937.49007    50.017524   -887.47255    1791.4463   -7740.7628    2.1297611    87.888087   0.14371416 
   39200   -941.15405    51.973446    -889.1806    1861.5004    10044.335    2.1849919    86.324668   0.13654472 
   39300    -944.0833    49.224477   -894.85883    1763.0423    2339.9713    2.1704758    78.614997   0.12074941 
   39400   -938.57211    51.843023   -886.72909    1856.8291   -12901.858      2.12208    88.532619   0.16034299 
   39500   -937.81641    50.828325   -886.98808    1820.4863    4230.5213    2.1671766    81.652873   0.16579923 
   39600   -942.68309    49.685323   -892.99777    1779.5481    9169.6707    2.1855048    86.493913    0.1607199 
   39700   -944.21461    55.844857   -888.36975    2000.1603   -10750.906    2.1375384    85.117659   0.14052772 
   39800   -940.63076    55.880651   -884.75011    2001.4423   -6425.0346    2.1404755     76.72042   0.13793431 
   39900   -940.46314    47.264134   -893.19901    1692.8299    9546.9735    2.1856218    80.739434    0.1417896 
   40000   -938.46036    49.153146   -889.30722    1760.4874    1086.1374     2.159648           87    0.1606235 
   40100   -935.71416    50.238547   -885.47562    1799.3626     -5296.35    2.1371395     87.70724     0.147615 
   40200   -944.69331    49.642329   -895.05098    1778.0082    3606.7247    2.1773111    85.159365   0.13386506 
   40300   -940.11656    50.425763    -889.6908     1806.068    1698.2943    2.1632943    82.134118   0.15021162 
   40400   -938.07539    51.215006   -886.86039    1834.3358   -4249.2952    2.1430802    83.057061   0.15793397 
   40500   -944.39627    48.252342   -896.14393    1728.2239    824.62312    2.1703295    83.976318   0.15322948 
   40600   -939.08112    49.049694   -890.03142    1756.7822    3495.1425    2.1641852    85.962822     0.150319 
   40700   -941.00646    53.850387   -887.15607    1928.7256   -4233.8032    2.1485417    87.155078    0.1587288 
   40800   -942.29493    46.391222   -895.90371    1661.5653   -707.13751    2.1638454    87.021345   0.13762509 
   40900   -942.94545    52.778259    -890.1672    1890.3258   -81.113539    2.1621456    88.494908   0.13526042 
   41000   -936.98094    50.379853   -886.60109    1804.4236    535.15581    2.1509165    82.262886   0.15910049 
   41100   -943.24584    48.793531   -894.45231    1747.6073   -2989.0092     2.154868    77.322592   0.14109405 
   41200   -941.48293    51.540095   -889.94284    1845.9793    248.05641    2.1619246    80.397847    0.1554742 
   41300    -935.2633    50.825356   -884.43794    1820.3799    6271.0727    2.1646891    85.135523   0.15911001 
   41400   -941.90407    49.730733   -892.17333    1781.1745   -8008.9631    2.1422719    86.930103   0.14066657 
   41500   -941.89928     49.98204   -891.91724    1790.1754   -5271.0355    2.1518271    79.937761   0.15643842 
   41600   -939.06261    57.309437   -881.75318    2052.6162    6355.4703     2.169077    78.931165   0.16008483 
   41700   -939.97076    50.524111   -889.44665    1809.5904    1513.5842    2.1596363    82.940256   0.15987548 
   41800   -943.26781    49.184341   -894.08347    1761.6047   -11330.761    2.1374986    78.310504   0.16493989 
   41900   -939.74175    54.469507   -885.27224    1950.9002    6694.5302     2.169386    82.666826   0.15039689 
   42000   -938.76066    49.750233   -889.01042    1781.8729     6285.471    2.1739391    83.153396   0.15003737 
   42100   -942.84178    47.154853   -895.68692    1688.9158   -11354.826    2.1427672    82.185737   0.14960022 
   42200     -941.901    52.903333   -888.99767    1894.8055    328.53517    2.1622003    82.950103   0.14090609 
   42300   -937.03448     50.49713   -886.53735    1808.6241    8276.2534     2.179353    87.010792   0.17131492 
   42400   -939.02748    42.283727   -896.74375    1514.4498    -2426.424    2.1553819    86.064474   0.17413292 
   42500   -945.08706    52.965284   -892.12178    1897.0244   -7863.0709    2.1478927    82.628872   0.14466916 
   42600   -936.35147    50.298799   -886.05267    1801.5206    12056.008    2.1821311    83.642602   0.14811743 
   42700   -944.13861    50.106823   -894.03178    1794.6447   -2524.5681    2.1671217    84.388437   0.13064558 
   42800   -943.09347    50.411984   -892.68148    1805.5744   -6571.2083    2.1547146    84.909279    0.1425869 
   42900   -934.59805    49.407451    -885.1906    1769.5957    2282.9241    2.1569558    83.463208   0.17772587 
   43000   -942.78923    51.399577   -891.38965    1840.9465    1634.9766    2.1718971     85.32293     0.145571 
   43100   -943.91192    49.861164   -894.05075    1785.8461   -1382.1417     2.164545     86.01464   0.14488508 
   43200   -933.82245    50.139052   -883.68339     1795.799   -2365.0762    2.1437997     84.00946   0.15607408 
   43300   -940.43734    49.929707   -890.50764     1788.301    4240.7427    2.1759544    81.562176   0.13938875 
   43400   -941.25597    48.032731   -893.22324    1720.3582   -1177.1993    2.1623345    82.330076   0.17216206 
   43500   -936.41829     51.61107   -884.80722    1848.5214   -4549.7323     2.141896    84.467154    0.1635009 
   43600   -943.08787    52.333384   -890.75449     1874.392     2063.152     2.170223    82.864896    0.1368928 
   43700   -942.21762    48.558224    -893.6594    1739.1795   -1201.4978    2.1613739    83.176725   0.13824128 
   43800   -936.87455    49.271022   -887.60352    1764.7093   -1500.2186    2.1509253    83.990407   0.14935167 
   43900   -938.95069    50.899139   -888.05155    1823.0226    3568.2316    2.1638076    83.829886   0.15608689 
   44000   -945.45974    49.341174   -896.11856    1767.2219    2477.1475    2.1767981    84.818589    0.1461721 
   44100   -940.57726    51.540897   -889.03637     1846.008   -6225.1679    2.1440372    80.406923   0.17092917 
   44200   -936.57602    49.077576   -887.49844    1757.7808   -109.90624    2.1540084    86.103374   0.16764338 
   44300   -942.33645    47.185511   -895.15093    1690.0139    7311.7718    2.1880218     96.40931   0.17594784 
   44400   -937.48799    51.803838   -885.68415    1855.4256    -4226.766    2.1436857    103.36465   0.17197931 
   44500   -937.08295    50.334243   -886.74871      1802.79    2333.1503    2.1570261      111.899   0.15253617 
   44600   -940.38861    48.465371   -891.92324    1735.8538    6825.9375    2.1777381    117.56787   0.18470902 
   44700   -941.01407    47.828145   -893.18593    1713.0307   -3942.6532     2.157112     126.4874   0.18660251 
   44800   -936.92334    53.478058   -883.44529    1915.3901   -12081.615    2.1258885    122.52596   0.19488221 
   44900    -941.4598    52.390555   -889.06925    1876.4397    5887.8129    2.1797483    135.04712   0.17223438 
   45000   -939.34207    48.080058   -891.26201    1722.0533    5473.5353    2.1726687    111.09018   0.19175635 
   45100   -932.82309    51.004958   -881.81813    1826.8126   -7976.5764    2.1244957    110.83889   0.18108145 
   45200   -939.33943     52.43685   -886.90258    1878.0978   -404.80606    2.1564426    165.80928   0.12628402 
   45300   -940.60655     49.92885    -890.6777    1788.2703    6151.6399     2.178504    178.35173    0.1671619 
   45400   -939.29932    48.918318     -890.381    1752.0768   -591.15227    2.1579094    160.78968   0.13162243 
   45500   -934.78463    52.714882   -882.06975    1888.0559   -6006.4053    2.1376357    153.91163    0.1810831 
   45600   -936.02239    51.422982    -884.5994    1841.7847    6082.8598    2.1656937    157.37138   0.17043396 
   45700   -941.60298    51.283701   -890.31928    1836.7962   -2772.3959    2.1547016    161.96145    0.1623732 
   45800   -939.64329    48.868469   -890.77482    1750.2913   -1401.9574    2.1570072    158.93316   0.15082369 
   45900   -936.06819    47.481843   -888.58634    1700.6274    9576.2552    2.1805376    168.63527   0.14505737 
   46000   -934.89489    55.672644   -879.22225    1993.9922   -8945.4679    2.1286597    167.65757   0.14856093 
   46100   -937.20232    47.607725    -889.5946    1705.1361   -1605.9995    2.1530362    161.92124   0.14968034 
   46200   -942.54637     52.40304   -890.14333    1876.8868    8179.3137    2.1853473    156.19394   0.14279312 
   46300   -941.88205    49.541039   -892.34102    1774.3803   -1754.1403    2.1586531    154.08174   0.15638511 
   46400   -932.38345    51.680419   -880.70303    1851.0052   -5999.4968    2.1307147    156.99388   0.16982572 
   46500   -939.60285    54.074506   -885.52834    1936.7527    9305.0365    2.1813302    165.06494   0.17749469 
   46600   -942.72299    52.206031   -890.51696    1869.8307   -3189.4009    2.1535468    161.64989   0.15399946 
   46700   -941.00573    49.642262   -891.36347    1778.0058   -8264.5778    2.1426495    160.60165   0.15663395 
   46800   -937.17119    53.761906   -883.40928    1925.5565    8070.1215    2.1746572    165.87316   0.14505818 
   46900   -934.87587     50.94479   -883.93108    1824.6576    2500.2603    2.1508128    162.47264   0.14204328 
   47000   -941.11249    49.521572   -891.59092    1773.6831    -10203.08    2.1360569    166.64903   0.13952636 
   47100   -941.44892     52.17195   -889.27697    1868.6101    7124.6376    2.1781202    159.84241   0.14998548 
   47200   -938.12531     51.46737   -886.65794    1843.3745    7126.5486    2.1693224    160.13266   0.14967259 
   47300   -927.32843    48.699777   -878.62866    1744.2494   -6800.6443    2.1167644    152.76004   0.19182925 
   47400   -937.01126    47.935864   -889.07539    1716.8888    7564.3772    2.1718647    153.83451   0.17359606 
   47500    -941.6315     52.44853   -889.18297    1878.5161    2114.7886    2.1593391    158.49152   0.14740302 
   47600   -938.01064    52.458528   -885.55211    1878.8742   -4256.0132    2.1407627    160.29102   0.14257458 
   47700    -932.3771    55.004221   -877.37288    1970.0517   -1745.4053    2.1436486    166.03631   0.14974816 
   47800   -942.11953    53.060214   -889.05931    1900.4244    7305.0823    2.1803701    163.09202   0.13672793 
   47900   -940.34372    49.988742   -890.35497    1790.4155   -4775.6997    2.1481128    166.00324    0.1604349 
   48000    -938.9019    48.557588   -890.34431    1739.1567    -1666.665    2.1501961     160.8265   0.16122306 
   48100   -947.26193    46.752006   -900.50992    1674.4873    7364.5146    2.1963233    159.98922   0.15360365 
   48200   -942.60877    48.839739   -893.76903    1749.2623   -4909.7438    2.1562137    157.15054   0.15060097 
   48300   -942.66467    52.246664   -890.41801     1871.286   -4865.9757    2.1512625     174.5393   0.15229989 
   48400   -940.95491    52.250863   -888.70405    1871.4364    4519.9994    2.1725228    172.30045   0.14924407 
   48500   -942.29919    44.842351   -897.45684    1606.0904    1109.8692    2.1669123    154.37885   0.12890113 
   48600   -940.30639    45.182497   -895.12389    1618.2732   -6595.8568    2.1449525    168.53256   0.15969533 
   48700   -936.65239    47.763982   -888.88841    1710.7326    13272.527    2.1863086    152.74128   0.14906579 
   48800   -937.03201    46.967167   -890.06484    1682.1936     3225.395    2.1650763    151.54126   0.16039234 
   48900   -938.27692     45.49338   -892.78354    1629.4079   -17886.971     2.113275     160.8142   0.16175304 
   49000   -943.61033    45.271444   -898.33889    1621.4589    14180.643    2.2062758    158.47792   0.15351818 
   49100   -938.64901     50.69194   -887.95707    1815.6014    7529.8611     2.174847    169.34545   0.15087584 
   49200   -937.60194    47.256549   -890.34539    1692.5582   -9067.5952    2.1324313    163.73004   0.15174424 
   49300   -943.11258    51.813311   -891.29927    1855.7649    46.319411      2.16811    170.17088    0.1406048 
   49400   -951.26438    49.978665   -901.28572    1790.0545    4064.6483    2.1947837    155.89127   0.14460931 
   49500   -943.86236     50.72813   -893.13423    1816.8977   -7404.0761    2.1433242    165.68328   0.13969026 
   49600   -939.53446    49.322496   -890.21196    1766.5529    4822.1351    2.1638915    162.01989     0.155815 
   49700   -945.35444    56.122986   -889.23145    2010.1218    1017.0755    2.1697141     158.7492   0.15204285 
   49800   -940.11819    47.096362   -893.02183    1686.8209   -5997.7997    2.1445143    159.96485   0.13673357 
   49900   -945.77337    47.377324   -898.39605    1696.8839    2317.1125    2.1763913    160.45743   0.14518522 
   50000   -941.07115    51.207792   -889.86336    1834.0774    4431.0863    2.1732495     162.0025   0.14402923 
   50100   -940.65859    50.924081   -889.73451    1823.9159   -5272.0909    2.1433161    165.17661   0.14203422 
   50200   -942.97593    49.957085   -893.01884    1789.2816   -3738.2204    2.1570308    155.96853   0.13837748 
   50300   -944.24156    46.022369   -898.21919    1648.3544    12551.162    2.2029538    165.91252   0.16243432 
   50400   -937.23311    48.215748   -889.01736    1726.9132   -6381.4303    2.1430036    160.14556   0.15074079 
   50500   -939.44839    48.921254   -890.52714    1752.1819   -8329.5317    2.1388118    167.08876   0.16026913 
   50600   -943.21862    50.811619   -892.40701    1819.8879    10906.467    2.1963094    159.80754   0.14850962 
   50700   -930.54668     48.52428    -882.0224    1737.9637    6524.1624    2.1553459    166.71447   0.17753399 
   50800   -937.94143    52.336573   -885.60485    1874.5063   -10124.383    2.1296481    165.29798   0.14766972 
   50900   -939.91262    49.207643   -890.70498    1762.4393    4282.9855    2.1737843    165.12086   0.14860549 
   51000   -941.84241    50.403471   -891.43894    1805.2695    1336.4606    2.1732234    166.51958    0.1517303 
   51100   -936.56995    54.766343   -881.80361    1961.5318   -9462.0254    2.1305216    165.46469   0.16529506 
   51200   -940.69404    49.547297   -891.14674    1774.6045    647.52727    2.1658893    159.25436   0.14272117 
   51300   -941.86343    50.138915   -891.72452    1795.7941    185.49991    2.1671024    163.89301    0.1545128 
   51400   -938.47108    51.027524   -887.44356    1827.6209   -1779.2443    2.1559754    164.53369   0.16655359 
   51500    -936.1285    54.005179   -882.12332    1934.2697   -393.77447    2.1512461    169.43263   0.18995028 
   51600    -941.8847     48.38724   -893.49746    1733.0555    5361.1386    2.1797346    167.71478   0.16670942 
   51700   -940.85698    49.583426   -891.27356    1775.8985    -3401.622    2.1535487    167.21801   0.13658488 
   51800   -937.76245    49.601163   -888.16129    1776.5338   -315.58396    2.1544898     164.0055    0.1562445 
   51900   -939.49282    44.261083   -895.23174    1585.2715    6203.7681    2.1819221    169.17141   0.16006743 
   52000     -943.363    47.291699   -896.07131    1693.8171   -1138.4175    2.1680932    157.63116   0.15772979 
   52100    -938.2742    48.510745   -889.76346     1737.479   -2628.8255    2.1546278    165.69391   0.15727048 
   52200   -938.85144    50.045958   -888.80549    1792.4647    3199.2343    2.1630056    165.18203   0.15231937 
   52300   -943.27009    44.751574   -898.51852    1602.8391    4795.5638    2.1844644    161.28796   0.15788298 
   52400   -937.71304    46.884354   -890.82869    1679.2275   -5798.1779    2.1456529    162.85167   0.16747502 
   52500   -938.20719     49.45858   -888.74861     1771.427    1732.1594    2.1662342    163.62408   0.16835025 
   52600   -942.80238    50.718721   -892.08366    1816.5606    6287.8353    2.1841406    155.19479   0.18097527 
   52700    -944.7502    44.453335   -900.29686    1592.1572   -5035.1795    2.1564522    159.64265   0.12465179 
   52800   -940.98168     50.21642   -890.76526    1798.5701   -7571.4787     2.146482    161.55574   0.16617824 
   52900   -938.97382     50.93402    -888.0398    1824.2719    16451.968     2.202298    160.26912   0.17329615 
   53000   -942.69655    49.802089   -892.89446    1783.7302   -4905.4382    2.1532765    153.61907   0.15341466 
   53100   -938.57938    54.416545   -884.16284    1949.0033   -10837.361    2.1261372    157.99132    0.1726875 
   53200   -938.66656    54.487288   -884.17928    1951.5371    7062.1471    2.1726493    161.73083   0.17298608 
   53300   -942.28027    51.681828   -890.59844    1851.0557    300.65234    2.1639831      162.568   0.15052126 
   53400   -939.33128    48.276371   -891.05491    1729.0845   -3353.5149    2.1506839    165.48581   0.16959358 
   53500   -936.26879    53.761313   -882.50747    1925.5353      3662.11    2.1600229    153.30897   0.15396921 
   53600   -936.97101    51.635614    -885.3354    1849.4004    1180.0416    2.1509499    166.52292   0.15336795 
   53700   -943.22165    51.346113   -891.87554    1839.0316   -6630.1705    2.1512698    159.70505   0.14856864 
   53800   -942.17783    52.786427    -889.3914    1890.6184    2546.9932    2.1668021    164.10105    0.1476338 
   53900   -938.26536    57.432793   -880.83257    2057.0344   -1115.1505    2.1479578     174.7361   0.15722187 
   54000   -939.11753    50.656594   -888.46093    1814.3355   -3879.0887     2.143935    164.56887    0.1668209 
   54100   -942.56262    51.096787   -891.46583    1830.1016   -1583.0647    2.1560074    157.15908   0.14653319 
   54200   -943.35503    55.356699   -887.99833    1982.6762    6612.6767    2.1783744    159.71588   0.13978933 
   54300   -934.50547    48.430116   -886.07535    1734.5911   -1935.6488    2.1412138    159.78133   0.15387745 
   54400   -944.54204    47.156935   -897.38511    1688.9904   -2695.9782    2.1588192    167.68211   0.12871228 
   54500   -943.18632    50.294736   -892.89158    1801.3751    8359.3532    2.1858983    166.42751    0.1444776 
   54600   -938.95121    50.696612   -888.25459    1815.7688   -596.27475    2.1523035    157.79143   0.13941807 
   54700   -942.40646    52.220121   -890.18634    1870.3354   -15017.574    2.1227325    167.56463   0.14722213 
   54800   -943.56101     47.22365   -896.33736    1691.3799    12933.241    2.2031706    154.14391   0.16209868 
   54900   -937.13102    50.862898   -886.26813    1821.7246    3991.4182    2.1635469    156.76664   0.15170983 
   55000    -937.1363    48.277111   -888.85919     1729.111   -9829.4898    2.1287702    157.04052   0.15909952 
   55100   -942.01994    49.221364   -892.79858    1762.9308    2692.7588    2.1708943    156.17275   0.14143541 
   55200   -940.10422    44.754265   -895.34995    1602.9355    12504.749    2.1926497    162.42491     0.137231 
   55300   -933.63902    48.723715    -884.9153    1745.1068   -10799.469    2.1212561    168.16029   0.15164135 
   55400   -943.43478    52.076314   -891.35846    1865.1847   -2681.8978    2.1588201    163.09843   0.12809939 
   55500   -944.15382    52.533984   -891.61983    1881.5768    8904.6637    2.1865254    158.68069   0.13667513 
   55600   -938.98347    56.023995   -882.95947    2006.5763   -4985.6025    2.1359609    163.59752   0.15672522 
   55700   -939.07176    49.213236   -889.85852    1762.6396   -3807.6269    2.1480922    161.63586   0.16190287 
   55800   -941.86098    49.655609   -892.20537    1778.4838    1300.4079    2.1673213    160.59997   0.15711438 
   55900   -942.19014    55.258171   -886.93197    1979.1473    1322.1739    2.1599965    156.43952   0.13632265 
   56000   -939.22973    54.650616   -884.57911    1957.3869   -5000.3412    2.1375561    159.42348   0.15067268 
   56100   -942.29191    47.788826   -894.50308    1711.6224    4908.8121    2.1726994    160.12927   0.13369907 
   56200   -942.93689    53.490681   -889.44621    1915.8422    654.02797    2.1644128    164.41174   0.14679812 
   56300    -938.0348     50.98174   -887.05306     1825.981     -5118.24    2.1393759    164.68559   0.14780937 
   56400   -944.89511    47.109517   -897.78559     1687.292    2783.3864    2.1746819    161.79111    0.1396219 
   56500   -941.46538    50.120037   -891.34534    1795.1179    2719.7111    2.1658843    159.53634   0.15522853 
   56600   -943.43787    55.103758   -888.33411    1973.6168    -8174.309    2.1426093    163.41493   0.16020868 
   56700   -942.00628    47.312505   -894.69378    1694.5623   -407.50991     2.158738    158.42678   0.14691416 
   56800    -943.9662    49.623042   -894.34316    1777.3174    8752.1745     2.189421    156.28993   0.14901852 
   56900   -942.89316      56.1122   -886.78096    2009.7355   -9006.2611    2.1382729     168.3326   0.14134205 
   57000   -942.55257    50.055346   -892.49723     1792.801   -10385.663    2.1366012    163.00054   0.13413661 
   57100   -940.53571    47.862637   -892.67308    1714.2661     12377.66     2.192511    166.26377   0.15069487 
   57200   -934.61924    52.008782   -882.61045     1862.766    1142.3525    2.1476058    169.95836   0.15003789 
   57300   -936.60486    46.545319   -890.05954    1667.0845    -9472.158     2.133904     167.6005   0.15152388 
   57400   -944.16862    52.181433   -891.98719    1868.9497    3226.1464    2.1781884    166.21986   0.15667537 
   57500   -938.82137    52.483076    -886.3383    1879.7534    5954.9725    2.1734912      164.266   0.15244755 
   57600   -936.72603    51.216832    -885.5092    1834.4012   -12006.327    2.1229434    165.71806   0.14781689 
   57700   -941.17266     47.00603   -894.16663    1683.5855   -344.98663    2.1633908    160.55531   0.14912966 
   57800   -940.93886    52.333874   -888.60498    1874.4096    10604.355    2.1830782    153.73118    0.1461221 
   57900   -938.96739    52.434264   -886.53313    1878.0052   -7975.7339    2.1403555    168.33088   0.15400326 
   58000   -942.81498    45.710379    -897.1046      1637.18   -1962.8651    2.1613418    165.14743   0.14583384 
   58100   -941.68842    50.302352   -891.38607    1801.6478    2952.3053    2.1728333    176.66793   0.16619576 
   58200   -942.79211     55.83013   -886.96198    1999.6328   -1089.5994     2.158033    153.95505   0.13947976 
   58300   -945.07974     49.93991   -895.13983    1788.6665   -6407.9362    2.1521924     160.4098     0.134881 
   58400    -942.4011    49.051695   -893.34941    1756.8538    410.68482    2.1642283    160.85411   0.14703499 
   58500   -940.94871    54.894352   -886.05436    1966.1166    2233.3156    2.1619963    157.06435   0.14734506 
   58600   -943.72844     50.47885   -893.24959    1807.9693   -3791.7502    2.1553557    160.47037   0.14575658 
   58700   -943.52474    49.129484   -894.39526      1759.64   -2891.0823    2.1602003    160.59288   0.14120949 
   58800   -935.09296    50.037486   -885.05547    1792.1613    3095.6818      2.15213    158.69946   0.13461574 
   58900   -940.41855    48.951887   -891.46666    1753.2791    1418.5774    2.1614422    169.67558    0.1479361 
   59000   -942.07716    47.679576   -894.39758    1707.7095   -659.97979    2.1631156    151.78731   0.15108439 
   59100   -937.88725    53.911308   -883.97594    1930.9076   -2539.7696     2.145048    171.99306   0.14480886 
   59200   -942.59617    51.899138   -890.69703    1858.8389    865.70954    2.1641967    155.03569   0.15021843 
   59300   -940.96499    47.369249   -893.59574    1696.5947   -16.298377    2.1628899    156.64865   0.16780821 
   59400   -933.57123    49.844753   -883.72648    1785.2583    2679.9131    2.1459856    160.19356    0.1573388 
   59500   -938.62574    48.668155   -889.95759    1743.1168    2831.5783    2.1616718    166.00078   0.15914196 
   59600   -942.34416    49.273036   -893.07112    1764.7815   -3898.6486    2.1562935    187.98967   0.16611588 
   59700   -936.55174    51.982968   -884.56877    1861.8414   -762.12348    2.1487825    245.02774   0.14723829 
   59800    -942.5775    50.032066   -892.54543    1791.9672    2376.3857      2.17119    238.98942   0.14300394 
   59900    -940.8263    47.470573   -893.35573    1700.2238   -486.72312    2.1560743    239.65489   0.13911395 
   60000   -940.64548     54.63324   -886.01224    1956.7645   -2713.8628    2.1478085    230.69851   0.15363101 
   60100   -943.10039    50.137492    -892.9629    1795.7432     3740.269    2.1766737    237.58002   0.17296495 
   60200   -941.47381    46.830753   -894.64306    1677.3077   -4026.5947    2.1550318    239.66305   0.15397412 
   60300   -937.33926     49.81063   -887.52863    1784.0361   -1636.1737    2.1466752    245.88043   0.16070814 
   60400   -937.63051    47.357355   -890.27315    1696.1687    11572.727    2.1776114    236.57431   0.14687158 
   60500   -945.63592     49.11542    -896.5205    1759.1362   -770.61168    2.1660694    236.92955   0.13688553 
   60600   -940.06758    51.145458   -888.92213    1831.8448   -9362.3282    2.1346814    240.54387   0.14826362 
   60700   -935.76318    48.175197   -887.58799    1725.4608    8072.2435    2.1693902     232.1812   0.14539601 
   60800   -944.66691    48.737388   -895.92952    1745.5965    6403.1143    2.1859658    243.73806   0.15811816 
   60900   -941.14167    53.804941   -887.33673    1927.0978   -14377.111    2.1241256    228.46948   0.16879141 
   61000   -940.96587     53.24716   -887.71871    1907.1202     377.7333    2.1570552    231.14742   0.14088951 
   61100   -937.97759     46.02094   -891.95665    1648.3032    10451.369    2.1820733     226.6279   0.16117518 
   61200   -935.54804    52.150044     -883.398    1867.8255   -6309.3983    2.1323337    215.48544   0.17185403 
   61300   -936.29396    50.718328   -885.57563    1816.5466    -2554.073    2.1436118    181.83785   0.18033604 
   61400    -945.4726    54.317156   -891.15545    1945.4435    2814.1095    2.1796056    177.30484   0.18141459 
   61500   -935.48331    46.511342   -888.97197    1665.8676     3684.132    2.1617002    162.19099   0.20610827 
   61600   -934.31558    51.404683   -882.91089    1841.1293   -12427.652    2.1193353    178.18095   0.19025515 
   61700    -943.8373    50.699011   -893.13829    1815.8547    4909.1882    2.1818248    164.38244   0.15548534 
   61800   -938.07921    49.129755   -888.94946    1759.6496    9717.2466    2.1829933    179.70076   0.19738114 
   61900   -938.83293    52.324331    -886.5086    1874.0678   -15459.712    2.1171233     163.7453   0.18341378 
   62000   -945.94171    50.207225   -895.73448    1798.2407   -4133.1029    2.1614211    165.50023   0.17062385 
   62100   -942.19976    49.623197   -892.57657    1777.3229    16368.455    2.2064827    169.19607   0.16983226 
   62200   -936.10819    48.606008   -887.50219    1740.8909   -7093.0171    2.1321542    177.75481   0.17520289 
   62300   -936.34727    48.617307   -887.72996    1741.2956   -9208.6627    2.1280103     187.2551   0.15685946 
   62400   -941.75977    49.727397   -892.03238     1781.055     15727.37     2.203385    159.64081   0.15481506 
   62500    -937.7077    48.993166   -888.71453    1754.7575    2578.7904     2.157856     158.5423   0.17713979 
   62600   -935.73075    51.038875   -884.69188    1828.0274   -7884.7201    2.1275983    142.43424   0.16135679 
   62700   -939.13196    47.565166   -891.56679    1703.6118    5924.4772    2.1728938    143.33209   0.16576259 
   62800   -943.22251    51.381155   -891.84135    1840.2866     2896.707    2.1742838     143.1637   0.15713915 
   62900   -934.63099    51.756079   -882.87491    1853.7151    -6586.813    2.1307182     144.2423   0.16177792 
   63000   -945.59935    53.034943   -892.56441    1899.5193     281.1132    2.1694016    139.07446   0.14195936 
   63100    -941.8195    49.931328   -891.88817    1788.3591    4181.1442    2.1714727    139.06845   0.13625763 
   63200   -938.50177    52.852016   -885.64975    1892.9675    -4482.859    2.1436869    148.72436   0.16561984 
   63300   -936.63166    48.969228   -887.66244    1753.9001   -2877.1249    2.1456616    112.14639   0.17788887 
   63400   -941.38395    48.486473   -892.89747    1736.6096    10744.966    2.1857186    109.91065   0.16770598 
   63500   -936.55196    50.256326   -886.29563    1799.9993    -1499.177    2.1510721    102.65805   0.18015493 
   63600   -937.91817    50.548525   -887.36965    1810.4649   -11539.117    2.1272393    108.40331   0.16454455 
   63700   -942.66068    48.144823   -894.51586     1724.373    10685.847    2.1881812    107.19242   0.15465169 
   63800    -939.3848      53.4149    -885.9699     1913.128    3940.8662    2.1662994     96.32159   0.17142259 
   63900    -935.1722    47.603376   -887.56883    1704.9803    -6494.312    2.1234267    77.487468   0.15900741 
   64000    -941.3359    48.357479   -892.97842    1731.9895    3412.4692    2.1715431    54.723882   0.18164784 
   64100    -943.1025    50.205298    -892.8972    1798.1717    12298.665    2.1964402    62.798043   0.17345185 
   64200   -938.40626    53.232906   -885.17336    1906.6096   -12201.209    2.1227206    58.856585   0.17094788 
   64300   -945.67594    53.665304   -892.01064    1922.0966   -6360.8994    2.1524592    59.114985   0.15371433 
   64400   -943.39768    51.637597   -891.76009    1849.4715    6165.3333    2.1822612    59.588295   0.17481011 
   64500   -935.08262    51.370108   -883.71251     1839.891   -2751.6715    2.1405126    49.263957   0.17629477 
   64600   -938.67042    48.105155   -890.56526    1722.9522   -1857.7549    2.1537142    45.862923    0.1668082 
   64700   -945.11635    52.774679   -892.34167    1890.1976   -1365.4004    2.1672663    45.762067   0.14019386 
   64800   -939.02921     53.62564   -885.40357    1920.6759   -1226.1346    2.1539111    44.280205   0.15332324 
   64900   -940.31675    50.032911   -890.28384    1791.9974    -3966.823    2.1543522    46.696619   0.14054162 
   65000   -943.69777    49.438532   -894.25924    1770.7089     306.5395    2.1646883    49.141782    0.1495088 
   65100   -938.43106    51.485316   -886.94575    1844.0173    6728.8145    2.1651662    48.137706   0.16827768 
   65200   -937.36467    47.610706   -889.75397    1705.2428   -2121.6173    2.1516175    45.481867   0.16644477 
   65300   -944.33362     47.40302    -896.9306    1697.8043   -3207.3786    2.1663848    51.161075   0.16358338 
   65400   -938.79934    50.788546   -888.01079    1819.0615    6119.9938    2.1729585    48.903954   0.15714813 
   65500   -937.99438    48.536394   -889.45798    1738.3976   -479.72163    2.1559079     48.33343    0.1504687 
   65600   -946.66767    48.211892   -898.45577    1726.7751   -5504.9578    2.1601631    49.964004   0.14376623 
   65700   -940.44482    50.043809   -890.40101    1792.3878    5275.7624    2.1715535    47.223867   0.13551833 
   65800   -941.56777    53.842921   -887.72485    1928.4582    4040.3119    2.1751772    45.613186   0.15563491 
   65900   -940.73811     45.39377   -895.34434    1625.8402   -9303.1701    2.1408775    48.588852   0.15526075 
   66000    -941.6756    51.567447   -890.10816    1846.9589   -1467.7804    2.1590174    47.577465   0.14587797 
   66100   -938.23102    54.462644   -883.76837    1950.6544    11341.795    2.1807821    44.890803   0.13758918 
   66200   -940.76256    48.434519   -892.32804    1734.7488   -7700.7166    2.1451918    47.301523   0.14421432 
   66300   -939.61668    48.885795   -890.73089    1750.9119   -5720.3424    2.1454917    43.838392   0.12762086 
   66400   -936.20677    55.463262   -880.74351    1986.4929    10421.241    2.1725378    42.851494    0.1419644 
   66500   -942.49934    52.679986   -889.81936    1886.8061   -836.54791    2.1628757    46.820837   0.11572968 
   66600   -941.08878    47.869223   -893.21956     1714.502    -8111.608     2.146913    48.152406   0.14339278 
   66700   -938.31937    53.583385   -884.73598    1919.1625    3734.9144    2.1647782    44.088541   0.14658008 
   66800   -939.37644    50.385622   -888.99082    1804.6303    3791.9886    2.1690852    51.227317   0.13260524 
   66900    -944.9774    50.744106    -894.2333    1817.4698   -6186.0075    2.1546474    47.573638   0.13345738 
   67000   -940.05741    52.627507    -887.4299    1884.9264    1509.5729    2.1603117    40.624222   0.13447091 
   67100      -940.99    51.932915   -889.05709    1860.0487    4486.6611    2.1676913    49.108471   0.13633713 
   67200   -945.09208    48.447084     -896.645    1735.1989    358.74394    2.1701033    50.919366   0.13578764 
   67300   -940.75898    51.854414   -888.90457    1857.2371   -835.24149      2.15641    44.870502   0.15036707 
   67400   -936.63608    48.230125   -888.40596    1727.4282    2745.2141    2.1631527    46.071545   0.15438019 
   67500   -943.01308    45.584971   -897.42811    1632.6883    3632.7054     2.175422    45.867966   0.14468424 
   67600   -940.66112    51.699575   -888.96154    1851.6913   -3805.8173    2.1513999    45.981056   0.15632332 
   67700   -939.98517    51.920383   -888.06478    1859.5998    1328.4209    2.1650975    52.549409   0.15776938 
   67800   -942.75101    47.708975   -895.04203    1708.7625    2667.9889    2.1780985    39.849915   0.17163098 
   67900   -935.91761    50.206359   -885.71125    1798.2097   -3813.1629    2.1409353    30.789918   0.18047655 
   68000   -936.57746    51.165415   -885.41204    1832.5596    6937.4572    2.1701323    32.821281   0.17826038 
   68100   -937.16865    46.259889   -890.90876    1656.8615      2588.28    2.1600569      15.4907   0.19203673 
   68200   -939.07917    48.991205   -890.08797    1754.6873   -8790.9995    2.1325171    18.104276   0.17778562 
   68300   -934.15787    54.528131   -879.62974    1952.9999     6111.198    2.1571978    20.085002   0.20403165 
   68400   -939.58322    52.453634   -887.12959    1878.6989    11048.713     2.180934    25.743552   0.18823283 
   68500   -940.17086    48.306624   -891.86424    1730.1681    -13102.59     2.127732    30.680913   0.17796637 
   68600   -937.21398    51.758344   -885.45564    1853.7962   -1723.3792    2.1464551    42.320999   0.16750326 
   68700   -936.22111    55.977387   -880.24372     2004.907     10078.41    2.1705402    31.173168   0.17862538 
   68800   -938.94436    48.599303   -890.34506    1740.6508    586.53211    2.1578726    28.653145   0.15205659 
   68900   -941.15599    51.256144   -889.89985    1835.8092   -9381.9664    2.1408112    32.313235   0.16324608 
   69000   -938.68202    53.811246   -884.87078    1927.3237    4594.4243    2.1664718    28.686051   0.16916708 
   69100   -945.03553    52.298851   -892.73668    1873.1552   -2263.8624    2.1657415    21.319405   0.16044202 
   69200   -942.51505    47.983902   -894.53115    1718.6094   -6186.2585    2.1456446    21.820068   0.16609074 
   69300   -936.51243    48.196254   -888.31617     1726.215    4149.9151    2.1671141    15.667417   0.19564649 
   69400   -938.45498    50.354984       -888.1    1803.5329    3479.0348    2.1612668    26.968512   0.17383967 
   69500   -944.29369     46.31129    -897.9824    1658.7025   -6190.3548    2.1540566     19.32401   0.15281797 
   69600   -939.17618    48.304097   -890.87209    1730.0776   -2554.6268    2.1525569    22.731144   0.15588393 
   69700   -939.91323    53.784019   -886.12922    1926.3485    4552.3228    2.1630097    19.246327    0.1571297 
   69800   -946.09444    51.740378   -894.35406    1853.1527   -1667.9539    2.1616613    17.182343   0.14181744 
   69900   -942.01612    50.758547   -891.25757    1817.9871   -2438.1242    2.1549633     19.55195   0.15663538 
   70000   -937.72617    52.760688   -884.96548    1889.6965    523.95724     2.150205    20.425699   0.18115192 
   70100   -941.63012    50.012179   -891.61794    1791.2549   -128.93297     2.162461    23.361552   0.17808739 
   70200   -939.86758    47.964042   -891.90353     1717.898    6.8661659    2.1604932     22.95616   0.16746322 
   70300   -935.80944     52.98159   -882.82785    1897.6084   -3620.4779     2.138268    23.782825    0.1759036 
[...]
  186800   -941.58868    52.500754   -889.08793    1880.3866    6115.4226    2.1781661    415.75329   0.16195939 
  186900   -944.80488    45.640989   -899.16389    1634.6947    -11226.24    2.1460691     408.9132   0.13558692 
  187000   -942.92429    47.953539   -894.97075    1717.5219   -5925.8179    2.1525873     408.3798   0.13408207 
  187100   -939.84106    51.878058     -887.963    1858.0839    14360.412    2.1971833    393.04606     0.143456 
  187200     -936.364    45.172513   -891.19149    1617.9156   -2892.9391    2.1484035    424.47835    0.1462452 
  187300   -943.93212    47.302574   -896.62955    1694.2067    -12563.48    2.1395148    402.62023   0.16289036 
  187400   -944.12801    47.803408    -896.3246    1712.1447    14353.059    2.2066021    418.97543   0.15673146 
  187500     -938.544    50.096763   -888.44724    1794.2844    1569.0908    2.1662406    414.39058   0.17518278 
  187600    -939.5486    48.342512   -891.20609    1731.4535   -11980.786    2.1315739    413.58226   0.15368666 
  187700   -939.42267    49.077586   -890.34508    1757.7811    6915.1383    2.1762668    423.20124   0.14069818 
  187800   -938.30527    58.800716   -879.50456    2106.0284    2133.1763    2.1551855    424.30197   0.15656886 
  187900   -939.89606    51.606842   -888.28922    1848.3699   -4434.6561    2.1494281    418.82164   0.14719293 
  188000   -941.44121    50.090651   -891.35056    1794.0654     809.2847    2.1661274    416.95497   0.16923217 
  188100   -943.35102    53.199697   -890.15132    1905.4202     5041.993    2.1755119    426.94589   0.14640621 
  188200    -934.3036    53.612711   -880.69089    1920.2129   -5653.7387    2.1327886    407.03108   0.15554327 
  188300   -940.75444    49.877211   -890.87723    1786.4208   -887.49401    2.1653225    412.91786   0.15845063 
  188400   -940.84942    50.011988   -890.83743     1791.248     6178.661    2.1794076    422.78219   0.15440465 
  188500    -936.1649    50.412966   -885.75193    1805.6096   -1959.5769    2.1488322    415.00469   0.17724646 
  188600   -936.09227    52.733961   -883.35831    1888.7393   -9183.1688    2.1292078    413.20597   0.18209459 
  188700   -942.88983    51.023187   -891.86664    1827.4655     9421.489    2.1932286    403.30841   0.13305322 
  188800   -938.20503    49.268575   -888.93646    1764.6217    7670.4385    2.1765768    404.29989     0.167128 
  188900   -934.69734    46.683161   -888.01418    1672.0215   -16014.333    2.1097426    434.80586   0.13634467 
  189000   -946.22278    47.371412   -898.85137    1696.6722    6035.7405    2.1912617     398.1715    0.1315845 
  189100   -939.19003    48.206746   -890.98329    1726.5908    10922.696    2.1894486    402.56093   0.16608672 
  189200   -939.79913     50.29541   -889.50372    1801.3992   -10046.456    2.1340115    436.91055   0.17339109 
  189300    -938.0394    51.522232   -886.51717    1845.3395   -2917.5549    2.1476628     514.5521   0.18522511 
  189400   -944.20193    47.201405   -897.00053    1690.5832    8072.3392    2.1882682    493.07623   0.16513471 
  189500   -943.20163    50.725375   -892.47626     1816.799   -4374.9691    2.1484504    528.70232   0.17723294 
  189600   -939.64199    51.485137   -888.15685    1844.0109   -1406.3788    2.1518241    509.02503   0.19434949 
  189700   -940.83387    51.132406   -889.70147    1831.3773    1742.2748    2.1671763      506.057   0.18709017 
  189800   -946.86333    48.760782   -898.10255    1746.4344   -1947.6804     2.172226    502.07072   0.18928803 
  189900   -941.32704    52.743246    -888.5838    1889.0718    -8870.789    2.1382745     513.7168   0.16802264 
  190000   -936.45932    49.721737   -886.73759    1780.8523    4852.0201    2.1618017    477.05536   0.17690908 
  190100   -938.64427    44.889283   -893.75499    1607.7713    8723.2769    2.1810229    497.80699   0.18017388 
  190200   -937.87642    47.642027    -890.2344    1706.3646   -4358.6563    2.1393144     528.4219   0.19328085 
  190300   -938.47076    52.635773   -885.83499    1885.2225   -3824.5538    2.1448587    587.96626   0.18168315 
  190400   -939.63001    50.889972   -888.74004    1822.6942    10047.021    2.1823076    490.66328   0.15778019 
  190500   -943.03527    48.339626   -894.69564    1731.3501   -5794.3759    2.1517534    478.47433   0.16036661 
  190600   -935.17124    51.091422   -884.07982    1829.9094   -11096.326    2.1234036     513.0341   0.17939101 
  190700   -938.46664    52.215758   -886.25089    1870.1791    15262.457    2.1985607     480.6646   0.17119331 
  190800   -944.47341    53.310928   -891.16248    1909.4041   -5075.2867    2.1559151     513.9544   0.16277344 
  190900   -936.68908    48.691499   -887.99758    1743.9529   -12208.962    2.1208715    482.43101   0.16147771 
  191000   -933.54894    54.448385   -879.10056    1950.1437     11252.49    2.1697547    527.18512   0.17229782 
  191100   -943.46023    54.476738    -888.9835    1951.1592     3760.918    2.1722785    509.12686   0.17533078 
  191200   -943.84173    51.976745   -891.86498    1861.6185   -11499.118    2.1341461    503.71119   0.18253452 
  191300   -933.16792      48.0911   -885.07682    1722.4488     5624.303    2.1573783    543.73985   0.19374222 
  191400   -938.52402    49.798854   -888.72517    1783.6144    2683.8072    2.1701008    551.95797   0.16952173 
  191500   -942.78105    49.077832   -893.70321      1757.79   -5716.3847    2.1511062    486.94938   0.15503428 
  191600   -936.93065    49.747434   -887.18322    1781.7727    2495.2383    2.1585947    475.36613   0.14087936 
  191700   -939.34787    50.662831   -888.68504    1814.5589    2440.6677    2.1590923    616.99249   0.16730446 
  191800   -941.01368    44.492305   -896.52138     1593.553    235.73187    2.1612009    584.15264   0.16877135 
  191900   -939.78608    52.632648   -887.15343    1885.1106    -2418.049    2.1494824    564.04728   0.17401772 
  192000   -941.30522    53.241626    -888.0636     1906.922    963.14061    2.1614558    560.09312   0.17541023 
  192100   -944.27064    48.397062   -895.87358    1733.4072   -2151.4045    2.1615133    561.45004   0.16883598 
  192200   -936.55544    49.805826   -886.74961    1783.8641    -4779.269    2.1411178    574.75913   0.20555694 
  192300   -942.39692     55.41347   -886.98345    1984.7095    5400.2701    2.1701654    574.40936   0.18004511 
  192400   -942.11542    48.824885   -893.29054    1748.7303   -334.11256    2.1649238    557.33443   0.17842714 
  192500   -935.10191    49.957719   -885.14419    1789.3043   -6579.4556    2.1288091    579.31203   0.18780356 
  192600   -937.68608    53.031954   -884.65412    1899.4123    6729.3085    2.1691759     565.2731   0.17949123 
  192700   -940.05228    49.361899   -890.69038    1767.9642    5732.4072    2.1735285    554.07141   0.19318717 
  192800   -936.37706    46.810319   -889.56674    1676.5759   -10292.195    2.1282403     622.7139   0.19366061 
  192900   -930.59079    50.773556   -879.81723    1818.5247    1651.5498    2.1478335    641.05632   0.20119907 
  193000   -939.21877    49.877859   -889.34091     1786.444    14594.058    2.1927073    635.52111   0.15933887 
  193100   -941.35399    48.903817   -892.45017    1751.5574   -9999.7695    2.1359216    653.35511   0.15898607 
  193200   -936.88239    49.864244   -887.01814    1785.9564   -1167.5338    2.1475083    660.77071   0.15895967 
  193300   -940.96105    49.668733   -891.29232    1778.9539    9334.1939    2.1841063    662.41955   0.15240111 
  193400   -943.15566    47.159018   -895.99664     1689.065   -389.87325    2.1673816    659.76132   0.15620935 
  193500   -940.79857    50.554308   -890.24426     1810.672   -4712.8764    2.1480932    666.45769   0.13822438 
  193600   -940.32786    53.039594   -887.28826    1899.6859    3147.7635    2.1656623    655.89521     0.151988 
  193700   -949.08976    51.668611   -897.42115    1850.5823   -835.39537    2.1777956    649.22741   0.15392233 
  193800    -941.1074    49.304509   -891.80289    1765.9087   -6990.6253    2.1453197    664.15693   0.15170529 
  193900   -941.48469    53.513134   -887.97156    1916.6464    2665.3123    2.1639865    652.24601   0.16104526 
  194000     -943.615    50.520506   -893.09449    1809.4613    1580.9834    2.1729418    652.87915   0.16985381 
  194100   -941.19614     42.37638   -898.81976    1517.7683   -2655.3073    2.1600377    655.07526   0.16325227 
  194200   -938.13957    50.228183   -887.91139    1798.9914   -109.69298     2.151317    651.26772    0.1470315 
  194300   -939.71971    51.115033   -888.60467    1830.7551    10179.077    2.1811766    637.04326   0.14108701 
  194400   -942.51962    49.915665   -892.60395    1787.7981   -3841.2834    2.1533814    650.50788   0.13314816 
  194500   -939.14296    54.435442   -884.70752    1949.6801   -5599.6885    2.1439511    668.53876   0.13752634 
  194600   -935.97511    51.428021   -884.54709    1841.9652    4641.1514    2.1643103    663.45798   0.15655232 
  194700   -943.02632    51.798208   -891.22811     1855.224    -2669.986    2.1596194    661.98884   0.16044295 
  194800   -942.80347    52.084438   -890.71903    1865.4757   -3353.5051    2.1588292    647.99862   0.16064453 
  194900   -936.14134    55.865349   -880.27599    2000.8942    537.02367    2.1515762    657.92884   0.15784412 
  195000   -943.36234    54.799123   -888.56321    1962.7059   -993.17922    2.1605846    659.30091   0.14764438 
  195100   -941.61985    49.817332   -891.80251    1784.2762   -3692.2205    2.1513784    651.80589   0.12985094 
  195200    -941.1138    53.831301    -887.2825     1928.042    246.06186    2.1645515     658.2717   0.13677101 
  195300   -937.29209    56.676964   -880.61512    2029.9633    646.46701    2.1552674    641.55005   0.13491008 
  195400   -941.79787    49.530657   -892.26721    1774.0085    31.702576    2.1635555      664.421   0.13590714 
  195500   -936.03318    44.646517   -891.38667    1599.0763   -1405.9156    2.1523686    669.37763   0.15244759 
  195600    -939.5435    52.028154   -887.51534    1863.4598    2965.8789     2.168455    663.77669   0.17166337 
  195700   -940.38846    47.852578   -892.53588    1713.9058    1334.0796    2.1619587    658.70083   0.13766976 
  195800   -940.10405    43.618692   -896.48536    1562.2634    -2748.979    2.1529937    663.92461   0.13876102 
  195900   -939.07042    49.369784   -889.70064    1768.2466    8175.6382    2.1780632     657.8539   0.13714756 
  196000   -940.10527    51.478482   -888.62679    1843.7725    431.46015    2.1631212    672.59844    0.1378322 
  196100   -937.82041    43.685764   -894.13465    1564.6656   -12557.223    2.1289293    668.76294   0.14882933 
  196200   -940.88405     44.82636   -896.05769    1605.5177    9539.1554    2.1901813     661.3153   0.14165945 
  196300   -935.82471    48.843374   -886.98134    1749.3925    10718.084    2.1820795     655.3647   0.15592856 
  196400    -937.0733    46.200262   -890.87303    1654.7258    -11694.18    2.1293966    684.15778   0.16684403 
  196500   -942.18331    49.534172   -892.64913    1774.1344    140.56026    2.1646401    646.22188   0.15605977 
  196600   -946.65432    43.980326     -902.674    1575.2158    9869.0235     2.204207     671.4937   0.15395908 
  196700   -945.13151    48.732702   -896.39881    1745.4286   -4508.9767    2.1595398    666.57448   0.15114828 
  196800   -941.09711    49.017623   -892.07949    1755.6335    1792.0274    2.1629673    656.02158   0.14926981 
  196900   -940.17734    50.928847    -889.2485    1824.0866    1586.4119    2.1684055    665.37445   0.15492937 
  197000   -937.63105    48.321427   -889.30962    1730.6983    370.26403       2.1539    659.88176   0.13789407 
  197100   -942.69989     43.25065   -899.44924    1549.0814    3175.5637    2.1770792    649.28488   0.14719474 
  197200    -940.5467    49.039183   -891.50752    1756.4057    1561.8469    2.1621616     666.3097   0.15688949 
  197300   -940.49245    51.763923   -888.72853     1853.996   -152.13274    2.1588731    661.51721   0.17423878 
  197400   -941.54843    47.525299   -894.02313    1702.1839   -2477.9342    2.1646376    649.58394   0.17540539 
  197500   -944.44054    46.850593   -897.58995    1678.0183    2047.9644    2.1776754    664.64076   0.15457512 
  197600   -939.99434    51.401891   -888.59245    1841.0293   -1787.2436    2.1539347    657.56556   0.15849066 
  197700   -939.65657    48.855852   -890.80071    1749.8395   -4050.7072    2.1495211    651.66675   0.15197401 
  197800   -942.87694    47.157676   -895.71927    1689.0169    5948.3033    2.1824511    664.33833   0.15285909 
  197900   -943.68108    45.246836   -898.43424    1620.5776    4592.9395    2.1795867    657.45003   0.14767476 
  198000   -937.30291    48.931836   -888.37107    1752.5609   -11569.128    2.1223256    659.01166   0.16194241 
  198100   -942.27497      51.9938   -890.28117    1862.2293    868.13505    2.1647592    665.76051   0.14733965 
  198200   -943.31101    52.959267   -890.35175    1896.8089    10262.699     2.190466    655.34659   0.17426561 
  198300   -929.78753    49.586524   -880.20101    1776.0095   -6954.7291    2.1182437    655.95735    0.1795243 
  198400   -939.65486    53.808271   -885.84658    1927.2171   -3751.1383    2.1439598    673.33479   0.15379175 
  198500   -941.32949    51.743119   -889.58637    1853.2509    6907.9063    2.1798403    661.56777   0.14527262 
  198600   -939.06936    47.535446   -891.53392    1702.5473   -368.39407    2.1568549    666.56498   0.13846156 
  198700   -938.36697     55.87172   -882.49525    2001.1224   -6249.8903    2.1356313    665.25614   0.13441888 
  198800    -937.4954    51.728225   -885.76717    1852.7174    6686.7792    2.1667203    647.80053   0.17314036 
  198900   -940.93838    50.046181    -890.8922    1792.4727   -256.42767    2.1607912    660.15592   0.13729018 
  199000   -941.75438     51.40752   -890.34686    1841.2309   -4263.1959    2.1502081    655.47252   0.15438275 
  199100   -934.68372    53.599132   -881.08458    1919.7265    5143.0315    2.1602334     668.6188   0.16419538 
  199200   -936.78738    49.219378     -887.568    1762.8596    2598.6203    2.1597389    653.06137   0.16520958 
  199300   -939.74513    47.669906   -892.07523    1707.3632   -11788.034    2.1273134    683.24276    0.1531172 
  199400   -940.57904    52.366816   -888.21222    1875.5894    10480.915    2.1868823     655.2855    0.1529725 
  199500     -943.522    49.572996   -893.94901     1775.525      8698.28    2.1890236    656.77788   0.15007687 
  199600   -943.41967    43.840761    -899.5789    1570.2171   -15739.862    2.1317292    661.99597   0.14034861 
  199700   -942.18132     49.81374   -892.36758    1784.1475    2316.7827    2.1687907    659.18022   0.14589128 
  199800   -941.96867    53.384675   -888.58399    1912.0455    8073.8801    2.1841678    652.79671   0.15033889 
  199900   -940.94918    48.250139   -892.69904     1728.145   -8702.0735    2.1458981    657.78471   0.13446053 
  200000   -942.38687    42.491257   -899.89561    1521.8827    2008.6986    2.1719759    654.55219   0.16944239 
  200100   -942.77731     53.04719   -889.73012     1899.958    3504.6605    2.1750668     668.1298   0.14773302 
  200200   -939.42298      49.7627   -889.66028    1782.3195   -510.54766    2.1623309    658.42468   0.14805703 
  200300   -941.39011    48.720768   -892.66935    1745.0012   -3113.1796    2.1578142    665.71093   0.15371378 
  200400   -945.83359    44.378301   -901.45529    1589.4698    4567.1025    2.1887568    645.93634   0.14353801 
  200500   -937.66351    46.503617   -891.15989    1665.5909   -72.117575    2.1607733     652.6172   0.17875184 
  200600   -941.61411    51.664215    -889.9499    1850.4248   -1372.6797    2.1622044    644.29664   0.14881257 
  200700   -940.99872     50.57756   -890.42116    1811.5048    559.67761    2.1667404    671.67246   0.13999646 
  200800   -943.36515    44.205312   -899.15984     1583.274    546.76173    2.1701764    650.63918   0.15129017 
  200900   -944.81679    48.656731   -896.16006    1742.7077   -2660.7119    2.1637286    654.72819   0.13750843 
  201000    -940.9795     50.97169   -890.00781    1825.6211    6675.0744    2.1834949    666.59204   0.17066329 
  201100   -937.40187    47.364303   -890.03757    1696.4176   -2332.0352    2.1508252    660.09552   0.15956011 
  201200    -934.4072    48.407864   -885.99934    1733.7941   -6433.5671    2.1352569      664.615   0.16297813 
  201300   -933.75349    57.010031   -876.74346    2041.8926    6061.4309    2.1617077     665.5339   0.15789256 
  201400   -943.39814    56.967103   -886.43104     2040.355   -1366.1402    2.1639742    647.15682   0.13815991 
  201500     -936.058      45.5647    -890.4933    1631.9623   -6136.7389    2.1397062    655.80677   0.14987562 
  201600   -941.20396    50.595193   -890.60877    1812.1363    2507.1319    2.1713805    651.61949    0.1526981 
  201700   -941.25183    45.997708   -895.25412    1647.4711    5779.0581    2.1818736    662.76979   0.15460996 
  201800   -943.20199    43.056484    -900.1455    1542.1271   -2945.0705    2.1617589    660.84951   0.14583615 
  201900   -941.47556     48.09681   -893.37875    1722.6533   -1034.0377    2.1599366    680.28403   0.15638429 
  202000   -941.34654    52.219172   -889.12737    1870.3014    5707.5507    2.1728144    657.32851   0.15884202 
  202100   -939.55077    49.970608   -889.58016    1789.7659   -2283.3918    2.1487183    656.61028   0.13926626 
  202200   -948.27194    47.840823   -900.43112    1713.4848   -5818.4999    2.1648381    661.71225   0.12807858 
  202300   -940.84989    47.675848   -893.17404     1707.576    4798.0391    2.1760738    658.19766   0.14174557 
  202400   -938.69734    50.145907   -888.55143    1796.0445    4171.4766    2.1647612       665.09   0.15297694 
  202500    -942.4521    50.748023   -891.70408    1817.6101   -10511.911    2.1361781    656.27267   0.14021336 
  202600   -946.73204    47.780132   -898.95191     1711.311    4343.1277    2.1843754     657.9647   0.14705796 
  202700   -941.60829    53.141583   -888.46671    1903.3388    3357.4378     2.169846     654.1427   0.15578369 
  202800   -939.35552    49.762416   -889.59311    1782.3093   -6244.4655    2.1408976     660.6556   0.14817656 
  202900   -939.88536    49.288715   -890.59665     1765.343    216.10103    2.1606531    680.13746   0.16245366 
  203000   -935.51645     55.51948   -879.99697    1988.5064    9587.2987    2.1718159    632.19918   0.17100824 
  203100   -934.63844    51.154871   -883.48357     1832.182   -2206.7044    2.1432459    514.04928   0.16297625 
  203200   -940.34445    49.493755    -890.8507    1772.6868   -9304.8527     2.133999    522.50174    0.1282872 
Loop time of 141.095 on 1 procs for 200000 steps with 217 atoms

Performance: 367.413 ns/day, 0.065 hours/ns, 1417.487 timesteps/s
100.0% CPU use with 1 MPI tasks x no OpenMP threads

MPI task timing breakdown:
Section |  min time  |  avg time  |  max time  |%varavg| %total
---------------------------------------------------------------
Pair    | 134.1      | 134.1      | 134.1      |   0.0 | 95.05
Neigh   | 3.8224     | 3.8224     | 3.8224     |   0.0 |  2.71
Comm    | 0.95725    | 0.95725    | 0.95725    |   0.0 |  0.68
Output  | 0.068154   | 0.068154   | 0.068154   |   0.0 |  0.05
Modify  | 1.8386     | 1.8386     | 1.8386     |   0.0 |  1.30
Other   |            | 0.3042     |            |       |  0.22

Nlocal:    217 ave 217 max 217 min
Histogram: 1 0 0 0 0 0 0 0 0 0
Nghost:    954 ave 954 max 954 min
Histogram: 1 0 0 0 0 0 0 0 0 0
Neighs:    4126 ave 4126 max 4126 min
Histogram: 1 0 0 0 0 0 0 0 0 0
FullNghs:  8252 ave 8252 max 8252 min
Histogram: 1 0 0 0 0 0 0 0 0 0

Total # of neighbors = 8252
Ave neighs/atom = 38.0276
Neighbor list builds = 6474
Dangerous builds = 120
Total wall time: 0:02:23
