LAMMPS (3 Mar 2020)
Reading data file ...
  orthogonal box = (0 0 0) to (12.27 12.27 12.27)
  1 by 1 by 1 MPI processor grid
  reading atoms ...
  108 atoms
  read_data CPU = 0.000908566 secs
Reading potential file /usr/share/lammps-stable/potentials/Ag_u3.eam with DATE: 2007-06-11
Neighbor list info ...
  update every 1 steps, delay 10 steps, check yes
  max neighbors/atom: 2000, page size: 100000
  master list distance cutoff = 7.55
  ghost atom cutoff = 7.55
  binsize = 3.775, bins = 4 4 4
  2 neighbor lists, perpetual/occasional/extra = 1 1 0
  (1) pair eam, perpetual
      attributes: half, newton on
      pair build: half/bin/atomonly/newton
      stencil: half/bin/3d/newton
      bin: standard
  (2) compute rdf, occasional, copy from (1)
      attributes: half, newton on
      pair build: copy
      stencil: none
      bin: none
Setting up Verlet run ...
  Unit style    : metal
  Current step  : 0
  Time step     : 0.005
Per MPI rank memory allocation (min/avg/max) = 3.723 | 3.723 | 3.723 Mbytes
Step PotEng KinEng TotEng Temp Press Density c_msdall[4] 
       0       -307.8    16.735311   -291.06469         1210    9676.4618    10.472245            0 
     100   -295.95124    7.3235401    -288.6277    529.50815   -4478.9412     9.946102  0.072912897 
     200   -295.20718    8.9039312   -286.30325    643.77392   -4926.0164      9.90168  0.086190061 
     300    -294.9115    10.773114   -284.13839    778.91994    11650.426     10.04523  0.077820305 
     400   -294.98122    12.920323   -282.06089    934.16791     -3580.95    9.8724425  0.092668689 
     500   -291.72567    11.853205   -279.87247    857.01295   -6754.7775    9.7088238   0.11936316 
     600    -293.0133    15.126594   -277.88671    1093.6862    692.95398    9.8325273   0.11088246 
     700   -290.68359    15.054328   -275.62926    1088.4612    12014.131    9.8517858   0.13137588 
     800   -289.12147    15.341713   -273.77975    1109.2398   -12814.772    9.5408586   0.16816408 
     900   -287.48997    15.995462   -271.49451    1156.5073   -3699.4372    9.5677369   0.16340197 
    1000   -286.59814    16.173009   -270.42514    1169.3443      7451.21    9.6268567   0.17580855 
    1100   -284.94827    15.586802   -269.36147    1126.9603    4472.8054    9.5402433   0.20055112 
    1200    -288.8895    14.231366   -274.65814    1028.9593   -8371.0942    9.5746717   0.15034669 
    1300   -289.30241    16.813732   -272.48868      1215.67    4721.2948    9.7222669   0.14380718 
    1400   -287.99844    18.518797   -269.47964      1338.95    11910.174    9.7428934    0.1492343 
    1500   -286.92376    16.555403   -270.36835    1196.9923   -3546.6373    9.5190135   0.19579047 
    1600    -288.1895    14.220762   -273.96874    1028.1926   -1652.4531    9.6231995   0.16857755 
    1700   -287.79399    14.229698   -273.56429    1028.8387   -3042.5407    9.5926783    0.1595593 
    1800   -287.14338    16.896151   -270.24723    1221.6291    1522.4934    9.5775312   0.18735641 
    1900    -287.0502    17.641106   -269.40909     1275.491   -8822.5736     9.477124   0.20677727 
    2000   -285.53155     17.38356   -268.14799    1256.8698    1640.9887    9.5360757   0.20720702 
    2100   -290.25374    17.006584   -273.24715    1229.6136   -6674.0732    9.6291755   0.13807149 
    2200   -286.06609    15.251502   -270.81459    1102.7173    404.81969    9.5437641   0.18989471 
    2300   -286.08605    16.336899   -269.74915    1181.1939   -3549.4308    9.4871454   0.21982206 
    2400   -288.31373    16.440129    -271.8736    1188.6577   -2578.8442    9.6080907   0.16895165 
    2500   -289.27032    14.932019   -274.33831     1079.618     6723.646    9.7535765   0.14182239 
    2600   -287.02052    17.016686   -270.00384     1230.344    8576.7352    9.6473765   0.15003451 
    2700   -285.55641    14.841842   -270.71457     1073.098   -8719.3532    9.4340844   0.18108197 
    2800   -287.00778    14.728718   -272.27906    1064.9189   -145.96681    9.5826709   0.18887331 
    2900   -289.74311    13.252818    -276.4903    958.20804    7253.2594    9.7903502   0.12491312 
    3000    -288.1481    16.289551   -271.85855    1177.7705    1809.7496    9.6550918   0.15170775 
    3100   -289.33218    18.940429   -270.39175    1369.4349    5346.6116    9.7134281   0.14110066 
    3200   -286.79435    17.010546    -269.7838    1229.9001    6120.6838    9.6500204    0.1523542 
    3300   -285.19408    14.918864   -270.27522    1078.6668   -11151.375    9.4000155   0.19349884 
    3400   -289.08787    14.047746   -275.04012    1015.6831   -2539.0363    9.6373384    0.1584426 
    3500   -288.10922    16.629434   -271.47978    1202.3449    3502.7665    9.6768476   0.16759891 
    3600   -287.38214    18.301903   -269.08023    1323.2681   -10089.581    9.4666371   0.18666337 
    3700   -286.63327    16.594008   -270.03926    1199.7835    6988.5302    9.6265677   0.15669722 
    3800   -287.87386    14.993955    -272.8799    1084.0961      4149.05    9.6849568    0.1611766 
    3900   -286.54789    17.029186    -269.5187    1231.2478   -66.639126    9.5543988   0.18482628 
    4000   -285.12236    14.975329   -270.14703    1082.7494    1268.7841    9.5113258   0.22851616 
    4100    -289.7721    15.759153   -274.01295    1139.4216   -6768.2959    9.6197169   0.15155576 
    4200   -287.70734    16.191881   -271.51545    1170.7088   -14204.394    9.4503885   0.18493528 
    4300   -284.93011    15.617019   -269.31309     1129.145    6113.4523    9.5659823   0.20947571 
    4400   -286.90573    17.146547   -269.75919    1239.7332    18865.753    9.7651176   0.16572647 
    4500   -289.61146    17.651808   -271.95965    1276.2648    7600.1837    9.7739143   0.13538868 
    4600   -289.79336    13.664088   -276.12927    987.94381    -10598.48    9.6067558   0.13851549 
    4700    -288.3526    16.676729   -271.67587    1205.7644   -8450.3431    9.5389921   0.14322248 
    4800   -287.19833    16.440253   -270.75808    1188.6666    13969.003    9.7376011   0.15642728 
    4900   -286.65428    15.979208   -270.67507    1155.3321    3188.2959    9.5886628   0.17282033 
    5000   -283.95831    18.054941   -265.90337    1305.4122   -2777.1048    9.4083421   0.20803211 
    5100   -286.26217    17.891866   -268.37031    1293.6215   -8572.3435    9.4541044   0.20537891 
    5200   -287.83699    17.328231   -270.50876    1252.8694   -10803.721    9.4882517   0.20987542 
    5300   -288.67498    19.287306   -269.38768    1394.5149    3607.6882    9.6782049    0.1722367 
    5400   -284.49358    19.262982    -265.2306    1392.7562    17699.294    9.6602603   0.20927617 
    5500   -285.89098    21.200415   -264.69056    1532.8369   -2763.8602    9.4702683   0.21373024 
    5600   -285.33305    16.345203   -268.98785    1181.7944    8696.7808    9.5967221   0.17035671 
    5700   -286.19636    15.834591   -270.36177    1144.8759    7044.4231    9.6302414   0.18559358 
    5800   -287.26882    15.099855   -272.16896    1091.7529   -8205.1524    9.4944974   0.17364956 
    5900    -288.2427    14.696984   -273.54572    1062.6244   -285.63689    9.6328265    0.1372801 
    6000   -286.91063     19.20004   -267.71059    1388.2053    10259.859    9.6785611    0.1703287 
    6100   -285.81362    16.855928   -268.95769    1218.7209    13044.206    9.6577845    0.1679798 
    6200   -287.69915    17.083207   -270.61594    1235.1536     810.1184    9.6002345   0.15579784 
    6300   -286.52075    15.157949    -271.3628    1095.9532    1949.4056    9.5828259    0.1914353 
    6400   -283.84116    18.123769   -265.71739    1310.3886   -3064.8115    9.4089821   0.23243185 
    6500   -282.52193    15.053036    -267.4689    1088.3678    12463.013    9.5734646    0.2398636 
    6600   -285.85285    15.418701   -270.43415    1114.8062   -1678.7119    9.4737241    0.1820393 
    6700   -286.11585    14.597465   -271.51838     1055.429   -13429.825    9.3947392   0.20631388 
    6800   -284.87933    15.986657   -268.89268    1155.8706   -5735.4758    9.4446598   0.22327217 
    6900   -285.91488     19.83668    -266.0782    1434.2359    6288.0399     9.573243   0.21048516 
    7000   -286.58868    16.564545   -270.02413    1197.6532     4950.802    9.6080531   0.21718323 
    7100   -287.09873    16.024537    -271.0742    1158.6094    -17890.39    9.3705228   0.21993771 
    7200   -284.71794    15.346616   -269.37133    1109.5942    -2182.283    9.4558952   0.25169271 
    7300   -284.19738    18.430919   -265.76646    1332.5962    8126.0082    9.5390872   0.22485586 
    7400   -285.96469    17.170453   -268.79424    1241.4617    2216.0454    9.5546157   0.19621035 
    7500   -287.21975    16.234191   -270.98556    1173.7679   -7024.8146     9.489161   0.20872779 
    7600   -287.16893    18.141139   -269.02779    1311.6445   -9742.5306    9.4707842   0.20283701 
    7700   -283.39448    17.792469   -265.60201    1286.4349    7206.9877    9.4536151   0.23464167 
    7800    -285.2878    15.079463   -270.20834    1090.2785   -17394.409    9.3153887   0.25129185 
    7900   -286.67474    15.859788   -270.81495    1146.6977   -12568.014    9.4259607    0.2031003 
    8000   -287.98359    17.218176   -270.76541    1244.9122    4316.6792    9.6517356   0.16128739 
    8100   -283.87748     18.56348     -265.314    1342.1806    10889.785    9.5758428   0.19359495 
    8200    -287.2466    17.111033   -270.13557    1237.1656    810.17871    9.5982326   0.18132254 
    8300    -286.9903    16.045002   -270.94529    1160.0891    -21181.59    9.3558733   0.20994542 
    8400   -285.08689    16.526647   -268.56024    1194.9131   -13674.143    9.3466305   0.18782869 
    8500   -285.90347    15.148632   -270.75483    1095.2796    20287.465    9.7702116   0.19465228 
    8600   -289.80705    16.990485   -272.81656    1228.4496    10251.597    9.8097905   0.13260767 
    8700   -287.50363    18.633759   -268.86987     1347.262   -9259.6524    9.4844835   0.17108387 
    8800   -285.25629    14.719266   -270.53702    1064.2355    2035.7285    9.5229628   0.17627629 
    8900   -289.42664    16.120457   -273.30618    1165.5447   -4897.0624     9.620465    0.1519206 
    9000   -285.81277    17.197723   -268.61505    1243.4334    13929.144    9.6950713   0.17984583 
    9100   -286.05318    17.090891   -268.96229    1235.7093    9600.1269    9.6544979   0.17404214 
    9200   -288.78127    16.078314   -272.70296    1162.4976   -16014.211    9.4684788   0.17013076 
    9300   -286.57699    16.017025   -270.55996    1158.0663    4443.0057    9.6077168   0.16963574 
    9400   -285.68649    17.791084    -267.8954    1286.3347    6815.7606    9.5876544   0.18547326 
    9500   -288.73438    17.570539   -271.16384    1270.3888   -2879.5337    9.6016706   0.13882059 
    9600   -289.37642     16.40092    -272.9755    1185.8228    923.53871    9.6759004   0.15128029 
    9700   -283.74759    15.456857   -268.29074    1117.5649    4380.9933    9.4726804   0.20602346 
    9800   -286.80224    16.813584   -269.98865    1215.6593   -7135.0663    9.4736494   0.18948703 
    9900   -288.22067    16.524876    -271.6958    1194.7851    1743.7249    9.6357842   0.16915964 
   10000   -284.88883    17.200833     -267.688    1243.6583    2059.1532    9.5134975   0.20607981 
   10100   -284.59588     17.21421   -267.38167    1244.6255   -8920.7915    9.3786343   0.21267788 
   10200   -288.67403    17.734744   -270.93929    1282.2612   -4010.1183    9.5940115   0.18692395 
   10300   -289.04833    18.394912   -270.65341    1329.9929     12750.29    9.7854012   0.15062506 
   10400   -287.86756    18.339369   -269.52819     1325.977   -2339.4219    9.5680536    0.1636379 
   10500   -281.60617    15.519442   -266.08672      1122.09   -10911.262    9.2375615    0.3024454 
   10600   -286.60804    16.669147   -269.93889    1205.2162   -808.79102    9.5512425   0.17970032 
   10700   -287.37838    16.277957   -271.10042    1176.9323    8925.1605    9.6950935   0.15170618 
   10800   -286.41756    17.571977   -268.84559    1270.4928    1839.5347    9.5603138   0.18446612 
   10900   -286.42519    19.345166   -267.08003    1398.6983   -2567.6509    9.4790995   0.18265089 
   11000   -287.38412    17.082866   -270.30125     1235.129    2633.3145    9.6116769   0.17353999 
   11100     -286.911    16.276538   -270.63446    1176.8297    3444.3183    9.6197456   0.19497277 
   11200   -284.54933    17.896027    -266.6533    1293.9223   -2426.1599    9.4672238   0.21507375 
   11300   -284.39571    15.059582   -269.33613    1088.8411   -9734.5543    9.3566722   0.27675898 
   11400   -286.92616    15.890421   -271.03574    1148.9126   -4536.4452    9.5039766   0.22383343 
   11500   -287.17603    16.106026   -271.07001    1164.5013    13948.786    9.7283709   0.18285972 
   11600   -284.11355    18.109158   -266.00439    1309.3322    15996.314    9.6137702   0.21786181 
   11700   -286.06961    16.869528   -269.20008    1219.7042   -2462.2738    9.5124652   0.17966159 
   11800   -289.19296    17.206328   -271.98663    1244.0555   -12596.464    9.5183773   0.14994975 
   11900   -286.74709    17.949824   -268.79726     1297.812    9696.0891    9.6751704   0.17413942 
   12000   -284.77002    18.287277   -266.48274    1322.2106    12328.621    9.6077649   0.20985475 
   12100   -286.71946    15.573372   -271.14608    1125.9892    1119.6976    9.5983287   0.16685252 
   12200   -287.01081    15.910017   -271.10079    1150.3294    4319.4283    9.6211694   0.15962106 
   12300   -285.41007    19.278664   -266.13141      1393.89    5240.2716    9.5576511   0.21523643 
   12400   -285.15319    15.754952   -269.39824    1139.1179    4191.9468    9.5442348   0.23916363 
   12500   -287.47112    16.459659   -271.01146    1190.0697   -10490.346    9.4760462   0.16744467 
   12600   -290.05527    15.682013   -274.37326    1133.8442    1277.0238    9.7028215   0.13100923 
   12700   -286.20511      16.0933   -270.11181    1163.5812    218.63338    9.5591564   0.18339415 
   12800   -287.73331    18.031251   -269.70206    1303.6993    3472.4036     9.635065   0.16511831 
   12900   -287.39218    16.532428   -270.85975    1195.3311   -3395.9634    9.5435014   0.17159604 
   13000   -286.10615    14.272955    -271.8332    1031.9662   -4560.8801    9.4900963   0.19684875 
   13100   -289.86006    13.096833   -276.76323       946.93    199.07142    9.7177064   0.15034966 
   13200   -289.20792    15.661941   -273.54598     1132.393    9239.2367    9.7521901    0.1417523 
   13300   -288.20407     16.91244   -271.29163    1222.8068   -7857.1066    9.5188359   0.13972387 
   13400   -286.09635    16.286257    -269.8101    1177.5324   -1752.7808    9.4952928   0.19949436 
   13500   -283.90225    16.586718   -267.31553    1199.2564   -554.68958    9.4175122   0.25844502 
   13600    -289.1563    16.770748   -272.38555    1212.5622    7813.1365    9.7474828    0.1469681 
   13700   -287.54017    15.792966   -271.74721    1141.8663   -6271.2407    9.5425227   0.17826779 
   13800   -284.64686    15.631525   -269.01533    1130.1938   -628.05702    9.4637215   0.21782346 
   13900   -286.06508    16.992079     -269.073    1228.5649    -6624.175    9.4517694   0.21457598 
   14000   -290.58771    17.330782   -273.25692    1253.0539    1884.0254    9.7372182   0.12163707 
   14100   -288.30919    18.401021   -269.90817    1330.4345    6162.8246    9.6744587   0.14031422 
   14200   -285.14205    15.458974   -269.68308     1117.718    5279.0054    9.5687108   0.21274325 
   14300   -286.88889    13.778121   -273.11077    996.18861   -12167.035    9.4502318   0.18512246 
   14400   -287.73913    15.352482   -272.38665    1110.0184    3304.2058    9.6394236   0.16532902 
   14500   -285.77122    16.440048   -269.33117    1188.6518    15081.437    9.6869228   0.16874047 
   14600   -286.59228    15.257464   -271.33481    1103.1484   -2306.7535    9.5505426   0.19554841 
   14700   -288.06202    13.475986   -274.58604    974.34356   -4443.8416    9.5811781   0.18344725 
   14800   -287.32181    17.528779   -269.79303    1267.3695   -6250.9222    9.5041368   0.19264191 
   14900   -288.14338    18.492411   -269.65097    1337.0422   -5160.2874    9.5762123   0.17939673 
   15000   -288.36892    17.012348   -271.35658    1230.0304   -1239.1018    9.6084991   0.17076469 
   15100   -287.77718      18.8305   -268.94668    1361.4868    13373.208    9.7493001   0.16133394 
   15200   -283.60023    18.696322   -264.90391    1351.7854    5014.0742    9.4902062   0.24982493 
   15300    -285.9888    17.125841   -268.86296    1238.2362   -5339.5388    9.4753562   0.17786615 
   15400   -288.02655    17.195215   -270.83134    1243.2521   -5389.1307    9.5502903   0.17064427 
   15500   -289.24878     16.26632   -272.98246    1176.0909   -7944.6125     9.585769    0.1619707 
   15600   -290.41559    15.593768   -274.82182    1127.4639    1421.1144    9.7352041   0.14277934 
   15700    -284.9942    15.296145   -269.69806    1105.9451     9345.389     9.607776   0.17294995 
   15800   -287.86332    17.187027   -270.67629    1242.6601    3965.5136    9.6340656   0.16598491 
   15900   -285.82681    14.379082   -271.44772    1039.6395   -9306.3198     9.449328    0.1778382 
   16000   -283.37398    17.392563   -265.98142    1257.5208    4247.6614    9.4513748   0.27536456 
   16100   -286.90029    19.611286     -267.289    1417.9393    1704.5247     9.580533   0.19025805 
   16200   -286.46175    16.077725   -270.38403    1162.4551   -10026.773    9.4590682   0.20866209 
   16300   -289.70944    19.416509   -270.29293    1403.8566   -8615.9704     9.581396   0.13793799 
   16400   -290.63188    16.582637   -274.04924    1198.9614     11911.79    9.8698851   0.10787079 
   16500   -290.06832    16.468752   -273.59956    1190.7272   -3443.5698    9.6710699    0.1252909 
   16600   -286.07194    15.709594   -270.36235    1135.8384    -6497.079    9.4704707   0.20118071 
   16700   -287.35906      18.4663   -268.89276    1335.1544   -3052.7777    9.5604219   0.16573101 
   16800    -288.7483    15.393066   -273.35524    1112.9528    9905.1588    9.7729558   0.14508807 
   16900   -288.39777    15.911152   -272.48662    1150.4115   -3180.4535    9.6052511   0.17631382 
   17000   -285.67623    15.833241   -269.84299    1144.7783   -3600.7376    9.5010955   0.20426966 
   17100   -287.47877    17.271706   -270.20706    1248.7825    2583.6661       9.6092    0.1742538 
   17200   -290.58589    17.264138   -273.32175    1248.2354     5872.999    9.7863117   0.13504788 
   17300   -290.66026     16.23649   -274.42377    1173.9342    2220.7362    9.7366272     0.130756 
   17400   -286.56884     15.56859   -271.00024    1125.6435   -10561.946     9.438925   0.17374951 
   17500   -286.19323    15.972149   -270.22108    1154.8217   -12899.285    9.4130507   0.21821619 
   17600   -285.32916    18.884054   -266.44511    1365.3589     6690.166    9.5626455   0.22106165 
   17700   -287.84867    19.332291   -268.51638    1397.7674   -293.21988    9.5923489   0.17741254 
   17800   -287.67189    16.747946   -270.92394    1210.9136    3904.3077    9.6548789   0.17608589 
   17900   -286.83616    17.259692   -269.57647    1247.9139    1669.3945    9.5974298   0.16934821 
   18000   -285.58093    18.774756   -266.80618    1357.4564   -1552.2164    9.5005026   0.19384825 
   18100   -284.13756    19.119076   -265.01849    1382.3515    6385.8805    9.5457906   0.23120395 
   18200   -287.85096    17.980211   -269.87075     1300.009   -9683.2196    9.4908261   0.19487058 
   18300   -285.67044    15.484038   -270.18641    1119.5302   -10582.259    9.4127049   0.20057058 
   18400   -288.29958    17.902594   -270.39698    1294.3971    8514.2612    9.7055888    0.1736824 
   18500   -285.12361    20.526898   -264.59671    1484.1401     6949.598    9.5536037   0.18039423 
   18600   -286.64267       17.814   -268.82867    1287.9916   -11132.809    9.4274061   0.19571915 
   18700   -286.07835    15.705873   -270.37248    1135.5694   -1686.1691    9.5213598   0.19044798 
   18800   -288.31046    16.511275   -271.79918    1193.8017   -3926.9642    9.5858463   0.18029206 
   18900   -290.51536    14.640298   -275.87506    1058.5259    1887.2288    9.7398395     0.122931 
   19000   -288.61207    15.880818   -272.73126    1148.2182    13214.884    9.7644833    0.1549713 
   19100   -287.30839      16.5333   -270.77509    1195.3942   -3239.0498    9.5538183   0.16999392 
   19200   -286.43149    15.933809   -270.49768    1152.0497    5146.6821    9.6090555   0.16009965 
   19300   -289.80405    16.383312   -273.42074    1184.5497   -5570.9162    9.6376129   0.13672806 
   19400   -291.00559    16.436447   -274.56915    1188.3915    -3847.891    9.7017218   0.14529349 
   19500   -287.77635    17.205258   -270.57109    1243.9782   -2178.4308    9.5872777   0.19627158 
   19600   -286.46421    16.586836   -269.87737    1199.2649   -2410.6595    9.5317117   0.18858786 
   19700   -288.36978    14.824015   -273.54577    1071.8091    16460.863    9.8172546   0.18278176 
   19800   -286.08071    14.058427   -272.02228    1016.4554    7914.6789     9.654431   0.18969367 
   19900   -285.42853    16.199099   -269.22943    1171.2307   -16081.626    9.3239186   0.19444685 
   20000    -287.6568    17.147075   -270.50973    1239.7715    -4769.099    9.5373595   0.15964166 
   20100   -290.29594    16.929664   -273.36628    1224.0522    9632.3925    9.8035397   0.12891089 
   20200   -286.80005    18.371371   -268.42868    1328.2908    477.41209    9.5764036   0.17298206 
   20300   -286.93144    17.212358   -269.71908    1244.4916    7936.4012    9.6430011   0.18605334 
   20400   -286.39832    15.773683   -270.62463    1140.4722   -4718.7499     9.514235   0.20872533 
   20500   -286.22246    17.462906   -268.75956    1262.6068   -12537.917    9.4101467   0.20638868 
   20600   -282.84752    17.106593   -265.74093    1236.8445     17141.77    9.6079528   0.26389158 
   20700   -287.79104    17.778905   -270.01214    1285.4542   -2671.0558     9.582173   0.15637703 
   20800     -286.749    15.085638   -271.66336     1090.725   -18074.638    9.3798325   0.21788273 
   20900   -285.97473    17.551488   -268.42324    1269.0114   -622.21518    9.5139179   0.19903873 
   21000   -283.86086    17.157203   -266.70366    1240.5038    15672.159     9.659697   0.21417505 
   21100   -289.48818    17.619585   -271.86859    1273.9349   -1061.6657    9.6788221   0.15973523 
   21200   -288.06541    17.096537   -270.96887    1236.1175   -257.35097    9.6163829    0.1634062 
   21300   -285.95061    16.910771   -269.03984    1222.6862   -5043.7326    9.4636566   0.16442441 
   21400     -289.467    15.696629   -273.77037     1134.901    4628.6454    9.7321237   0.11994841 
   21500   -289.05586    16.663817   -272.39204    1204.8308    20720.345    9.8872563   0.12601254 
   21600   -286.81363    16.756304   -270.05732    1211.5178   -2747.5807    9.5274197   0.18714574 
   21700   -285.70986    16.846828   -268.86303     1218.063   -15568.145    9.3503234   0.19467295 
   21800   -289.91828    16.213628   -273.70465    1172.2812   -6451.0315    9.6356158   0.15398348 
   21900   -288.43485    17.393198   -271.04165    1257.5667    1375.1091     9.641167   0.15790169 
   22000   -286.36675    16.745694   -269.62105    1210.7507    2648.4161    9.5793293   0.18695813 
   22100   -288.41833    15.447063   -272.97127    1116.8568    7340.8981    9.7117301   0.15157464 
   22200   -287.59996    14.118079   -273.48188    1020.7684    94.341695    9.6335183   0.16147987 
   22300   -286.52536    16.655731   -269.86962    1204.2462    7393.9736    9.6296232   0.16355987 
   22400   -286.81911    17.730084   -269.08903    1281.9243    23935.697    9.8223299   0.15542573 
   22500   -287.00857    16.966509   -270.04206    1226.7161    3200.5235     9.609305   0.14413936 
   22600   -288.22782    14.248931   -273.97889    1030.2292   -12728.704    9.5039296   0.16026571 
   22700   -287.42407    16.427975    -270.9961    1187.7789   -5811.2921    9.5577852    0.1859245 
   22800   -286.27191    16.839543   -269.43237    1217.5362    4041.1029    9.5953972   0.21933562 
   22900   -286.06569    18.651354   -267.41434    1348.5342    1246.4082    9.5393192   0.19643837 
   23000    -289.6588    16.895469   -272.76333    1221.5798    11513.026    9.7957814   0.13063139 
   23100   -287.34133    15.721188   -271.62014    1136.6767    11862.987    9.7155568    0.1611001 
   23200   -285.14635    15.189192   -269.95716    1098.2122    -6313.083    9.4614062   0.24341922 
   23300   -283.50456    17.953307   -265.55126    1298.0638    5358.9303    9.4793345   0.19504216 
   23400   -286.28771    16.662603   -269.62511    1204.7431   -158.26128    9.5527681   0.17765276 
   23500   -286.47978     15.54742   -270.93236    1124.1129   -553.70663    9.5605637   0.17234019 
   23600   -286.44531    16.387545   -270.05777    1184.8557    5842.5002    9.6092371   0.18324039 
   23700   -283.38871    18.941712     -264.447    1369.5277    6900.3799    9.5004085   0.22590144 
   23800   -286.26169    17.802516   -268.45918    1287.1613    4630.2865    9.5782395   0.18863434 
   23900   -285.92332    15.626522    -270.2968    1129.8321    7006.7812    9.6283493   0.18062729 
   24000   -288.41043    15.657639   -272.75279     1132.082    9030.9683    9.7339491   0.14743979 
   24100   -288.61299    14.502754   -274.11024    1048.5812   -2908.2708    9.6215228     0.182154 
   24200    -286.7288    17.124876   -269.60393    1238.1664   -6071.1535    9.4930234   0.15714765 
   24300   -286.78174    16.387661   -270.39408    1184.8642    4106.0709     9.626029   0.18904454 
   24400   -287.69291    18.530084   -269.16282    1339.7661    4316.3456    9.6478247   0.17860763 
   24500   -285.99098     21.17209   -264.81889    1530.7889   -3069.9914    9.4997732    0.2201349 
   24600   -286.28818    17.051256   -269.23693    1232.8435    11377.221    9.6794877   0.18919934 
   24700   -286.49775    14.858061   -271.63969    1074.2706   -4376.1527    9.5135249   0.18907347 
   24800   -285.30542    15.382146   -269.92327    1112.1632    1984.0299    9.5528931    0.1978401 
   24900   -284.37996    17.404593   -266.97536    1258.3905     9773.804    9.5554438   0.17888605 
   25000   -284.38633    19.892224    -264.4941    1438.2518    15627.278    9.6326191   0.20703679 
   25100    -287.8486    17.704887   -270.14372    1280.1025   -2349.3835    9.5885931   0.15481456 
   25200   -286.62563    16.146486   -270.47914    1167.4266   -9825.8446    9.4578072   0.19630014 
   25300   -285.78136      16.8583   -268.92306    1218.8924    9495.8802     9.610629   0.19576872 
   25400   -285.59024    20.974649   -264.61559    1516.5135     6197.826    9.5566522   0.17667072 
   25500   -287.59168    16.694141   -270.89754    1207.0233    2952.2604     9.644193   0.16295788 
   25600   -286.34235    15.137053    -271.2053    1094.4424   -3593.5576    9.5043262   0.19069144 
   25700   -285.39165    15.848351    -269.5433    1145.8708    3229.7339    9.5559948   0.21111866 
   25800   -283.98133    18.314987   -265.66634     1324.214    420.74331    9.4595317   0.21259907 
   25900    -288.5822    19.161319   -269.42088    1385.4057    2123.5297    9.6352784   0.16573831 
   26000    -286.2436    14.912798    -271.3308    1078.2283   -3235.8227    9.5027498   0.19284426 
   26100   -284.36618    13.494147   -270.87203    975.65666   -11849.693     9.334573   0.20358607 
   26200   -283.86119    16.264087   -267.59711    1175.9294   -135.28539    9.4189325   0.25636021 
   26300   -283.52804    16.719635    -266.8084    1208.8666    12059.422     9.572926   0.23760744 
   26400   -287.89716    16.707574   -271.18959    1207.9946   -4509.1912    9.5647597   0.18237991 
   26500   -286.42894    15.547444   -270.88149    1124.1146    2800.3684    9.5956205   0.16024643 
   26600    -285.4653    17.254619   -268.21068    1247.5471   -6384.7355    9.4484949   0.23683902 
   26700    -283.6707    17.622657   -266.04805    1274.1571    4058.4336    9.4931816   0.27073662 
   26800   -285.24071     16.25095   -268.98976    1174.9796     1158.282    9.5215286   0.22001445 
   26900   -287.93728    16.553496   -271.38378    1196.8544   -623.99471    9.6286033   0.16664043 
   27000   -289.63489    15.765855   -273.86904    1139.9062    16525.672    9.8634925    0.1245689 
   27100   -286.66145    17.805379   -268.85607    1287.3683   -7652.6794     9.485284   0.17786015 
   27200   -287.33471    17.114478   -270.22023    1237.4146   -13405.545    9.4364671   0.19448651 
   27300    -287.3741    15.012756   -272.36134    1085.4555   -5688.5913    9.5296554   0.18553262 
   27400   -285.87571    17.790466   -268.08524      1286.29    10935.331     9.654346   0.19647619 
   27500   -287.34713    19.734281   -267.61284    1426.8322     9222.339    9.6756643   0.18505243 
   27600   -286.67177    16.309842   -270.36192    1179.2377    323.92796    9.5625343   0.17223561 
   27700   -288.62872    15.752635   -272.87609    1138.9504   -4629.1425    9.5846108   0.17008651 
   27800   -284.81143    16.281495   -268.52993    1177.1881    4680.0326     9.532923   0.20727002 
   27900   -286.89983    18.751164   -268.14866    1355.7506   -7535.6041    9.4442931   0.15232821 
   28000   -287.40781    16.557483   -270.85033    1197.1426   -6028.9017    9.5387703   0.16274495 
   28100   -288.61233     17.94689   -270.66544    1297.5998    16956.518    9.8281011   0.14512423 
   28200   -286.00694     20.89244    -265.1145    1510.5696    1019.0501    9.5241208   0.21739331 
   28300   -287.49569    18.436989    -269.0587    1333.0351   -5258.0538    9.5184714    0.1773384 
   28400   -286.49961    15.312459   -271.18715    1107.1247   -10071.826    9.4466699   0.18527603 
   28500   -285.69635    14.824686   -270.87167    1071.8576   -10186.708    9.4076584   0.20391247 
   28600      -284.18    17.721926   -266.45807    1281.3344   -135.43678    9.4539333   0.26355465 
   28700   -287.25636    18.300593   -268.95576    1323.1733   -440.17236    9.5856383   0.19344708 
   28800   -289.24959    17.507375   -271.74221    1265.8219    6482.3808    9.7399011   0.15971152 
   28900   -286.66921    16.733631   -269.93558    1209.8785   -11113.218    9.4267362   0.17972779 
   29000   -284.61144    17.113777   -267.49766    1237.3639   -8464.6159    9.3908312   0.24288333 
   29100   -284.74382    18.250856   -266.49296    1319.5773    3493.7174    9.5363368   0.18890612 
   29200   -286.99258    15.812899   -271.17968    1143.3075     19087.29     9.770457   0.16190301 
   29300   -286.29362    15.694941   -270.59868    1134.7789   -2531.7945    9.5319283   0.17595768 
   29400   -287.53741    17.655138   -269.88227    1276.5055   -12188.888    9.4733813   0.19073902 
   29500   -288.84487    18.077633   -270.76724    1307.0529    4946.1393    9.7086215   0.14950637 
   29600   -289.99185    15.979431   -274.01242    1155.3482   -4783.9936    9.6606625    0.1504971 
   29700   -288.13855     16.67772   -271.46083    1205.8361   -4491.2194    9.5796684   0.16985184 
   29800   -287.17745    17.547402   -269.63005     1268.716    1512.9078    9.5808118   0.19792925 
   29900   -284.99585    19.285389   -265.71046    1394.3763   -162.00029    9.4633492   0.22359577 
   30000   -286.57926    16.603066    -269.9762    1200.4384   -3374.6165    9.5172919    0.1960672 
   30100   -287.04228    15.493643   -271.54863    1120.2246   -7308.9044    9.5114765   0.21740115 
   30200   -287.37145    18.877788   -268.49367    1364.9058     6057.377    9.6552914   0.21675342 
   30300    -285.7472    20.484348   -265.26285    1481.0637    17021.895    9.6711051   0.20276746 
   30400   -286.23934    16.087541    -270.1518    1163.1648    1697.7618    9.5698347   0.18670295 
   30500   -287.83006    16.941532   -270.88853    1224.9102   -7685.6189    9.5159959   0.18862013 
   30600   -284.61848    15.815926   -268.80256    1143.5264    4795.6253    9.5341009   0.23135422 
   30700   -283.73574    19.548783   -264.18696    1413.4202   -8666.2284    9.3089858   0.24250514 
   30800   -286.60875    17.198333   -269.41042    1243.4775    8752.7694    9.6393972   0.19903929 
   30900   -287.34916    16.474379   -270.87478    1191.1341   -2464.4423    9.5761355   0.16446604 
   31000   -288.07076    17.276815   -270.79394    1249.1519    3749.5187    9.6658819   0.17915209 
   31100   -282.96393    16.698034    -266.2659    1207.3048    988.05879    9.4213935   0.21631781 
   31200   -285.76433    16.712483   -269.05185    1208.3495   -20117.124    9.3138501    0.2355476 
   31300   -286.33672    14.949278   -271.38744    1080.8659    2081.9145    9.5763871    0.2043604 
   31400   -287.64321    19.370361   -268.27285      1400.52    13106.602    9.7220153   0.16221345 
   31500   -284.44463    19.184532    -265.2601    1387.0841    1254.7301    9.4758036   0.18066366 
   31600    -286.8218    16.297744   -270.52406    1178.3629   -5491.4315    9.5084977   0.18067147 
   31700   -286.67327    16.189917   -270.48335    1170.5668   -2181.3228    9.5271915   0.16623752 
   31800   -286.87154    16.165902   -270.70564    1168.8305   -2361.8256    9.5545345   0.20744712 
   31900   -284.04122    18.759451   -265.28177    1356.3498   -4179.4429    9.3951915   0.25334095 
   32000   -285.57268    18.587341   -266.98534    1343.9059    6745.2775    9.5875561   0.20946995 
   32100    -287.5958    18.460025   -269.13577    1334.7006    9846.8873    9.7007335   0.19375609 
   32200   -284.74134    13.300866   -271.44048    961.68205   -3272.3098    9.4360265   0.22836977 
   32300   -285.38823    16.756019   -268.63221    1211.4972   -20898.626    9.2576663   0.24519455 
   32400   -283.77818    17.727396   -266.05078    1281.7299    10707.733    9.5549703   0.22443332 
   32500   -288.40375    17.672836   -270.73091    1277.7851    8150.8214    9.7162436   0.14272905 
   32600   -287.76838    16.761178    -271.0072    1211.8703   -2255.0845    9.5690265   0.18206355 
   32700   -284.55476    17.500305   -267.05446    1265.3108   -2831.0506    9.4272932   0.22323502 
   32800   -286.70472    17.086414    -269.6183    1235.3855   -4388.4813    9.5077189   0.20153584 
   32900   -288.98793    17.475842   -271.51209     1263.542    3195.2516    9.6757255   0.17929705 
   33000   -286.22694    17.015213   -269.21172    1230.2375   -8178.3257    9.4588863   0.19623465 
   33100   -284.55316    17.330071   -267.22309    1253.0025   -6736.5298    9.3972407   0.20265068 
   33200   -287.34356    14.631598   -272.71197    1057.8969    123.00748     9.593223   0.17592605 
   33300   -287.70565    17.069093   -270.63656    1234.1332   -6158.4673    9.5227072   0.18299328 
   33400   -285.63156    16.241191   -269.39037    1174.2741    515.23605    9.5283296   0.18389453 
   33500   -290.77605    17.169427   -273.60662    1241.3876    5689.5563    9.7905256   0.12270281 
   33600   -288.28405    15.896013   -272.38804    1149.3169    5177.1077    9.6878449   0.15725642 
   33700    -285.5436    16.622211   -268.92138    1201.8227    668.82008     9.521738   0.16670484 
   33800   -287.86597    17.142988   -270.72298     1239.476   -8017.7242    9.5118353   0.17434568 
   33900   -289.59008    17.522449   -272.06763    1266.9118    14174.933    9.8111512   0.12387688 
   34000    -290.7395    14.487772   -276.25173    1047.4979    2550.1517    9.7834449   0.13852909 
   34100   -287.41631    15.366304   -272.05001    1111.0177   -14835.204    9.4294842   0.17495767 
   34200   -285.40781    14.859731   -270.54808    1074.3915      4829.58    9.5569127   0.22781051 
   34300   -287.18896    19.281775   -267.90718     1394.115   -10326.364    9.4614022   0.20189786 
   34400    -287.2386    16.734919   -270.50368    1209.9717    2717.1829    9.6318001   0.16180742 
   34500   -289.52992    17.119665   -272.41026    1237.7896   -1094.7048    9.6621647   0.16251199 
   34600   -285.36345    15.409747    -269.9537    1114.1588   -4670.7458    9.4668032   0.22702869 
   34700   -284.59861    16.193032   -268.40558     1170.792   -8718.4061    9.3665336   0.25747421 
   34800   -287.92045    15.592107   -272.32834    1127.3438   -7469.8198    9.5326678    0.1757165 
   34900   -286.86372    15.009932   -271.85379    1085.2513    13290.313    9.7241068   0.15730435 
   35000   -285.98928    17.792401   -268.19688      1286.43     9096.051    9.6459315   0.19623728 
   35100   -288.57712    17.815073   -270.76205    1288.0692   -5513.6808    9.5670486   0.16429302 
   35200   -288.69907    15.111453   -273.58762    1092.5914    3302.8926    9.6727048   0.16702775 
   35300   -285.40635    16.320465   -269.08589    1180.0057   -4532.1597    9.4660052    0.2045208 
   35400   -286.90985    17.881641   -269.02821    1292.8822   -1207.2351    9.5504649   0.19209044 
   35500   -287.43173    14.251079   -273.18066    1030.3845    5499.0491    9.6901561   0.18220342 
   35600   -288.01218    18.137214   -269.87497    1311.3607   -5870.5134    9.5380403   0.15581978 
   35700   -286.19752    17.307358   -268.89016    1251.3602    9520.2466     9.636965   0.17898002 
   35800   -287.57184    14.032401   -273.53944    1014.5736     12235.84     9.728728   0.17066238 
   35900   -286.53562     15.49209   -271.04353    1120.1124   -6388.1645    9.5042313   0.19415858 
   36000   -286.25109    17.908381   -268.34271    1294.8155   -11272.833    9.4421156   0.19741761 
   36100   -288.32464    16.453336    -271.8713    1189.6126    8921.3791    9.7450717   0.16254781 
   36200   -288.86366    16.033078   -272.83058     1159.227    785.86154    9.6683549   0.14270979 
   36300   -285.51891    17.158859   -268.36005    1240.6235   -1491.8659    9.4921985   0.21469631 
   36400   -287.62546    17.496693   -270.12877    1265.0496   -9075.3287    9.4857876   0.16159881 
   36500   -287.46953    14.973026   -272.49651    1082.5829   -4374.7492    9.5634049   0.19103773 
   36600   -283.78464    15.698308   -268.08633    1135.0224    3056.6701    9.4611744   0.21683971 
   36700    -287.8492    19.487261   -268.36194    1408.9721   -2942.6964    9.5502576   0.15621871 
   36800   -288.92989    16.544832   -272.38505     1196.228    15024.866    9.8278004   0.12168764 
   36900   -287.27588    16.647887     -270.628     1203.679    9766.0426    9.6962638   0.15797155 
   37000   -284.62506    16.532076   -268.09298    1195.3057   -11568.927     9.343707   0.23486542 
   37100   -284.45278    17.124039   -267.32874    1238.1059    -5586.089    9.4001581   0.20609369 
   37200   -289.10681    16.667031   -272.43978    1205.0632    3893.9583    9.6962684   0.15036834 
   37300   -288.54988    17.647374   -270.90251    1275.9442    5909.8319    9.6998244   0.16573849 
   37400   -286.38055    16.967537   -269.41302    1226.7905   -873.91155    9.5449367   0.20034072 
   37500   -284.44741     17.18601    -267.2614    1242.5865   -3010.1234    9.4335184   0.20501643 
   37600   -288.61768    16.463796   -272.15388    1190.3688   -6419.4615    9.5645074   0.15879562 
   37700   -287.51654    15.613383   -271.90316    1128.8822    7792.7993     9.673406   0.18461007 
   37800   -287.62556    17.968629   -269.65693    1299.1716   -2795.0263     9.566531   0.16149938 
   37900   -287.33274    15.434086   -271.89865    1115.9186     -6263.17    9.5469123   0.20335837 
   38000   -288.85196    14.215364    -274.6366    1027.8022   -7746.4446     9.574135   0.15284862 
   38100   -286.60766    17.265498   -269.34216    1248.3337     8821.164    9.6451095   0.17335766 
   38200   -287.84658    17.703749   -270.14283    1280.0202    5113.3005    9.6645287   0.15109984 
   38300   -287.43086    15.360084   -272.07077    1110.5681   -6285.1263     9.524115   0.15694759 
   38400    -288.5655    14.850417   -273.71508     1073.718    -926.0919    9.6278582   0.17425193 
   38500   -286.40738    17.485343   -268.92204     1264.229    5069.1188    9.5918782   0.18202818 
   38600    -286.8674    17.633783   -269.23362    1274.9615   -5707.6655     9.483223   0.18045932 
   38700   -287.48202    18.286646   -269.19538     1322.165   -8746.4879    9.4866811   0.18668305 
   38800    -288.6157    18.274825   -270.34088    1321.3103    8490.8536    9.7433354   0.17425266 
   38900   -291.27551    18.614666   -272.66084    1345.8815   -608.23125     9.741993   0.14807221 
   39000   -289.77665    15.102797   -274.67386    1091.9656   -6559.3744    9.6539153   0.15757442 
   39100   -286.48044    15.515442     -270.965    1121.8007   -4313.6318    9.5224179   0.18043646 
   39200   -287.82886    18.763647   -269.06521    1356.6532    3694.8088    9.6362824    0.1724388 
   39300   -288.44839    19.325942   -269.12245    1397.3083     1746.781    9.6231434   0.14671109 
   39400   -289.10106    14.775089   -274.32597    1068.2716   -3837.4401    9.6393427   0.14803326 
   39500   -288.59393    16.698847   -271.89508    1207.3636   -1819.0311    9.6136464   0.16151104 
   39600   -287.96736    18.751544   -269.21582    1355.7781    14986.288    9.7603281   0.15679968 
   39700   -287.67816     18.05761   -269.62055    1305.6052    2772.8889    9.6147045   0.16211614 
   39800   -286.88618    12.663241   -274.22294    915.58034   -13147.824    9.4433008   0.19367694 
   39900    -287.3139    16.284832   -271.02907    1177.4294   -7939.5622    9.4924883   0.17533361 
   40000   -286.26952    17.245199   -269.02432    1246.8661    7341.1049    9.5934274   0.17096725 
   40100   -285.78008    13.756898   -272.02318    994.65413     13854.53     9.695355   0.17558395 
   40200   -287.90711    15.137983   -272.76912    1094.5096   -5191.6415    9.5684791   0.15147347 
   40300   -286.70557    17.583811   -269.12176    1271.3484    1553.5543    9.5429281   0.16790268 
   40400   -285.92225    15.339196   -270.58306    1109.0578   -4648.1805    9.5000591   0.22411368 
   40500   -287.84849    13.845126   -274.00337    1001.0332   -9660.1358     9.521993   0.18547867 
   40600   -286.24486    16.214646   -270.03022    1172.3548   -6126.8394    9.4891724   0.23863326 
   40700    -285.9154    16.525266   -269.39013    1194.8133   -1922.3556    9.5142961   0.18617321 
   40800   -289.53636     18.54059   -270.99577    1340.5257    11564.089    9.7947441   0.16517489 
   40900   -286.17615     16.89534   -269.28081    1221.5704    15109.199    9.7060551    0.1875761 
   41000    -284.0309    18.854037   -265.17686    1363.1886   -14533.625    9.2792641   0.23768628 
   41100    -284.8108    15.370218   -269.44059    1111.3008    8391.5286    9.5559406   0.20653945 
   41200   -286.62333    15.886687   -270.73665    1148.6426   -8727.2076    9.4732522   0.20281392 
   41300   -285.43979    16.846687    -268.5931    1218.0527    7101.9034    9.5803952     0.185806 
   41400   -283.77504    18.547508   -265.22753    1341.0259   -3239.3536    9.3975814   0.22828683 
   41500    -286.3349    15.122259   -271.21264    1093.3728   -2970.2461    9.5296025    0.1803288 
   41600   -288.34988    17.301278    -271.0486    1250.9206   -12000.572    9.4958255   0.18410246 
   41700   -285.49836    16.597043   -268.90131    1200.0029    8763.5059    9.6169187   0.17587152 
   41800   -285.06205    18.746457    -266.3156    1355.4103    8120.2494    9.5733402   0.15252361 
   41900    -283.4163    19.664641   -263.75166    1421.7971   -649.71641    9.4219196   0.25158231 
   42000   -287.30578    18.006301   -269.29948    1301.8954   -17514.262    9.3956417   0.17918941 
   42100    -285.9469    16.153612   -269.79329    1167.9419    10836.869    9.6313702   0.20334588 
   42200   -288.64685    18.989627   -269.65722     1372.992    1865.7706    9.6550858   0.15002012 
   42300   -291.04316    17.775565    -273.2676    1285.2127    10805.973     9.832329   0.11554856 
   42400   -288.37075    17.352305   -271.01845      1254.61    7399.2424    9.7071397   0.14045632 
   42500    -286.1603    18.045297     -268.115    1304.7149    -22263.15    9.2879475    0.1967093 
   42600   -286.04913    15.088078   -270.96106    1090.9014    5740.4256    9.5946312   0.19061403 
   42700   -290.70602    17.122377   -273.58364    1237.9858    2982.1034    9.7685599   0.12128548 
   42800   -287.45793    18.500727    -268.9572    1337.6435    3431.8829    9.6191599   0.17743805 
   42900   -286.12742    16.756046   -269.37137    1211.4992    3136.4511    9.5666944   0.17554374 
   43000   -287.40984    15.222931   -272.18691    1100.6516    8083.3111    9.6770861   0.16540113 
   43100   -289.23014    17.856078   -271.37406     1291.034    1104.2945    9.6590494   0.14238766 
   43200    -283.8711    16.552964   -267.31814    1196.8159    344.60633    9.4663062   0.24207909 
   43300    -289.2408    18.267611   -270.97319    1320.7887   -6037.4331    9.5868912   0.16908589 
   43400   -288.50191    16.375631   -272.12628    1183.9943   -1547.3068    9.6242962   0.16926229 
   43500   -285.15763    17.117916   -268.03972    1237.6632    101.12947    9.4679803   0.20688422 
   43600   -286.26277    15.683263   -270.57951    1133.9346   -13515.351    9.4137921   0.20856052 
   43700   -286.98114    15.352344    -271.6288    1110.0084    17273.059    9.7737981    0.1605577 
   43800   -288.52297    21.165886   -267.35708    1530.3403    7014.0468    9.7008031   0.15097436 
   43900   -287.39868    18.262998   -269.13569    1320.4552    12910.529    9.7211058   0.16227977 
   44000   -288.53503    15.530081   -273.00495    1122.8592   -8886.4298    9.5428802   0.15850267 
   44100   -285.49039    16.114165   -269.37622    1165.0898    2315.4708    9.5617426    0.1942272 
   44200    -286.0124    17.411437   -268.60096    1258.8854    2673.7977    9.5579257   0.18967836 
   44300   -288.45051    16.024099   -272.42642    1158.5778    2003.3552    9.6564513   0.17233588 
   44400   -286.00406    16.498509   -269.50555    1192.8787    3990.1893    9.5702431   0.16820315 
   44500   -286.23307    17.981502   -268.25156    1300.1023    6545.1294    9.5944328   0.21119317 
   44600     -288.917    17.169431   -271.74757    1241.3878   -1788.5254    9.6359183   0.16911072 
   44700   -290.22173    17.045271   -273.17646    1232.4108    2231.4126     9.723745   0.12536944 
   44800   -287.89605    19.880809   -268.01524    1437.4264    3938.4201    9.6253656   0.14224753 
   44900   -288.39999    18.909413   -269.49058    1367.1924    2585.1505    9.6479722   0.16267651 
   45000   -287.69088    15.251415   -272.43946    1102.7111    6331.2664    9.6809678   0.18130899 
   45100   -284.54345    13.977353    -270.5661    1010.5936   -8854.2429    9.3850012   0.24240367 
   45200   -283.82149    16.580399   -267.24109    1198.7995   -8096.0293    9.3496669   0.26657649 
   45300   -285.40657    15.665766   -269.74081    1132.6696    5883.3959    9.5712048   0.19635664 
   45400   -287.66525    16.626116   -271.03913     1202.105    13861.523    9.7425222   0.17815402 
   45500   -286.37231    17.855418   -268.51689    1290.9862    -9696.935    9.4152133   0.18151556 
   45600   -283.19061    17.035668   -266.15494    1231.7165   -808.76967    9.4108071     0.203102 
   45700   -287.35695    17.527831   -269.82912    1267.3009    2138.1553    9.6294711   0.20093654 
   45800   -287.76838    16.450197   -271.31818    1189.3856    4958.7738     9.665903   0.17655657 
   45900   -289.24928     17.82845   -271.42083    1289.0364   -13421.649     9.521066   0.15437098 
   46000   -284.45755     18.67447   -265.78308    1350.2055   -4752.8574    9.4007823   0.21940524 
   46100   -286.69193    18.354881   -268.33705    1327.0985   -1469.3705    9.5585136   0.18603587 
   46200   -289.53599    18.858185    -270.6778    1363.4885   -10480.193    9.5434632    0.1465769 
   46300   -289.25578    17.356609   -271.89917    1254.9212    12612.929    9.8019081   0.14833412 
   46400    -286.0158    17.360005   -268.65579    1255.1667    1200.8464    9.5220787   0.18019734 
   46500    -284.7079    18.068764   -266.63913    1306.4116   -17608.556     9.280729   0.25528429 
   46600    -287.3194     16.77682   -270.54258    1213.0012    3756.4685    9.6348392   0.18391626 
   46700   -286.70406     14.56934   -272.13472    1053.3955   -4149.1063     9.541716   0.19431476 
   46800   -284.58246    16.714396   -267.86807    1208.4878   -2733.7169    9.4457968   0.21669125 
   46900   -286.51325    17.951116   -268.56214    1297.9054    8514.4724    9.6587275   0.17824903 
   47000   -287.75432    16.159507   -271.59482    1168.3681     5480.301    9.6922813   0.18136669 
   47100   -287.12107    17.067143   -270.05393    1233.9922   -25.443189    9.5782339   0.17646828 
   47200   -284.36512    18.387004   -265.97812     1329.421   -499.37053    9.4472904   0.25829221 
   47300   -283.67933    16.881641   -266.79769      1220.58   -2526.7191    9.3995398   0.23179807 
   47400   -285.07575    14.655339   -270.42041    1059.6134    7511.3237    9.6128171   0.17472202 
   47500   -286.43212    15.275346   -271.15677    1104.4413    7249.2211    9.6358317   0.18480529 
   47600   -285.31727    15.843574   -269.47369    1145.5255    8839.9236    9.6201196   0.18932605 
   47700   -281.76738    15.790807   -265.97658    1141.7103   -9060.9642    9.2551728   0.29156202 
   47800   -285.97917    15.892167   -270.08701    1149.0388    -13002.16    9.3978816   0.20574681 
   47900   -287.60658    17.455856   -270.15073     1262.097    12359.229    9.7182498    0.1595819 
   48000   -286.09075    17.285143    -268.8056    1249.7541   -5191.5192    9.4893704   0.19118447 
   48100   -282.00702    15.815217    -266.1918    1143.4752    1900.4038    9.3759417   0.25518977 
   48200   -287.55207    16.517392   -271.03468     1194.244   -11181.933    9.4658062   0.18564869 
   48300   -286.72721    15.714494   -271.01272    1136.1926     1965.364    9.5817479   0.17524718 
   48400   -285.71579    17.114645   -268.60115    1237.4267    803.38394    9.5085098   0.23656851 
   48500     -282.133    15.714763   -266.41824    1136.2121    6481.5305    9.4715858   0.27633791 
   48600   -288.00749     17.13093   -270.87656    1238.6041    3146.2954    9.6509082   0.15510567 
   48700   -288.69771    17.800151   -270.89756    1286.9903    4655.3505    9.6876181    0.1462477 
   48800   -284.69263    17.607035   -267.08559    1273.0276    12036.542    9.5988112   0.19696562 
   48900   -286.63835     15.62917   -271.00918    1130.0236    -6363.858    9.4839433   0.19067871 
   49000     -288.161    16.754704    -271.4063    1211.4021   -9826.4366    9.4956344   0.17948961 
   49100   -285.26737     15.96352   -269.30385    1154.1978    8997.1723    9.6090649   0.17752856 
   49200   -285.08391    18.616416    -266.4675     1346.008   -1265.5613    9.4614161   0.18203498 
   49300   -282.83322    19.353934   -263.47928    1399.3323    5024.1838    9.4132641    0.2518304 
   49400   -286.43996    16.610849   -269.82911    1201.0011   -15932.593    9.3743576   0.20640376 
   49500   -285.63686    16.013761    -269.6231    1157.8303    605.14297    9.5183477   0.23049023 
   49600   -285.61552    15.731907   -269.88361    1137.4517   -3840.2431    9.4816859   0.23763497 
   49700   -286.03128    17.430932   -268.60035    1260.2949   -17263.603    9.3404636   0.23514875 
   49800   -283.84092    19.595853   -264.24507    1416.8235   -2361.5546     9.391779   0.21013781 
   49900   -287.57388    18.857667   -268.71622     1363.451   -1034.0141    9.5765436   0.20193296 
   50000   -286.96435    16.864641   -270.09971    1219.3508    13779.395    9.7390481   0.16375147 
   50100      -288.03    15.616558   -272.41344    1129.1117   -5262.3437    9.5669341    0.1778479 
   50200   -285.82749    17.439883   -268.38761    1260.9421   -11392.609    9.3763955   0.18829443 
   50300   -284.82497    17.265179   -267.55979    1248.3107    5389.9742    9.5287916   0.23351757 
   50400   -287.64326    16.744055   -270.89921    1210.6322   -10597.169    9.4888622   0.20441915 
   50500   -288.29419    16.955423   -271.33877    1225.9146    697.00029    9.6454685   0.17414384 
   50600   -284.75976    18.355602   -266.40416    1327.1506    6505.8803    9.5439947   0.20844899 
   50700   -287.27729    18.559107   -268.71819    1341.8645   -12349.138    9.4155017   0.17220106 
   50800   -287.90044    16.522302   -271.37814    1194.5989    1577.3963    9.6314296   0.19465741 
   50900   -287.24163    18.163534    -269.0781    1313.2637    17503.651    9.7593176   0.16628551 
   51000   -282.85517    16.697979   -266.15719    1207.3008   -2313.0495    9.4015627   0.26435322 
   51100    -284.5677    16.176383   -268.39132    1169.5883   -20181.051    9.2680383   0.23135125 
   51200   -287.02967    16.395151   -270.63451    1185.4057    3109.3501    9.6135563   0.21663247 
   51300   -287.35638    16.882556   -270.47383    1220.6462   -198.57959    9.5851162   0.18366228 
   51400   -285.52023    16.129166   -269.39107    1166.1744    3948.8509    9.5492005   0.18706166 
   51500   -284.19581    18.980932   -265.21488    1372.3634    3849.4267    9.4690065   0.24112893 
   51600   -286.38039    16.786603   -269.59378    1213.7085   -7296.5667    9.4971372   0.23212209 
   51700   -286.98776    16.328132   -270.65963      1180.56     -3115.55    9.5518109   0.18889869 
   51800   -287.10028    14.195648   -272.90463    1026.3767    6368.8293    9.6563973   0.17547867 
   51900   -289.15842    13.638682   -275.51974    986.10689    15570.219    9.8627952   0.14916995 
   52000   -286.14397    15.248906   -270.89507    1102.5296   -8441.6899    9.4506017   0.17868855 
   52100    -285.3572    15.008802    -270.3484    1085.1696   -11533.007    9.3815477   0.16558879 
   52200   -288.30593    17.728565   -270.57736    1281.8144     2315.928    9.6442448   0.15951125 
   52300   -287.17325    18.632652    -268.5406     1347.182    13117.864    9.7182276   0.15251159 
   52400   -283.75804    18.566261   -265.19178    1342.3818    1532.4114    9.4399812   0.24137353 
   52500   -286.15893    16.060435   -270.09849     1161.205   -3294.8688    9.5195411   0.18401113 
   52600   -286.75176    15.217829   -271.53393    1100.2827    -3055.606    9.5419111   0.18867019 
   52700   -285.08717    17.536483   -267.55069    1267.9265   -5351.3011    9.4259651   0.19387307 
   52800   -285.80058    17.520887    -268.2797    1266.7989   -1848.9041    9.5132861   0.20123717 
   52900   -288.74601    16.727977   -272.01804    1209.4697    10979.179    9.7555205   0.15619072 
   53000   -286.90449    17.183524   -269.72096    1242.4068   -1182.9367    9.5517076   0.18458715 
   53100   -284.89224    17.558458   -267.33378    1269.5153   -12720.642    9.3564975   0.23865857 
   53200   -288.75084    16.764214   -271.98662    1212.0898    14630.878    9.8108901   0.15957352 
   53300   -288.38616    17.773864   -270.61229    1285.0897     10159.17     9.740915   0.13936794 
   53400   -284.39555    16.334043   -268.06151    1180.9874   -6893.2525    9.3940932   0.20260932 
   53500   -284.09202    13.437759   -270.65426    971.57967    -5609.873    9.4189133   0.24612159 
   53600   -288.72322    15.335688   -273.38753    1108.8042    3477.6584    9.6973387   0.12507501 
   53700   -286.58424    17.568777   -269.01546    1270.2614     7008.618    9.6357472   0.15573547 
   53800    -285.8189    17.246269   -268.57263    1246.9434    3975.0603    9.5477079   0.18781718 
   53900   -287.73382    15.112815   -272.62101    1092.6899    5619.5788    9.6968322   0.14811685 
   54000   -287.55027     14.81282   -272.73745    1070.9996    2990.4523    9.6467275   0.15955195 
   54100   -283.98263    15.819569   -268.16306    1143.7898    10800.201    9.5553992   0.22555368 
   54200   -286.79103    17.529599   -269.26143    1267.4288    2226.6655    9.5911791   0.18214915 
   54300   -288.20611    15.000887   -273.20522    1084.5973   -5311.7765    9.5937549   0.17300175 
   54400   -284.78089    15.468259   -269.31263    1118.3894   -16691.533    9.3271208   0.23934191 
   54500   -285.55608    17.331916   -268.22417    1253.1358    15334.702     9.681431    0.2100921 
   54600   -287.96555    15.853061   -272.11248    1146.2114    6526.1303    9.6884221   0.16638758 
   54700   -286.38562    14.698815    -271.6868    1062.7569   -5780.3801    9.4915563   0.18994576 
   54800   -283.44261    15.115242   -268.32736    1092.8654    2161.9722    9.4811447   0.21111629 
   54900   -289.19196    18.498056    -270.6939    1337.4504    9344.7353    9.7519804   0.14992361 
   55000   -290.98417    18.362175     -272.622    1327.6259   -4413.4554    9.6823295   0.12657397 
   55100   -285.99371    17.571561   -268.42215    1270.4627    5903.9103    9.6041363   0.17547946 
   55200   -288.63857    18.686165   -269.95241    1351.0511   -10128.522    9.5215899    0.1752502 
   55300    -289.1959    15.884527   -273.31137    1148.4865    -7886.977    9.5873389   0.15255956 
   55400   -286.44218    17.273141   -269.16904    1248.8863    1424.0413    9.5471723   0.18186098 
   55500   -285.19769    17.016485    -268.1812    1230.3295    -14967.06    9.3593025   0.22477197 
   55600   -288.14836    15.592156    -272.5562    1127.3474    3684.0632    9.6603988   0.14504874 
   55700   -288.28459    17.615845   -270.66874    1273.6645    11537.881    9.7547334    0.1474248 
   55800   -284.91521    17.137455   -267.77775    1239.0759    3534.8861    9.5292936   0.17069904 
   55900   -287.82055    15.453976   -272.36658    1117.3566   -7469.1141    9.5121909    0.1713586 
   56000   -286.90438    15.923838   -270.98054    1151.3287   -5863.3578    9.5313093   0.18594933 
   56100   -286.61304    18.816136   -267.79691    1360.4482    7680.0431     9.602637   0.17694136 
   56200    -287.0634    16.817748   -270.24565    1215.9604    18261.591    9.7706909   0.13838724 
   56300   -287.25664    14.999745   -272.25689    1084.5148    6519.9581    9.6694152   0.14161265 
   56400   -286.23067    16.940265    -269.2904    1224.8186    400.08693    9.5502858   0.16136204 
   56500   -285.25187     17.71439   -267.53748    1280.7895    29.592129    9.4859964   0.18587822 
   56600   -288.34364    16.483175   -271.86046      1191.77   -11064.602    9.5111041   0.16457165 
   56700   -288.47795    16.637158   -271.84079    1202.9033    9638.3152    9.7373813   0.18004118 
   56800   -286.46396    18.352946   -268.11102    1326.9586    2528.9485    9.5665815   0.19544518 
   56900   -286.37123    15.944678   -270.42655    1152.8355    1206.0048    9.5644764    0.1610735 
   57000   -287.40952    14.280977   -273.12854    1032.5462   -10859.415    9.4888032   0.15647827 
   57100   -287.05604    18.364782   -268.69126    1327.8144   -5680.2259    9.4803805   0.18699653 
   57200   -287.16657    18.405463   -268.76111    1330.7557    5790.4201    9.6310977   0.16757797 
   57300   -288.12973     15.84442   -272.28531    1145.5866   -7377.5831    9.5455831   0.16009472 
   57400   -287.09348    16.654944   -270.43854    1204.1893   -880.32626    9.5564752   0.16467403 
   57500   -285.06796    17.978161    -267.0898    1299.8608    11664.941    9.6236909   0.19090977 
   57600   -289.07227    17.406449   -271.66582    1258.5248    3362.5862    9.6958469    0.1493254 
   57700   -288.22297    16.911847   -271.31112     1222.764    258.31206    9.6329189   0.16616414 
   57800   -285.84027     18.65724   -267.18303    1348.9597    3797.5032    9.5689758   0.21208037 
   57900   -286.62132    16.199511   -270.42181    1171.2605    5638.3422    9.6376582   0.20355734 
   58000   -289.16435    17.317902   -271.84645    1252.1226   -2799.7382    9.6205068   0.17143362 
   58100   -285.29501    17.376622   -267.91839    1256.3682   -3699.6471    9.4599198   0.24132244 
   58200   -285.42235    17.240545    -268.1818    1246.5295   -8506.2681     9.432477   0.20417969 
   58300    -287.2659    15.479776   -271.78612     1119.222   -5149.7695    9.5378228   0.20177058 
   58400   -285.78792    15.553524    -270.2344    1124.5542    3577.7241     9.547689   0.20599387 
   58500    -284.5208    16.876802     -267.644    1220.2301   -7606.4288    9.3880692   0.22312792 
   58600   -289.56167    16.963111   -272.59856    1226.4704    11414.125    9.7926374   0.13137197 
   58700   -288.49563     16.70835   -271.78728    1208.0507    8410.5043    9.7131938   0.16355104 
   58800   -284.58896     15.34448   -269.24448    1109.4398   -5809.2843    9.4350136   0.21744452 
   58900   -285.03375    14.235276   -270.79848     1029.242   -11631.006    9.3733709   0.21979224 
   59000   -291.18598    16.362327   -274.82366    1183.0325   -4219.9913      9.68868   0.12662743 
   59100   -289.10111    18.901684   -270.19943    1366.6336   -266.11231    9.6451699   0.14138194 
   59200   -287.33519    17.110751   -270.22444    1237.1451    2926.1188     9.602589   0.15267133 
   59300   -288.40189    17.142904   -271.25898    1239.4699   -7740.4793    9.5439818   0.16646169 
   59400   -284.00818    17.334316   -266.67386    1253.3094    756.74421    9.4596923   0.22244825 
   59500   -285.15522    17.876966   -267.27825    1292.5442   -6889.4222    9.4354107   0.19521843 
   59600   -288.56362    18.117556   -270.44606    1309.9394    -2795.592    9.6057566   0.15275616 
   59700   -287.47953    16.505142   -270.97438    1193.3583    19289.828     9.805904   0.15844332 
   59800   -284.56436    17.744479   -266.81988    1282.9651   -1461.2353     9.488411   0.18826765 
   59900   -286.65916    18.081605   -268.57755      1307.34    -4886.802     9.489041   0.21619618 
   60000   -288.34514    15.803319   -272.54182    1142.6149     7569.018    9.7187271    0.1682004 
   60100   -285.94037    15.993003   -269.94737    1156.3295   -4898.6848    9.4910643   0.21753064 
   60200   -282.13548    14.584931   -267.55055    1054.5228   -1171.7464    9.3638248   0.24633181 
   60300   -288.63062    16.429002   -272.20162    1187.8532    9511.7639    9.7534473   0.14202328 
   60400   -289.16915    17.748357    -271.4208    1283.2455    5049.6568     9.709796   0.13859537 
   60500   -286.12209    18.157322   -267.96477    1312.8146   -2064.5295    9.5027428   0.16713433 
   60600   -285.03274    14.444674   -270.58806    1044.3819    16818.154    9.6840456   0.16973663 
   60700    -288.2405    15.327514   -272.91298    1108.2132   -1051.5781    9.6078519   0.15227688 
   60800   -286.07224    17.097497   -268.97474    1236.1869   -2281.5337    9.5004616   0.18621218 
   60900   -285.81891     16.69185   -269.12706    1206.8577    17488.438    9.7228183   0.21379362 
   61000   -288.75429    14.522384    -274.2319    1050.0005    2484.4168    9.6825389   0.14207922 
   61100   -287.40134    15.908051   -271.49329    1150.1872   -17215.428    9.4040191   0.16867099 
   61200   -285.61717    16.413274    -269.2039     1186.716    749.96418    9.5259517   0.21971414 
   61300    -286.4667    17.196044   -269.27066     1243.312     13121.11    9.6934143   0.19606677 
   61400   -290.25662    16.283435   -273.97318    1177.3284   -8294.9674    9.6213473   0.15091242 
   61500   -287.51538     17.05679   -270.45859    1233.2436   -9429.2651    9.4823871   0.18679048 
   61600   -285.96301     17.50934   -268.45367     1265.964    2004.9809     9.578153   0.23471854 
   61700   -286.25416    14.685391   -271.56877    1061.7863    9539.2837    9.6652723   0.20694295 
   61800   -287.50406    15.041633   -272.46243    1087.5434   -5943.8212      9.54501   0.16582293 
   61900   -284.99424     16.57549   -268.41875    1198.4446    1940.8779    9.5138909   0.20372452 
   62000   -287.35538    17.463241   -269.89214    1262.6309   -1952.9998    9.5634343   0.18502243 
   62100   -289.85931    16.266432   -273.59288     1176.099    -7760.215    9.6083013   0.16954732 
   62200   -287.04386    17.557333   -269.48652     1269.434    5492.4675     9.626281   0.16265091 
   62300    -288.2757    18.467351   -269.80835    1335.2303    9426.8937     9.724701   0.15476209 
   62400   -288.63828    15.133089   -273.50519    1094.1558    1037.7048    9.6800033   0.17283037 
   62500   -286.04423    17.027096   -269.01713    1231.0967   -15128.166    9.3562839   0.22319043 
   62600   -286.68678    17.177098   -269.50968    1241.9422    281.94615    9.5373155   0.19594485 
   62700   -288.78201    16.155852   -272.62615    1168.1038    9694.8976    9.7415184   0.14897785 
   62800   -287.68568    16.596449   -271.08923      1199.96   -9725.6873    9.5088796   0.18792101 
   62900   -284.14138    17.097597   -267.04378    1236.1941   -10499.618    9.3139334   0.25778801 
   63000   -286.30707    16.135295   -270.17178    1166.6175    11303.672    9.6728631   0.19334135 
   63100   -289.05524    17.182959   -271.87228    1242.3659    282.06774    9.6592137   0.15917651 
   63200   -285.74422    17.795859   -267.94836      1286.68    -4660.752    9.4590607   0.20695091 
   63300   -285.03989     16.52394   -268.51595    1194.7174   -2325.9303    9.4657001   0.20282896 
   63400   -287.50839    16.461887    -271.0465    1190.2308   -5389.3836    9.5517655    0.1685755 
   63500   -288.91332    16.632378   -272.28095    1202.5577   -3660.9744    9.6249753   0.18951459 
   63600   -285.38701    18.123718   -267.26329    1310.3849   -1302.0598    9.4945039    0.2352602 
   63700   -287.75977    17.950656   -269.80912    1297.8721    264.92935    9.6113264   0.18920914 
   63800   -286.74111    15.739181   -271.00193    1137.9776   -11142.111    9.4335392   0.21546585 
   63900   -285.40262    17.713876   -267.68875    1280.7524    3251.1906    9.5356652   0.19521013 
   64000   -286.29257    15.400753   -270.89182    1113.5085    29705.871    9.8770734   0.14110163 
   64100     -288.519    16.033631   -272.48537     1159.267   -5333.8042    9.5708979   0.13138952 
   64200   -288.03268    17.855854   -270.17683    1291.0177   -11937.493    9.4551903   0.18932159 
   64300   -283.65258    16.348844   -267.30374    1182.0576    8320.9329    9.5287886   0.21441066 
   64400   -286.32624    17.067422   -269.25882    1234.0123    7621.3017    9.6389735   0.22555819 
   64500   -287.74258    15.648278    -272.0943    1131.4051   -1008.4487    9.5988693   0.18954734 
   64600   -286.35326    16.291079   -270.06218    1177.8811   -6873.8078    9.4673655   0.18432964 
   64700   -284.12042    16.344201   -267.77622    1181.7219    2134.5828    9.4932764   0.19723301 
   64800    -285.5232    21.205503    -264.3177    1533.2048    -4820.941    9.4332096   0.22246963 
   64900   -281.89035    19.152231   -262.73812    1384.7487   -9964.2334    9.2357153    0.2466944 
   65000   -284.69228    16.986929   -267.70536    1228.1926    5443.0784    9.5372102   0.20028882 
   65100   -287.14686    17.949322   -269.19754    1297.7757    4191.0059    9.6234909   0.17050248 
   65200   -287.23861    16.175693   -271.06292    1169.5384    -6568.805    9.4963099   0.21492894 
   65300   -287.44155    19.697036   -267.74452    1424.1392   -16600.982    9.4143849    0.2016826 
   65400   -285.82594      19.0926   -266.73334    1380.4372   -3746.0111     9.463038   0.21523343 
   65500   -288.65581    17.289939   -271.36587    1250.1009    2857.4828    9.6713761   0.14685184 
   65600   -286.16402    16.150609   -270.01341    1167.7248   -766.69563    9.5154811   0.17678731 
   65700   -285.27437    18.362369     -266.912    1327.6399    3174.1312    9.5109559   0.22164193 
   65800   -287.83858     17.65696   -270.18162    1276.6372     12522.34    9.7541606   0.13625961 
   65900   -289.52046    17.374537   -272.14592    1256.2175   -3235.8122    9.6335797   0.15570064 
   66000   -286.78901    16.497613    -270.2914    1192.8139   -8963.2921    9.4703291   0.19958911 
   66100   -284.96091    17.827226   -267.13368    1288.9479   -2066.3212    9.4727287   0.20154731 
   66200   -288.52141    17.524614    -270.9968    1267.0684    14156.033    9.7962992   0.13999251 
   66300   -290.28535    18.074891   -272.21046    1306.8546    8131.9415    9.7911212   0.12806977 
   66400   -286.48123    17.414352   -269.06688    1259.0962     -790.492    9.5415431   0.18731559 
   66500   -284.56401    15.323448   -269.24056    1107.9192   -12405.528    9.3741245    0.2019525 
   66600   -288.44245    15.737355    -272.7051    1137.8456   -4712.6813     9.599085   0.16670509 
   66700   -289.24933    18.743677   -270.50565    1355.2093    7707.6276    9.7433926   0.15211301 
   66800   -286.59887    18.546092   -268.05278    1340.9235    10894.174    9.6672651    0.1662865 
   66900   -288.74938    16.725927   -272.02345    1209.3215   -4890.3704    9.5814228   0.15265242 
   67000   -286.75385    15.176128   -271.57772    1097.2676   -5591.3433    9.5118593   0.16132977 
   67100   -285.42039    17.488018   -267.93237    1264.4224    3010.4005    9.4983049   0.21109003 
   67200   -286.92719    15.703704   -271.22348    1135.4125    2602.3699    9.5944034   0.16159763 
   67300   -288.69899      15.9626   -272.73639    1154.1313   -617.43231    9.6440695    0.1529289 
   67400   -287.65712    18.725791   -268.93132    1353.9161    13464.868    9.7288802    0.1554091 
   67500   -287.86235    19.320538   -268.54181    1396.9176    4991.4098    9.6334824   0.19424097 
   67600   -289.22871     15.99011    -273.2386    1156.1203   -8327.3408    9.5806966   0.16188348 
   67700   -287.83803    15.965979   -271.87206    1154.3756    5199.0273    9.6796721   0.15631474 
   67800   -285.83612    17.835281   -268.00084    1289.5303    4085.7192    9.5729251   0.17456798 
   67900   -288.14732    17.067212   -271.08011    1233.9972   -3912.9832    9.5707282   0.17639345 
   68000   -286.65111     14.40718   -272.24393     1041.671   -4546.2761    9.5287056   0.19350705 
   68100    -284.8335    17.525033   -267.30847    1267.0986   -8416.3175    9.3931185   0.23216221 
   68200   -287.71051    18.058394   -269.65211    1305.6618    11314.156    9.7205374   0.16533026 
   68300   -286.53356    15.136906   -271.39666    1094.4318    6595.2908    9.6561205   0.18163303 
   68400   -286.18387    18.442734   -267.74114    1333.4505    -6972.559    9.4285228   0.19785643 
   68500   -285.41671    15.041741   -270.37497    1087.5511    2439.0059    9.5476413   0.20368498 
   68600    -288.5636     16.73048   -271.83312    1209.6507     5020.962    9.6901013   0.15653301 
   68700   -285.28426    17.298433   -267.98583     1250.715    2986.4832    9.5318086   0.23522256 
   68800   -285.81505    17.725164   -268.08988    1281.5686   -10429.359    9.4002801   0.21416239 
   68900   -287.42207    15.477154   -271.94492    1119.0325    1198.1846    9.6268989    0.1727979 
   69000   -287.19378    17.019598   -270.17418    1230.5546     15402.18     9.765555    0.1504331 
   69100   -285.38082    17.586968   -267.79385    1271.5767    8974.2918    9.5984071   0.20039294 
   69200   -288.46499    16.255576   -272.20941    1175.3141   -13238.785    9.4970338   0.17257501 
   69300   -287.95375    16.286301   -271.66745    1177.5356   -2099.6184    9.5840079   0.16050034 
   69400   -282.72425    15.236285   -267.48797    1101.6171    648.69921    9.3913737   0.29869138 
   69500   -286.61626     17.09335   -269.52291     1235.887   -10061.219    9.4377052    0.2294071 
   69600    -286.9389    15.858373   -271.08052    1146.5955   -5619.2584     9.533471   0.19862812 
   69700   -286.13511    17.958142   -268.17697    1298.4134     2319.771    9.5511855   0.16523855 
   69800    -284.8826    20.346241   -264.53636    1471.0782    16824.047    9.6492218   0.19109448 
   69900    -286.4554    16.414595   -270.04081    1186.8115   -517.48479    9.5462128   0.18638225 
   70000   -285.70743    15.298884   -270.40854    1106.1431   -12981.468     9.405127     0.209738 
   70100   -287.32757    17.492246   -269.83532    1264.7281    2079.6245    9.6061125    0.1929618 
   70200   -290.61742    16.329855   -274.28756    1180.6847   -1323.8379    9.7094705   0.15833721 
   70300   -288.51974    14.921022   -273.59872    1078.8229   -2869.8503    9.6117052   0.15829462 
   70400    -288.3042    17.925637   -270.37857    1296.0632   -777.32253    9.6073559   0.16886879 
   70500   -287.05501    17.760647   -269.29437    1284.1341    10256.664     9.680814   0.16977236 
   70600    -284.5602     17.55508   -267.00512    1269.2711   -8771.9898    9.3757117   0.22995641 
   70700   -280.59351    17.003006   -263.59051    1229.3549    1314.0037    9.3169959   0.28375229 
   70800    -285.9795     16.48768   -269.49182    1192.0957    4970.7716    9.5660766   0.21459532 
   70900   -285.98265    15.880594   -270.10206    1148.2021   -998.14392     9.519672   0.18137455 
   71000   -286.76722    15.501484   -271.26573    1120.7916   -2602.2917    9.5334131   0.20521178 
   71100    -284.6716    16.549942   -268.12166    1196.5974   -1190.6345    9.4548172     0.250225 
   71200    -283.1614    16.185344   -266.97606    1170.2362    2541.8731    9.4321283   0.27549321 
   71300   -287.13373    17.321739   -269.81199       1252.4   -3570.2987    9.5319702   0.16846968 
   71400    -285.8171    14.578534   -271.23856    1054.0603    3956.7653    9.5923319   0.17837524 
   71500   -284.27133    16.572526    -267.6988    1198.2303    905.40941    9.4778514   0.25062168 
   71600   -284.36676     17.88123   -266.48553    1292.8525    3366.9925    9.5001576   0.24518117 
   71700   -286.48865    16.936343   -269.55231     1224.535   -6480.5839    9.4759793   0.20096329 
   71800    -285.7755    15.059662   -270.71584    1088.8468     7367.445    9.5903376   0.22763326 
   71900   -284.34635    16.564604   -267.78174    1197.6575   -4160.3829    9.4175833   0.22546883 
   72000   -285.79127    14.378621   -271.41265    1039.6061    -5055.841    9.4835905   0.22441541 
   72100   -287.69493    15.303137   -272.39179    1106.4507   -449.79477    9.6026159   0.17564908 
   72200   -286.19865    15.950934   -270.24772    1153.2878    11135.919    9.6833506   0.22115525 
   72300   -284.22913    17.499305   -266.72982    1265.2385   -2591.9781     9.426649   0.19900244 
   72400   -288.69973    17.502887   -271.19684    1265.4974   -10044.163    9.5267291   0.17239924 
   72500   -287.12231    15.727445   -271.39487     1137.129    5873.5422     9.643666   0.18790477 
   72600   -284.52979    17.982764   -266.54702    1300.1936    -14019.37    9.3435599   0.23883369 
   72700   -285.53848    16.935776    -268.6027    1224.4941   -4909.7082    9.4870117   0.23914631 
   72800   -288.48134    16.918559   -271.56278    1223.2493    11196.813     9.768367   0.13808001 
   72900   -288.53473     16.68622   -271.84851    1206.4506    68.865449    9.6384799   0.16413177 
   73000   -285.40453      18.0719   -267.33263    1306.6383   -9047.5831     9.382418   0.24116583 
   73100   -287.33828    16.376425   -270.96185    1184.0517   -6850.1519    9.5219252   0.20180714 
   73200   -288.51427    16.677304   -271.83697     1205.806    2031.1132    9.6553006   0.20067774 
   73300   -284.41412    17.005074   -267.40904    1229.5045    489.57071    9.4690305   0.24976361 
   73400   -285.91948    17.275545   -268.64394    1249.0601   -8075.3086    9.4283789   0.22484011 
   73500   -288.29533    16.876424   -271.41891    1220.2028   -4616.1502    9.5820108   0.15263303 
   73600   -289.21907    18.764912   -270.45415    1356.7446    2981.6175    9.6843333   0.14305355 
   73700    -282.2442    16.601142   -265.64306    1200.2993    2413.7401    9.3914785   0.22335901 
   73800   -286.69128     17.02011   -269.67117    1230.5916   -22189.914    9.3253046   0.21703831 
   73900   -287.96232    17.072542   -270.88978    1234.3825   -4481.1984    9.5769522   0.18680796 
   74000   -287.61555    17.579491   -270.03605    1271.0361   -3413.7516    9.5452824   0.22006276 
   74100   -284.76292    18.333847   -266.42907    1325.5777    11325.602    9.6027832   0.23447251 
   74200   -285.32709    15.075926   -270.25116    1090.0228    2530.6306    9.5486708   0.19657205 
   74300   -287.15418    15.034358   -272.11982    1087.0174   -9412.9987    9.4753128   0.21002286 
   74400   -284.81753    16.203782   -268.61374    1171.5693    -8119.948     9.397913   0.24990995 
   74500    -283.8037    16.445211   -267.35849    1189.0251   -3474.0011    9.4148295   0.25264865 
   74600   -288.59931    17.549238   -271.05007    1268.8487    4905.1732    9.6943766   0.15544063 
   74700   -287.93224    16.230599   -271.70164    1173.5082    13691.296     9.770442   0.13445908 
   74800   -284.76837    16.968875    -267.7995    1226.8872    8778.2503    9.5655448   0.19074058 
   74900   -284.91593    14.439075   -270.47685     1043.977   -14309.005    9.3537506   0.19916262 
   75000   -288.57535    16.750088   -271.82527    1211.0684   -5470.6121    9.5537547   0.16791184 
   75100   -284.14473    17.317431    -266.8273    1252.0886    11109.884    9.5941089   0.18172281 
   75200   -286.59506    18.146408   -268.44866    1312.0254    17252.148     9.744342   0.18715702 
   75300   -286.95281    15.833997   -271.11882     1144.833    8030.5423    9.6468434   0.18596092 
   75400   -285.34212    16.849042   -268.49307     1218.223   -4678.1982      9.44088   0.19347109 
   75500   -284.50378     18.20569   -266.29809    1316.3117     7689.734    9.5461721   0.18692349 
   75600   -286.58746    15.474967   -271.11249    1118.8743    12076.716    9.7057415   0.18570398 
   75700   -285.80937      15.7934   -270.01597    1141.8977   -12090.948    9.4140723   0.20223463 
   75800   -284.95335    16.742857   -268.21049    1210.5456    4041.7911    9.5564934   0.19499009 
   75900   -288.61971    18.020752   -270.59895    1302.9402    2265.3282    9.6560346   0.18580441 
   76000   -288.64547    16.430993   -272.21447    1187.9971    1873.2235    9.6634009   0.16061306 
   76100   -286.79786    16.365866     -270.432    1183.2883   -6469.6894    9.5012651   0.18059174 
   76200   -287.48064    18.263876   -269.21676    1320.5186    317.13729     9.576902   0.17386664 
   76300   -289.64526    15.352833   -274.29242    1110.0438    2894.6365    9.7414453   0.14640765 
   76400   -286.65574    14.712318   -271.94342    1063.7332    -10208.29    9.4645562   0.19219567 
   76500   -284.38332    15.650548   -268.73277    1131.5692   -2558.6962    9.4737635   0.22337465 
   76600    -286.4753    16.002272   -270.47303    1156.9996     4880.435    9.6103721   0.22083046 
   76700   -288.05982    14.973853   -273.08597    1082.6427    6483.1358    9.6977794   0.17152169 
   76800   -286.28889    14.326529   -271.96236    1035.8397    8584.1535    9.6339935   0.17513202 
   76900   -286.07502    16.882386   -269.19264    1220.6338   -4561.2549    9.4993764    0.2376927 
   77000   -287.18281    16.823724   -270.35909    1216.3924   -3506.3045    9.5395414     0.175571 
   77100   -289.42672    16.661979   -272.76474     1204.698    2098.1107    9.7091822   0.14289829 
   77200   -284.45957     16.66947    -267.7901    1205.2396    2166.8871    9.4954448   0.22382237 
   77300   -285.72226    17.315351   -268.40691    1251.9382   -9109.9017    9.4163137   0.22872377 
   77400   -286.86325    15.344647    -271.5186    1109.4519   -1005.9837    9.5648622   0.17500566 
   77500   -287.90861    16.859396   -271.04921    1218.9716     1772.854    9.6235136   0.19197446 
   77600    -286.4222    18.335476   -268.08673    1325.6955    21665.108    9.7841109   0.17695456 
   77700   -286.64085    15.148922   -271.49193    1095.3005    947.77979     9.588307   0.16344495 
   77800   -289.88674    15.976525   -273.91021    1155.1381   -7162.7421    9.6160058   0.15032373 
   77900   -285.83504    16.833767   -269.00128    1217.1186    358.08938    9.5235368   0.18561604 
   78000   -287.49519    18.320425   -269.17477    1324.6072     -3489.69    9.5353904   0.18223331 
[...]
  481400   -286.58757    18.207596   -268.37997    1316.4494   -5500.6135    9.4795144   0.21557163 
  481500   -286.87097    16.539934   -270.33103    1195.8738   -9551.7425    9.4664262   0.18135852 
  481600    -287.8412    14.647972   -273.19323    1059.0808   -1624.7187    9.6086068   0.18261318 
  481700    -285.9027    16.218738   -269.68396    1172.6506    12247.824    9.6484938   0.19170976 
  481800   -285.56775    15.576178   -269.99157    1126.1921    -7545.392    9.4036431   0.19689664 
  481900   -288.92925    14.723196   -274.20606    1064.5196   -16023.804    9.4789914   0.16352935 
  482000   -290.28714    19.743894   -270.54324    1427.5272    2079.0464    9.7148109   0.12569204 
  482100   -286.89683    17.464524    -269.4323    1262.7237    14067.049     9.738346   0.15585738 
  482200   -288.24794    16.188726   -272.05922    1170.4807    -7461.356    9.5549521   0.17949396 
  482300   -289.25762    14.447082   -274.81053     1044.556    -13112.83    9.5363708   0.14381997 
  482400   -286.39311    16.898014    -269.4951    1221.7638   -3165.6709    9.4996955   0.19598438 
  482500   -287.95913    18.716277   -269.24286    1353.2282    10687.021     9.705287   0.15715905 
  482600   -288.38732    17.080818    -271.3065    1234.9809    2141.6801    9.6664749   0.15277139 
  482700   -289.35649    15.653688    -273.7028    1131.7962   -10297.904     9.555151   0.17331345 
  482800   -286.02468    17.267851   -268.75683    1248.5038    6787.8373    9.5990735   0.19756394 
  482900   -287.94283    18.686288   -269.25655      1351.06   -3422.0036     9.571733   0.17517931 
  483000   -287.74132    15.856552   -271.88477    1146.4638    11095.446    9.7250229   0.15331495 
  483100   -287.58865    15.183639   -272.40501    1097.8107    8522.3315    9.6903658   0.14823202 
  483200   -286.27879    18.631582   -267.64721    1347.1046   -8326.6018    9.4267921   0.17637201 
  483300   -288.29381    18.205401    -270.0884    1316.2908   -3684.4708    9.5676795   0.16422504 
  483400   -288.42853    16.934847   -271.49369    1224.4269    10060.293      9.74955   0.14070614 
  483500   -287.24794    18.079456   -269.16849    1307.1847    4080.6237    9.6074717   0.16047664 
  483600   -283.57971    16.106371   -267.47334    1164.5262   -10219.128    9.3399753   0.23429014 
  483700   -287.34938    17.177946   -270.17144    1242.0035    3482.9005    9.6190401   0.18339977 
  483800   -287.50772    14.823119    -272.6846    1071.7443    7476.3773    9.6647463   0.20432924 
  483900   -283.91405    15.194868   -268.71918    1098.6226   -4381.5051    9.3984394   0.24008905 
  484000   -285.13672     15.99361   -269.14311    1156.3734   -8367.4181    9.4099208   0.20034144 
  484100   -288.15941    15.461717   -272.69769    1117.9163    3940.6999    9.6880724   0.18168951 
  484200   -286.52308     17.41159   -269.11149    1258.8964    1679.3027    9.5646925   0.21031415 
  484300   -283.99154    15.965257   -268.02628    1154.3234   -6528.9948    9.3791172   0.24772339 
  484400   -288.34895    15.802009   -272.54694    1142.5202   -4549.0844    9.5870724   0.14635705 
  484500    -289.9218    18.340633   -271.58116    1326.0683   -6944.1348    9.6024997   0.14207443 
  484600   -285.03168    17.526977    -267.5047    1267.2392    21558.174    9.7495521   0.18328952 
  484700   -288.72269     18.11793   -270.60476    1309.9664     4321.061    9.6754078   0.15967498 
  484800   -288.18176    15.926458   -272.25531    1151.5182   -10372.249    9.5073405   0.18541073 
  484900    -286.3241    18.375973   -267.94813    1328.6235   -11177.433     9.396116   0.20084074 
  485000   -284.86847    15.296794   -269.57167    1105.9921    7151.7666    9.5728674   0.23273197 
  485100   -289.46662    15.851904   -273.61472    1146.1277      7687.43    9.7566819   0.15098983 
  485200   -286.46497    15.970273    -270.4947    1154.6861   -5740.7389    9.5035608   0.19950907 
  485300   -284.93294    15.775142    -269.1578    1140.5777   -10369.692    9.3479388   0.21764523 
  485400   -287.86832    16.526553   -271.34176    1194.9064    -5832.441    9.5303544   0.16843256 
  485500   -289.87074    16.173695   -273.69704     1169.394    18393.236    9.8908206    0.1321883 
  485600   -287.32377    17.951451   -269.37232    1297.9296   -2827.5872    9.5419617   0.17853467 
  485700   -286.60951    16.873141   -269.73637    1219.9654   -8815.7426    9.4583691   0.20666298 
  485800   -287.68224    14.655171   -273.02707    1059.6012   -5038.2317    9.5529277   0.19323419 
  485900    -288.3378      16.7148     -271.623     1208.517   -11296.236    9.5072842   0.18867026 
  486000   -285.99229    17.545447   -268.44684    1268.5746    3843.0222    9.5748893    0.2095688 
  486100   -287.49587    16.508681   -270.98719    1193.6142    5931.8873    9.6448093   0.20375406 
  486200   -288.89649    17.056478   -271.84001    1233.2211    4404.0921    9.6952454   0.15879693 
  486300   -285.69926    18.016399   -267.68286    1302.6255   -7463.0072    9.4135324   0.22468739 
  486400   -284.79461    16.348892   -268.44572     1182.061   -13593.013    9.3433101   0.21900915 
  486500   -287.36454    16.609874   -270.75467    1200.9306   -1241.9174    9.5816064   0.16855414 
  486600   -288.79538    17.048057   -271.74732    1232.6122    1721.8896     9.672145   0.15501781 
  486700   -283.72913    17.730658   -265.99847    1281.9658   -2808.4517    9.3841666   0.24539363 
  486800   -286.22429    17.526945   -268.69734    1267.2369    6079.5083    9.6365982   0.19584022 
  486900   -286.50621    16.353081   -270.15313    1182.3639    16835.857    9.7567845    0.1987361 
  487000   -286.33284    15.828396   -270.50445    1144.4281    -5423.094    9.4777397   0.20586408 
  487100   -290.44823     15.14721   -275.30102    1095.1768    -4604.258    9.6578437    0.1551554 
  487200   -288.56228    15.281461   -273.28082    1104.8834    -2244.685    9.6376044   0.14612364 
  487300   -286.99865    16.765721   -270.23293    1212.1987    4086.9579    9.6174955   0.16955459 
  487400   -287.82004    17.890452   -269.92959    1293.5193   -6114.3338     9.532149   0.16736874 
  487500   -289.39243    16.213515   -273.17891     1172.273    2605.6648    9.7096691    0.1422815 
  487600   -288.79074    14.384392   -274.40635    1040.0234    15734.476    9.8383508   0.11930777 
  487700   -287.19819    16.782886   -270.41531    1213.4398   -6621.2443     9.518486   0.18435419 
  487800   -285.81306    16.346402   -269.46666     1181.881   -5968.2879    9.4582068   0.19280688 
  487900   -289.25303    16.159721   -273.09331    1168.3835    -14076.19    9.5197539   0.17272597 
  488000   -289.65412    17.174904   -272.47921    1241.7836    7055.6294    9.7541121   0.13301424 
  488100   -285.68023    17.538647   -268.14158     1268.083    16941.151    9.7033296   0.19498393 
  488200   -285.38047    16.895126   -268.48534     1221.555   -5059.5254    9.4665064   0.19207261 
  488300   -289.14766    16.355206   -272.79246    1182.5176   -3960.5636    9.6309845   0.14117713 
  488400   -286.96934    16.325969   -270.64337    1180.4036    7297.8709    9.6505475   0.15826403 
  488500   -285.05589    16.652102   -268.40379    1203.9838    1481.7786    9.4977735   0.21448414 
  488600    -287.1172    15.867335   -271.24986    1147.2434   -10562.293    9.4784303   0.16884484 
  488700   -287.74578    14.374216   -273.37157    1039.2876    10079.713    9.7386192   0.15875556 
  488800   -284.84497    16.468688   -268.37628    1190.7226    30107.264    9.8422814   0.17436703 
  488900   -286.99159    17.072036   -269.91955     1234.346   -9286.3035    9.4650496   0.21306764 
  489000   -285.30033    13.655226    -271.6451    987.30307   -5560.1707    9.4711329   0.21202899 
  489100    -288.7203    13.093393   -275.62691    946.68128   -1696.3974    9.6488982    0.1603767 
  489200   -287.76487    16.754126   -271.01075    1211.3604    2082.8286     9.612287     0.160371 
  489300   -286.69509    16.464861   -270.23023    1190.4459   -2195.3218    9.5248446   0.17894751 
  489400   -287.71714    16.328413   -271.38873    1180.5803    -2090.244    9.5854888   0.16843518 
  489500   -289.26746    14.263624   -275.00383    1031.2915    314.90945    9.6857563   0.14586512 
  489600   -287.06574    16.876365   -270.18937    1220.1985    2091.6202    9.5970235   0.20516532 
  489700   -287.86988    18.459838   -269.41004    1334.6872   -1940.0523    9.5880681   0.19796098 
  489800   -287.54426    16.931427   -270.61283    1224.1796    2918.3818     9.648287   0.17021124 
  489900   -291.02374    15.554555   -275.46919    1124.6287    13129.893    9.8811064   0.10843882 
  490000    -287.0198    14.506179   -272.51362    1048.8289   -13832.501    9.4554094   0.16606697 
  490100   -285.45979    15.048579   -270.41122    1088.0455    -7410.109    9.4477424   0.21222643 
  490200   -285.81203    16.715699   -269.09633     1208.582    5034.5548    9.5800128   0.18962109 
  490300   -288.59594    16.749885   -271.84605    1211.0537    6782.6756    9.6930667   0.18294011 
  490400   -288.69828    14.676869   -274.02141    1061.1701   -6624.0743    9.5776583   0.15165664 
  490500   -286.60228     16.59565   -270.00663    1199.9022     3676.346    9.5869051   0.17741828 
  490600   -287.04585     17.57181   -269.47404    1270.4807    9684.6536    9.6794122   0.16430199 
  490700      -290.95    17.805738   -273.14426    1287.3943    7732.0611     9.809775   0.12382001 
  490800   -289.45462     17.48606   -271.96856    1264.2808   -3177.6334    9.6285843   0.15392986 
  490900   -284.16112    15.652431   -268.50869    1131.7054   -1058.4251     9.458988   0.21113874 
  491000   -287.93776    17.176615   -270.76115    1241.9073    576.17112    9.6278606   0.15919701 
  491100   -291.28268    17.777822   -273.50486    1285.3758    5174.7664    9.7857091   0.11276504 
  491200   -287.44066    18.256866   -269.18379    1320.0118   -1503.5912    9.5660791   0.18083589 
  491300   -286.30178    17.172107   -269.12968    1241.5813    6503.4655    9.5998224   0.19387775 
  491400   -289.17814    16.225815   -272.95232    1173.1623   -1230.8289    9.6393216   0.16493802 
  491500   -287.96435      16.3594   -271.60495    1182.8208   -16493.873    9.4325812   0.16812764 
  491600   -286.61108    18.084819   -268.52627    1307.5724   -7233.7983    9.4663123   0.18781898 
  491700   -287.49186    16.397222   -271.09464    1185.5554   -1822.3671     9.577887   0.18034906 
  491800   -288.16515    15.363717   -272.80144    1110.8307    7955.4893    9.7173598   0.16590839 
  491900   -286.43089    18.915805   -267.51509    1367.6545    2991.6616    9.5521331   0.14872418 
  492000   -286.93995    16.980747    -269.9592    1227.7455    9795.2296    9.6652741   0.20423074 
  492100   -287.45832    15.892945   -271.56538    1149.0951   -12575.851    9.4714587   0.17099549 
  492200   -289.20302    14.465276   -274.73774    1045.8715    5934.6403    9.7553221   0.15133273 
  492300   -286.93585    17.783276   -269.15257    1285.7702    13494.769    9.7250424   0.15719305 
  492400   -288.16581     18.72708   -269.43873    1354.0093   -10347.637    9.5158847    0.1869002 
  492500   -286.91124    16.266637    -270.6446    1176.1138   -968.44979    9.5574166   0.16210819 
  492600   -289.71698     14.88768    -274.8293    1076.4122    17614.394    9.8923664   0.13224585 
  492700   -287.29867    14.934684   -272.36399    1079.8107    7931.0631    9.6925914   0.17458184 
  492800   -285.60376    15.406507   -270.19725    1113.9245    8093.6006    9.6149461   0.16881871 
  492900   -287.21562    17.441459   -269.77416     1261.056   -517.77739    9.5759884   0.16187608 
  493000   -288.36293    16.050277   -272.31265    1160.4705   -8928.5554    9.5360054   0.17307124 
  493100   -290.49955    16.274739   -274.22481    1176.6996   -3050.4997    9.6603903   0.14894969 
  493200   -286.32972    16.608686   -269.72104    1200.8447    13633.401    9.7012492   0.16272364 
  493300   -287.33352    18.141326   -269.19219     1311.658   -4277.6325    9.5388348   0.16295798 
  493400   -286.26934    15.189426   -271.07992    1098.2291    5718.3597    9.6035699   0.15432899 
  493500   -291.14275    17.217308   -273.92544    1244.8494    3759.3165    9.7837574   0.11308303 
  493600   -287.65929    17.371971   -270.28732    1256.0319    645.40651    9.6110072   0.16973201 
  493700   -285.11851    16.472507     -268.646    1190.9987    2140.6183     9.546831    0.1869153 
  493800   -287.12265    14.756942   -272.36571    1066.9595   -23251.033     9.365118   0.19971667 
  493900   -288.16865    16.334241   -271.83441    1181.0018   -4546.2045    9.5732682   0.17028892 
  494000   -286.10806    18.190762    -267.9173    1315.2323    13485.696    9.6687228     0.178283 
  494100   -287.30424    16.502111   -270.80213    1193.1391     3635.731    9.6374122    0.1895424 
  494200   -288.13282     15.11335   -273.01947    1092.7286   -689.31486     9.608877   0.18753812 
  494300   -285.80178    17.508239   -268.29354    1265.8844   -6286.8645    9.4625176   0.17959263 
  494400   -287.61139    17.308579   -270.30281    1251.4486   -2966.3754    9.5831455   0.14961527 
  494500   -289.77859    17.570534   -272.20806    1270.3885    4735.6241    9.7311254   0.13296406 
  494600   -286.50872    18.712678   -267.79604     1352.968    6414.3103    9.6180138   0.18531701 
  494700   -285.76745    16.615078   -269.15237    1201.3069    8113.5899    9.6084756   0.19088356 
  494800   -286.93759    14.995977   -271.94162    1084.2423   -22608.821    9.3324956   0.22950371 
  494900   -285.11989    15.132042   -269.98784    1094.0801   -3144.1113    9.4401999    0.2504942 
  495000   -286.27944    18.826022   -267.45342    1361.1631    166.83443    9.5331589   0.22788982 
  495100   -288.39601    16.102513   -272.29349    1164.2473    2882.2249    9.6730587    0.1712315 
  495200   -286.42505    15.782753    -270.6423     1141.128   -9316.3421    9.4495318   0.18163826 
  495300   -285.15384    18.226707   -266.92713    1317.8313   -7183.2619    9.4061377   0.19616751 
  495400   -288.88381    17.315614   -271.56819    1251.9572    4245.2125    9.6893676   0.13737794 
  495500   -287.37629    15.704234   -271.67206    1135.4509    10498.852     9.724701   0.14964867 
  495600   -285.98877    17.413111   -268.57566    1259.0064   -4830.9935    9.4783128   0.19310665 
  495700   -284.16862    17.561139   -266.60749    1269.7092   -6470.6208    9.3751117    0.2006513 
  495800   -289.16565    17.919328   -271.24632    1295.6071    2793.5971    9.6840086   0.14767936 
  495900    -288.0955    17.701765   -270.39374    1279.8768    10990.815    9.7377493     0.154088 
  496000   -286.25366     19.95813   -266.29553    1443.0169    -3079.325    9.4779705   0.20074225 
  496100   -287.98698    19.868538   -268.11844    1436.5392   -8722.8071    9.5046269   0.14834846 
  496200    -287.8082    16.243259   -271.56494    1174.4236   -4765.9699    9.5486776    0.1813461 
  496300   -286.00171    16.130053   -269.87166    1166.2385   -16954.087    9.3637785   0.19940827 
  496400   -285.24953    17.537949   -267.71158    1268.0325    1443.1767    9.5150476   0.18832664 
  496500   -289.74495    17.983645   -271.76131    1300.2573    14994.541    9.8368778   0.13586566 
  496600   -285.95845    14.004403   -271.95404    1012.5493    5601.4984     9.603442   0.20915179 
  496700   -284.50111    16.065484   -268.43563      1161.57   -10497.955    9.3616105   0.23153762 
  496800    -288.4089    16.833806   -271.57509    1217.1214   -11271.907    9.5352913   0.17981822 
  496900   -290.21351    18.088696   -272.12482    1307.8527    10258.409    9.7971587   0.12188808 
  497000   -283.94854    15.917014   -268.03152    1150.8353    13925.681    9.6161889   0.21381129 
  497100   -285.11961    15.920234   -269.19937    1151.0682   -6886.3488    9.4283733    0.1863694 
  497200   -288.49603    15.464217   -273.03181    1118.0971   -489.56021     9.640227   0.14298417 
  497300   -287.65511    18.327435   -269.32767    1325.1141    -1043.334    9.5648312    0.1744333 
  497400    -285.8512    17.287753   -268.56345    1249.9428     8787.878    9.6280121   0.20921131 
  497500   -289.43867    16.796119   -272.64255    1214.3965   -963.41239    9.6460769   0.15487745 
  497600   -286.59821    16.602865   -269.99535    1200.4239   -15312.549    9.3923798   0.20047202 
  497700   -284.37965    16.795787   -267.58387    1214.3725     2928.856    9.4914482   0.22077224 
  497800   -288.47004    17.489235   -270.98081    1264.5104    17266.074    9.8063356    0.1595459 
  497900   -288.75199    16.284073   -272.46792    1177.3745   -917.28512    9.6347788   0.16027299 
  498000   -282.96821    15.218471   -267.74974    1100.3291   -21277.722    9.1625498   0.26157513 
  498100   -284.96496    16.599934   -268.36502     1200.212   -12859.911    9.3418154   0.23372374 
  498200   -288.97676    17.572654    -271.4041    1270.5417    5560.6121    9.7154675   0.14688444 
  498300   -288.09523    16.155503   -271.93973    1168.0786    5737.5261    9.6890338     0.154759 
  498400   -283.65429    16.087019   -267.56727    1163.1271   -7824.4253    9.3481626   0.23601345 
  498500   -284.69474    14.110746   -270.58399    1020.2381   -6966.1062    9.4212818    0.1963131 
  498600    -288.8845    17.303942   -271.58056    1251.1133    -2790.224    9.6190185   0.16076041 
  498700   -285.16307    18.114321   -267.04875    1309.7055    2083.5637    9.5045291   0.20875096 
  498800   -285.15987    16.416066    -268.7438    1186.9179    730.47748     9.525588   0.21019841 
  498900   -287.57055    16.499238   -271.07131    1192.9314   -4678.3309    9.5557288    0.1764601 
  499000   -287.69626    17.270879   -270.42538    1248.7228    3302.1168    9.6218621   0.17747643 
  499100   -282.99738    17.401037   -265.59634    1258.1334   -3214.7244    9.3909556   0.22857042 
  499200   -286.21513    16.371776   -269.84336    1183.7156   -2490.2538    9.4894156   0.17992625 
  499300   -288.04733     16.91702   -271.13031     1223.138    3317.0434    9.6453023   0.15469792 
  499400   -287.22475    16.217084   -271.00767     1172.531   -7493.3026    9.5022565   0.15707081 
  499500   -282.54272    17.441042   -265.10167    1261.0259   -12297.941    9.2270747    0.2479268 
  499600   -286.39359    18.131528   -268.26206    1310.9496      2757.18    9.5828194   0.21347934 
  499700   -288.03046    17.693838   -270.33662    1279.3036    14687.967    9.7742653   0.13812879 
  499800   -287.60357    15.926256   -271.67731    1151.5036   -6709.6313    9.5400019   0.15099096 
  499900   -284.86269    17.625342   -267.23735    1274.3512   -4102.1697    9.4401893   0.19271298 
  500000   -287.55709    16.999951   -270.55714     1229.134   -2259.0695    9.5864836   0.17294959 
Loop time of 150.01 on 1 procs for 500000 steps with 108 atoms

Performance: 1439.907 ns/day, 0.017 hours/ns, 3333.117 timesteps/s
100.0% CPU use with 1 MPI tasks x no OpenMP threads

MPI task timing breakdown:
Section |  min time  |  avg time  |  max time  |%varavg| %total
---------------------------------------------------------------
Pair    | 89.586     | 89.586     | 89.586     |   0.0 | 59.72
Neigh   | 5.0524     | 5.0524     | 5.0524     |   0.0 |  3.37
Comm    | 2.4636     | 2.4636     | 2.4636     |   0.0 |  1.64
Output  | 0.10831    | 0.10831    | 0.10831    |   0.0 |  0.07
Modify  | 52.299     | 52.299     | 52.299     |   0.0 | 34.86
Other   |            | 0.5007     |            |       |  0.33

Nlocal:    108 ave 108 max 108 min
Histogram: 1 0 0 0 0 0 0 0 0 0
Nghost:    990 ave 990 max 990 min
Histogram: 1 0 0 0 0 0 0 0 0 0
Neighs:    4887 ave 4887 max 4887 min
Histogram: 1 0 0 0 0 0 0 0 0 0

Total # of neighbors = 4887
Ave neighs/atom = 45.25
Neighbor list builds = 22093
Dangerous builds = 0
Total wall time: 0:02:30
