LAMMPS (3 Mar 2020)
Reading data file ...
  orthogonal box = (0 0 0) to (17.469 17.469 17.469)
  1 by 1 by 1 MPI processor grid
  reading atoms ...
  217 atoms
  read_data CPU = 0.000997089 secs
Reading potential file library.meam with DATE: 2012-06-29
Reading potential file LiSi.meam with DATE: 2020-11-07
1 atoms in group Li
Neighbor list info ...
  update every 1 steps, delay 10 steps, check yes
  max neighbors/atom: 2000, page size: 100000
  master list distance cutoff = 6
  ghost atom cutoff = 6
  binsize = 3, bins = 6 6 6
  2 neighbor lists, perpetual/occasional/extra = 2 0 0
  (1) pair meam/c, perpetual
      attributes: full, newton on
      pair build: full/bin/atomonly
      stencil: full/bin/3d
      bin: standard
  (2) pair meam/c, perpetual, half/full from (1)
      attributes: half, newton on
      pair build: halffull/newton
      stencil: none
      bin: none
Setting up Verlet run ...
  Unit style    : metal
  Current step  : 0
  Time step     : 0.00103457
Per MPI rank memory allocation (min/avg/max) = 9.27 | 9.27 | 9.27 Mbytes
Step PotEng KinEng TotEng Temp Press Density c_msdli[4] 
       0   -951.06911    50.256344   -900.81276         1800    -114182.3    1.8918427            0 
     100   -922.38155    37.347898   -885.03366    1337.6663   -82871.037    1.8918427   0.24487137 
     200   -906.70454    46.750989   -859.95355    1674.4509   -67671.439    1.8918427   0.43767758 
     300   -897.57038    53.611593   -843.95879    1920.1728   -55790.883    1.8918427   0.81559335 
     400   -906.44538    52.498995   -853.94638    1880.3236   -63626.459    1.8918427   0.73401784 
     500   -907.84786    49.673595   -858.17426     1779.128   -68127.394    1.8918427 0.0072767216 
     600   -900.24413    50.165578   -850.07855    1796.7491   -60854.842    1.8918427  0.098359296 
     700   -901.65532    48.739303   -852.91602    1745.6651   -59905.964    1.8918427   0.48059754 
     800   -908.35905    50.523607   -857.83544    1809.5724   -70357.857    1.8918427   0.18393891 
     900   -899.32914    49.884789   -849.44435    1786.6922   -63819.214    1.8918427   0.11239445 
    1000     -900.156    49.973755   -850.18225    1789.8787   -60460.769    1.8918427   0.43722495 
    1100   -903.31458    49.837866   -853.47671    1785.0116   -62999.516    1.8918427   0.19560149 
    1200   -905.67807    45.564291   -860.11378    1631.9477   -67734.321    1.8918427  0.085808007 
    1300   -903.50813    52.030823   -851.47731    1863.5554   -66401.112    1.8918427   0.28057174 
    1400   -903.83902    52.511186   -851.32783    1880.7602   -63754.901    1.8918427   0.12835733 
    1500   -905.42147    49.695861   -855.72561    1779.9255   -66691.514    1.8918427   0.19134137 
    1600   -904.12406    49.897639   -854.22642    1787.1525   -66980.006    1.8918427  0.052834097 
    1700    -904.3213     52.81799   -851.50331    1891.7488   -66474.063    1.8918427    0.1654949 
    1800   -909.74957    48.736154   -861.01342    1745.5523   -71413.237    1.8918427  0.031735776 
    1900   -906.50056    53.671171   -852.82939    1922.3067   -67874.271    1.8918427   0.99853006 
    2000   -903.92528    51.891638   -852.03364    1858.5703   -66078.128    1.8918427   0.14035593 
    2100   -907.95889    46.433431   -861.52545    1663.0771   -70139.776    1.8918427   0.14933244 
    2200   -902.65989    47.613219   -855.04667    1705.3328    -65653.43    1.8918427   0.41164481 
    2300   -901.63462    49.563832   -852.07078    1775.1967   -63416.237    1.8918427   0.11943487 
    2400   -902.30083    48.730801   -853.57003    1745.3606   -66709.442    1.8918427  0.027273729 
    2500   -907.45111    47.757684   -859.69343     1710.507   -70742.297    1.8918427   0.15912853 
    2600   -898.40368    50.225622   -848.17806    1798.8996   -61914.583    1.8918427   0.36021767 
    2700   -903.07673    50.098651   -852.97808     1794.352   -64425.236    1.8918427  0.068373654 
    2800   -906.39437    51.962623   -854.43175    1861.1127   -69411.494    1.8918427   0.12331885 
    2900   -901.65608     47.63175   -854.02433    1705.9965   -66107.187    1.8918427   0.11384319 
    3000   -899.67808    51.025883   -848.65219    1827.5621   -63107.957    1.8918427  0.010673904 
    3100   -903.96731    48.731764   -855.23555    1745.3951   -66341.148    1.8918427  0.012736922 
    3200   -905.81092     51.22546   -854.58546    1834.7102   -69262.101    1.8918427   0.59100938 
    3300   -898.69546    53.269099   -845.42636    1907.9059   -63659.965    1.8918427  0.050826881 
    3400   -904.17216     49.56004   -854.61212    1775.0609   -68939.839    1.8918427     0.117122 
    3500   -901.72909    48.316579   -853.41251    1730.5246   -64643.602    1.8918427   0.40679657 
    3600   -899.86003    55.532557   -844.32747    1988.9748   -63234.993    1.8918427   0.10205838 
    3700   -903.29676    50.609061    -852.6877     1812.633    -66465.72    1.8918427   0.10533567 
    3800   -905.46313     52.30503    -853.1581    1873.3765   -66902.924    1.8918427  0.067983513 
    3900   -902.16553    50.998895   -851.16663    1826.5955   -65821.138    1.8918427   0.13435214 
    4000   -903.10959    56.084341   -847.02525    2008.7377   -68070.243    1.8918427   0.17231813 
    4100   -906.69738    51.086938   -855.61045    1829.7488    -70590.18    1.8918427   0.13151634 
    4200   -902.48712    51.560677   -850.92644    1846.7165   -66838.098    1.8918427   0.34101149 
    4300   -898.44487    54.766363    -843.6785    1961.5325   -61874.435    1.8918427   0.12467313 
    4400   -904.44525    52.174146    -852.2711    1868.6887   -67893.309    1.8918427   0.74493526 
    4500   -903.37949    49.661631   -853.71786    1778.6995   -69830.423    1.8918427  0.036091528 
    4600   -899.67435    52.135251    -847.5391    1867.2956   -64734.823    1.8918427   0.98376157 
    4700   -900.14333    47.633608   -852.50972    1706.0631   -65273.149    1.8918427   0.18775848 
    4800   -901.16886    43.797026   -857.37184    1568.6506   -65445.127    1.8918427    0.6598867 
    4900   -899.14494    47.140457   -852.00448    1688.4002   -65844.127    1.8918427   0.30611898 
    5000   -902.26737    49.611489   -852.65588    1776.9036   -68984.606    1.8918427   0.12733678 
    5100    -908.7126    47.145475   -861.56712    1688.5799   -75849.454    1.8918427   0.11320064 
    5200   -903.85282    50.702358   -853.15046    1815.9746   -69706.802    1.8918427 0.00023125844 
    5300   -903.24132    53.465116    -849.7762    1914.9266   -67978.834    1.8918427  0.074421147 
    5400   -902.72875    44.649815   -858.07893    1599.1945   -70620.345    1.8918427   0.37530728 
    5500   -898.82189    50.657702   -848.16419    1814.3752    -64774.34    1.8918427  0.086534922 
    5600   -899.60828    49.433683    -850.1746    1770.5352   -64653.821    1.8918427   0.08910936 
    5700   -903.60983    47.934311   -855.67552    1716.8332   -67172.131    1.8918427  0.017317769 
    5800   -903.19441    50.072655   -853.12175    1793.4209    -68436.49    1.8918427   0.54907896 
    5900   -900.65181    52.386447   -848.26536    1876.2925   -66114.279    1.8918427   0.18146972 
    6000   -908.28591     50.75119   -857.53472    1817.7236   -71516.925    1.8918427   0.52798081 
    6100   -904.54931    49.809587   -854.73972    1783.9988     -70409.8    1.8918427    3.2632592 
    6200   -902.28056    51.014388   -851.26617    1827.1504   -69902.464    1.8918427    11.825541 
    6300   -897.09834    51.092675   -846.00566    1829.9543   -61339.143    1.8918427    16.730586 
    6400   -905.36121    49.379353   -855.98185    1768.5894   -69332.793    1.8918427    10.115607 
    6500   -903.69505    54.146119   -849.54893    1939.3176   -68217.149    1.8918427    6.2522008 
    6600   -899.83869    51.017647   -848.82105    1827.2671    -66748.53    1.8918427    4.5297541 
    6700   -903.32927       49.744   -853.58527    1781.6497   -69413.926    1.8918427    9.3767805 
    6800   -900.49079    54.068344   -846.42244     1936.532   -64850.519    1.8918427    10.844417 
    6900    -898.6026    49.472073   -849.13052    1771.9102   -63700.226    1.8918427     7.493697 
    7000     -903.856    50.659069   -853.19693    1814.4241   -67905.168    1.8918427     3.461864 
    7100    -901.0497    52.166122   -848.88358    1868.4013   -63207.774    1.8918427    6.8076056 
    7200   -896.38118    47.302994   -849.07819    1694.2217   -63464.749    1.8918427    6.8037881 
    7300   -904.20491    48.841476   -855.36343    1749.3245   -68193.252    1.8918427    5.8286913 
    7400   -902.38461    50.584493   -851.80011    1811.7531   -64115.639    1.8918427    8.0510727 
    7500   -899.41799    49.490567   -849.92743    1772.5726    -62055.42    1.8918427      4.25454 
    7600   -900.50317    50.407544   -850.09563    1805.4154   -65508.779    1.8918427    9.0691645 
    7700   -905.60673     46.39683    -859.2099    1661.7662   -70591.176    1.8918427    5.7540332 
    7800   -906.82363    54.886703   -851.93692    1965.8426   -72070.577    1.8918427    12.263099 
    7900   -899.45916    47.548318   -851.91084    1703.0083   -62451.657    1.8918427    12.909735 
    8000    -898.6893     48.58144   -850.10786     1740.011   -63858.092    1.8918427    2.4180966 
    8100   -898.39458    49.627712   -848.76687    1777.4847   -57475.537    1.8918427    2.2956881 
    8200   -905.47032    50.058382   -855.41194    1792.9097   -68136.867    1.8918427    4.7683177 
    8300   -903.89214    53.959435   -849.93271    1932.6313   -69650.879    1.8918427    4.7861972 
    8400   -899.66416     52.55266    -847.1115    1882.2457   -62643.388    1.8918427    5.3666425 
    8500   -908.32888    52.719861   -855.60902    1888.2342   -71401.814    1.8918427    4.7109657 
    8600   -902.13861    50.878253   -851.26036    1822.2745   -65669.765    1.8918427    6.6938274 
    8700   -900.12004    51.101451   -849.01859    1830.2686   -65092.239    1.8918427     4.606138 
    8800   -902.97539    50.237711   -852.73768    1799.3326   -65911.876    1.8918427      4.58017 
    8900   -899.89719    48.520039   -851.37715    1737.8118   -63013.056    1.8918427    6.2024377 
    9000   -899.64947     50.16483   -849.48464    1796.7223   -63195.171    1.8918427    3.9713846 
    9100   -903.88275    46.578618   -857.30413    1668.2772   -69032.529    1.8918427    11.779942 
    9200   -906.20309    50.284566   -855.91852    1801.0108   -72107.431    1.8918427    17.228478 
    9300   -901.17331     51.26671    -849.9066    1836.1876   -65461.562    1.8918427     23.65908 
    9400   -907.48082    51.651181   -855.82964     1849.958   -69582.652    1.8918427    19.768338 
    9500   -907.60892    50.942144   -856.66677    1824.5629   -70763.526    1.8918427    25.997797 
    9600   -899.43353    50.759133    -848.6744    1818.0081   -63025.448    1.8918427    21.634531 
    9700   -903.49941    47.173266   -856.32614    1689.5753   -68804.028    1.8918427    18.411363 
    9800   -904.60099    49.112104   -855.48888    1759.0175   -70266.662    1.8918427     18.36201 
    9900   -901.38358    50.044382    -851.3392    1792.4083   -65053.234    1.8918427    21.932624 
   10000   -899.52925    48.896628   -850.63262    1751.2999   -64587.041    1.8918427    23.029017 
   10100   -901.46786    48.821571   -852.64628    1748.6116   -67893.144    1.8918427    24.649395 
   10200   -902.75486    52.717963    -850.0369    1888.1662   -67891.737    1.8918427    21.848147 
   10300   -902.54811    49.731332   -852.81678    1781.1959   -68222.151    1.8918427     23.82766 
   10400   -904.88768    47.484427   -857.40326      1700.72   -70137.461    1.8918427    21.497249 
   10500    -899.9679    52.568196   -847.39971    1882.8021   -63457.358    1.8918427    21.335565 
   10600   -903.00097    50.795995   -852.20498    1819.3283    -66584.78    1.8918427    22.730651 
   10700   -907.36811    51.271509    -856.0966    1836.3595   -69814.458    1.8918427    26.066669 
   10800   -902.56424     50.84254    -851.7217    1820.9954   -66632.578    1.8918427    25.780486 
   10900    -900.4816    51.079341   -849.40226    1829.4768   -67082.283    1.8918427    21.225604 
   11000   -901.06285    50.125431   -850.93742    1795.3111   -65919.371    1.8918427    23.171055 
   11100   -905.23189     48.14058   -857.09131     1724.221   -70425.816    1.8918427     25.89207 
   11200   -898.27955    51.615368   -846.66418    1848.6753   -63126.631    1.8918427    23.214057 
   11300   -902.07743    50.839196   -851.23824    1820.8756   -69259.306    1.8918427    21.679497 
   11400   -902.65804    46.819476   -855.83856    1676.9038   -69243.556    1.8918427     27.28925 
   11500   -901.23368    47.675512   -853.55817     1707.564   -67187.468    1.8918427    23.699513 
   11600   -900.87768    49.452252   -851.42543    1771.2003   -67572.508    1.8918427    23.811557 
   11700   -903.03485    47.574421   -855.46042    1703.9432    -68371.42    1.8918427     21.21015 
   11800   -902.45071    47.526987   -854.92372    1702.2443   -68085.144    1.8918427     23.59131 
   11900   -899.90696    51.835057    -848.0719    1856.5438   -63582.571    1.8918427    23.181325 
   12000   -905.13653    53.136255   -852.00028     1903.148   -71791.937    1.8918427    16.623615 
   12100   -905.90471    47.403702   -858.50101    1697.8287   -72791.094    1.8918427    22.106431 
   12200   -897.94073    48.401386   -849.53935    1733.5621   -63820.289    1.8918427    21.401421 
   12300   -903.03448     53.15734   -849.87714    1903.9031   -65700.395    1.8918427    17.263994 
   12400   -906.13568    46.564421   -859.57126    1667.7687   -70215.133    1.8918427    23.194943 
   12500    -908.0756      45.4806     -862.595    1628.9502   -72310.956    1.8918427    20.757074 
   12600    -904.6037    52.771103    -851.8326    1890.0695   -66059.082    1.8918427     23.47966 
   12700   -901.13609    53.083473   -848.05261    1901.2575   -62626.971    1.8918427    23.406775 
   12800   -908.22296    51.359145   -856.86381    1839.4983   -70305.402    1.8918427    19.989283 
   12900   -904.92529    49.721416   -855.20387    1780.8408   -68562.922    1.8918427    21.875866 
   13000    -904.0412    53.858641   -850.18256    1929.0212    -66818.47    1.8918427    22.975478 
   13100   -899.05053      45.2001   -853.85043    1618.9036   -62851.249    1.8918427    18.282775 
   13200   -904.36231    50.757688   -853.60462    1817.9563    -68313.17    1.8918427     23.82946 
   13300   -899.11269    54.093687     -845.019    1937.4397   -64025.667    1.8918427     18.63809 
   13400   -903.67867    49.284853   -854.39382    1765.2047   -66008.307    1.8918427    20.826475 
   13500   -901.83883    49.766539   -852.07229    1782.4569   -64967.307    1.8918427    21.386218 
   13600   -898.88026    51.669658    -847.2106    1850.6198   -64250.885    1.8918427    20.638026 
   13700   -902.93591    50.699119   -852.23679    1815.8586   -67829.081    1.8918427    24.106831 
   13800   -904.20177    49.048424   -855.15334    1756.7367   -67371.542    1.8918427    20.455941 
   13900   -898.12944     53.23066   -844.89878    1906.5292   -62042.694    1.8918427    20.529455 
   14000   -900.04102    52.164368   -847.87665    1868.3385   -64098.406    1.8918427    23.478349 
   14100   -902.94934    48.554133   -854.39521     1739.033   -67066.676    1.8918427     26.97551 
   14200   -901.40575    51.514472   -849.89128    1845.0616   -65523.424    1.8918427    23.258034 
   14300   -897.65875    55.846513   -841.81223    2000.2196   -60149.307    1.8918427    20.164916 
   14400   -906.16954    52.123883   -854.04566    1866.8884   -69560.317    1.8918427    20.284745 
   14499   -901.71785    49.915816   -851.80203    1787.8035   -64137.174    1.8918427    19.574989 
Loop time of 7.98265 on 1 procs for 14499 steps with 217 atoms

Performance: 162.354 ns/day, 0.148 hours/ns, 1816.314 timesteps/s
100.0% CPU use with 1 MPI tasks x no OpenMP threads

MPI task timing breakdown:
Section |  min time  |  avg time  |  max time  |%varavg| %total
---------------------------------------------------------------
Pair    | 7.6997     | 7.6997     | 7.6997     |   0.0 | 96.45
Neigh   | 0.13262    | 0.13262    | 0.13262    |   0.0 |  1.66
Comm    | 0.063747   | 0.063747   | 0.063747   |   0.0 |  0.80
Output  | 0.0046095  | 0.0046095  | 0.0046095  |   0.0 |  0.06
Modify  | 0.063017   | 0.063017   | 0.063017   |   0.0 |  0.79
Other   |            | 0.019      |            |       |  0.24

Nlocal:    217 ave 217 max 217 min
Histogram: 1 0 0 0 0 0 0 0 0 0
Nghost:    893 ave 893 max 893 min
Histogram: 1 0 0 0 0 0 0 0 0 0
Neighs:    3629 ave 3629 max 3629 min
Histogram: 1 0 0 0 0 0 0 0 0 0
FullNghs:  7258 ave 7258 max 7258 min
Histogram: 1 0 0 0 0 0 0 0 0 0

Total # of neighbors = 7258
Ave neighs/atom = 33.447
Neighbor list builds = 240
Dangerous builds = 0
Total wall time: 0:00:07
