LAMMPS (3 Mar 2020)
Reading data file ...
  orthogonal box = (0 0 0) to (12.27 12.27 12.27)
  1 by 1 by 1 MPI processor grid
  reading atoms ...
  108 atoms
  read_data CPU = 0.000891835 secs
Reading potential file /usr/share/lammps-stable/potentials/Ag_u3.eam with DATE: 2007-06-11
Neighbor list info ...
  update every 1 steps, delay 10 steps, check yes
  max neighbors/atom: 2000, page size: 100000
  master list distance cutoff = 7.55
  ghost atom cutoff = 7.55
  binsize = 3.775, bins = 4 4 4
  2 neighbor lists, perpetual/occasional/extra = 1 1 0
  (1) pair eam, perpetual
      attributes: half, newton on
      pair build: half/bin/atomonly/newton
      stencil: half/bin/3d/newton
      bin: standard
  (2) compute rdf, occasional, copy from (1)
      attributes: half, newton on
      pair build: copy
      stencil: none
      bin: none
Setting up Verlet run ...
  Unit style    : metal
  Current step  : 0
  Time step     : 0.001
Per MPI rank memory allocation (min/avg/max) = 3.723 | 3.723 | 3.723 Mbytes
Step PotEng KinEng TotEng Temp Press Density c_msdall[4] 
       0       -307.8    4.5641757   -303.23582          330    2638.9928    10.472245            0 
     100   -304.94779    2.7811861   -302.16661     201.0859    11258.289    10.472245  0.017561337 
     200   -304.19974    4.8636243   -299.33611    351.65079    15537.939    10.472245  0.018463872 
     300   -303.50694    6.2525274   -297.25441    452.07156    18679.836    10.472245  0.019894048 
     400   -303.68194    4.8407766   -298.84117    349.99885    17244.204    10.472245  0.022644106 
     500   -303.71038    5.0607498   -298.64963    365.90341    17598.244    10.472245  0.018066937 
     600   -302.96791    3.4087743   -299.55914    246.46192    18896.798    10.472245  0.023222571 
     700   -302.97653    4.7487691   -298.22776    343.34651    19972.977    10.472245   0.02222649 
     800   -303.66707    4.9505526   -298.71652     357.9359    17570.963    10.472245  0.019220663 
     900    -303.0092    3.8941403   -299.11506    281.55496    19073.299    10.472245   0.02280779 
    1000   -303.00267    4.0671396   -298.93553    294.06319     19572.89    10.472245   0.02274691 
    1100   -303.94797    5.6151002   -298.33287    405.98416    16906.436    10.472245  0.019310964 
    1200   -303.19037    4.7590997   -298.43127    344.09344    18790.315    10.472245  0.024462347 
    1300   -303.52721    4.8691717   -298.65804    352.05188    17982.325    10.472245  0.019705775 
    1400   -303.93327    4.6402814   -299.29298    335.50261    16456.798    10.472245  0.017783107 
    1500   -303.34779    4.5067904     -298.841    325.85091    18352.963    10.472245  0.021740432 
    1600   -303.29227    5.3816044   -297.91067     389.1019    18917.877    10.472245  0.020998275 
    1700   -303.41199    4.7281685   -298.68382    341.85704    18136.851    10.472245    0.0202484 
    1800   -303.62968    3.9075285   -299.72215    282.52295     17032.36    10.472245  0.020163562 
    1900   -303.33316    4.7422287   -298.59093    342.87362    18761.001    10.472245   0.01918334 
    2000   -303.24673    4.5726568   -298.67407     330.6132    18717.372    10.472245  0.022103354 
    2100   -303.26226    4.8267013   -298.43556    348.98118    18857.258    10.472245  0.022231899 
    2200   -303.67573     5.201313   -298.47442    376.06643    17729.238    10.472245  0.018869959 
    2300   -303.52417    4.2205327   -299.30364    305.15385    17484.514    10.472245  0.020630473 
    2400    -302.9644    4.5966663   -298.36773    332.34914    20010.835    10.472245  0.020565371 
    2500   -303.19321    4.3779742   -298.81524    316.53722    18752.611    10.472245  0.021154975 
    2600   -303.37014    4.8526845   -298.51746    350.85982    18657.519    10.472245  0.019375911 
    2700   -302.98246    5.1588833   -297.82358    372.99868    20322.145    10.472245  0.021151668 
    2800   -303.14917    4.4675439   -298.68163    323.01331    18929.093    10.472245  0.021891313 
    2900   -303.49621    3.7631662   -299.73304    272.08524    17485.749    10.472245  0.018093653 
    3000   -303.74447    4.4157802   -299.32869    319.27067    16886.982    10.472245  0.019287439 
    3100    -303.0478    4.8584117   -298.18938    351.27391    19744.643    10.472245  0.021671363 
    3200   -303.39188    4.1009781   -299.29091    296.50979    17965.938    10.472245  0.019816244 
    3300   -303.78935    5.1634804   -298.62587    373.33105    17276.829    10.472245  0.018224095 
    3400   -303.35767    5.1133736    -298.2443    369.70822    18562.559    10.472245  0.021703035 
    3500   -302.91627    4.7260406   -298.19023    341.70319     19886.19    10.472245  0.023545014 
    3600   -303.40582    4.4689603   -298.93686    323.11572    18163.418    10.472245  0.020817961 
    3700   -303.80788    3.8045892   -300.00329    275.08021    16171.042    10.472245   0.01944346 
    3800   -303.65155    4.7897929   -298.86176    346.31262    17266.511    10.472245  0.020539957 
    3900   -303.26747    5.2244841   -298.04299    377.74176    19235.541    10.472245  0.022222144 
    4000   -303.04865    4.1676886   -298.88096    301.33311    19003.644    10.472245  0.021712124 
    4100    -303.5226    4.0397023    -299.4829    292.07941    17663.266    10.472245  0.019343641 
    4200   -303.66231    4.6591917   -299.00312    336.86987    17509.132    10.472245   0.01945605 
    4300   -302.83479    4.7300125   -298.10478    341.99036     20252.03    10.472245  0.022868608 
    4400   -303.29658    4.1866474   -299.10993    302.70387     18239.55    10.472245  0.022565864 
    4500   -303.41793    4.4487905   -298.96914    321.65739    18277.901    10.472245  0.021048186 
    4600   -303.13115    4.6943043   -298.43685    339.40859    19135.363    10.472245  0.023697475 
    4700   -303.32978    4.1571678   -299.17261    300.57243    18317.492    10.472245  0.024824297 
    4800   -302.93245    4.8110491   -298.12141    347.84949    20099.647    10.472245  0.021257937 
    4900     -303.474    4.3090911   -299.16491    311.55682    17741.718    10.472245  0.023845242 
    5000   -303.43964    4.9645153   -298.47513    358.94544    18375.612    10.472245  0.022822188 
    5100   -303.45501    4.7941913   -298.66081    346.63064    18344.825    10.472245  0.020914278 
    5200   -303.57975    3.9695223   -299.61023    287.00524    17131.055    10.472245  0.021288929 
    5300   -303.13032    4.2864926   -298.84382     309.9229    19302.735    10.472245  0.022525694 
    5400    -303.0118    4.5362941    -298.4755    327.98409    19746.747    10.472245   0.02348801 
    5500   -303.07426    4.0884391   -298.98582    295.60319    19280.689    10.472245  0.021591575 
    5600   -303.78981    3.9203171   -299.86949     283.4476    16792.092    10.472245  0.017461681 
    5700   -302.73017    4.1888287   -298.54134    302.86158    20537.379    10.472245  0.023061995 
    5800   -303.00217    4.7392196   -298.26295    342.65606    19821.031    10.472245  0.024866794 
    5900   -303.58301    4.5741908   -299.00882    330.72411    17558.885    10.472245   0.02031232 
    6000   -304.12833    4.2981868   -299.83014    310.76841    15740.736    10.472245  0.017259379 
    6100   -303.08678    4.4636667   -298.62311    322.73298    19307.677    10.472245  0.024079872 
    6200   -303.15639    4.9764859   -298.17991    359.81094    19543.847    10.472245  0.022825353 
    6300   -303.37603     4.272137    -299.1039    308.88496    18201.605    10.472245   0.02080482 
    6400    -303.0532    4.1125452   -298.94066    297.34612    19391.091    10.472245  0.021813306 
    6500   -302.72664    4.5669057   -298.15973    330.19738    20763.226    10.472245  0.024189201 
    6600   -303.09461    4.4156898   -298.67892    319.26414     19446.96    10.472245  0.022413683 
    6700   -303.64212     4.706084   -298.93603    340.26028    17847.935    10.472245  0.017519427 
    6800   -303.54128    4.3592324   -299.18205    315.18214    17515.283    10.472245  0.019521377 
    6900   -303.29204    4.9721775   -298.31986    359.49943    18935.665    10.472245  0.021219397 
    7000   -303.25781    5.0221162    -298.2357    363.11011      19124.6    10.472245  0.021472103 
    7100   -303.94692    4.6058509   -299.34107    333.01321     16558.35    10.472245   0.01783194 
    7200   -303.39097    4.6864372   -298.70454    338.83977    18545.332    10.472245  0.019965304 
    7300   -302.81781    4.6410757   -298.17673    335.56004    20202.925    10.472245  0.023862436 
    7400   -303.65478    4.3115242   -299.34326    311.73273    17333.005    10.472245  0.018869046 
    7500   -303.43197    3.8945945   -299.53737    281.58779    17922.864    10.472245  0.020090399 
    7600   -303.00461    4.3079212   -298.69668    311.47223    19850.863    10.472245  0.023343843 
    7700   -303.13871    4.9581568   -298.18055    358.48571    19403.592    10.472245  0.021399107 
    7800   -303.49987    4.3300073   -299.16986    313.06911    17968.666    10.472245  0.020913127 
    7900    -303.2829    4.7576792   -298.52522    343.99073    18918.047    10.472245  0.019898039 
    8000   -303.10154    4.1260521   -298.97549    298.32269     19401.41    10.472245  0.022588235 
    8100   -303.76024    4.8375494   -298.92269    349.76553      17318.5    10.472245  0.019192315 
    8200   -302.41595    4.9764096   -297.43955    359.80542    22273.537    10.472245  0.023936953 
    8300    -303.1304    4.7467686   -298.38363    343.20187     19552.81    10.472245  0.023783085 
    8400   -303.33157    4.6893355   -298.64224    339.04933     18713.82    10.472245   0.02087444 
    8500   -303.73939    4.3075686   -299.43182    311.44674    17166.847    10.472245  0.018132134 
    8600   -303.21037    4.1858123   -299.02456    302.64349    18839.521    10.472245  0.021306749 
    8700   -303.05185    4.4664905   -298.58536    322.93714    19555.701    10.472245  0.021162387 
    8800   -303.25878    4.1247312   -299.13405    298.22719    18587.139    10.472245  0.020259222 
    8900   -303.47985    4.0457351   -299.43412     292.5156    18039.414    10.472245  0.019722039 
    9000   -302.78983    4.5029506   -298.28688    325.57329    20225.384    10.472245  0.023566359 
    9100   -302.99935     4.302461   -298.69689    311.07745    19748.508    10.472245   0.02440445 
    9200   -303.43766    4.5038811   -298.93378    325.64057     18199.78    10.472245  0.020394639 
    9300   -302.59031    5.1379833   -297.45233    371.48755    21300.499    10.472245  0.023731803 
    9400   -303.17472    4.7035981   -298.47113    340.08055    19173.968    10.472245  0.024712798 
    9500   -303.90591    4.7971222   -299.10879    346.84255    16545.706    10.472245   0.01995098 
    9600   -303.98235    5.1480871   -298.83426    372.21809    16395.183    10.472245  0.020620377 
    9700   -303.52844    5.1857855   -298.34266    374.94376    17829.512    10.472245  0.023938667 
    9800   -303.19694    4.8381628   -298.35878    349.80987    19032.043    10.472245  0.023302029 
    9900   -303.73715    4.4542368   -299.28291    322.05117    16927.558    10.472245  0.019780389 
   10000   -303.78782    4.6663704   -299.12144     337.3889    16933.945    10.472245  0.019341373 
Loop time of 1.95152 on 1 procs for 10000 steps with 108 atoms

Performance: 442.733 ns/day, 0.054 hours/ns, 5124.222 timesteps/s
100.0% CPU use with 1 MPI tasks x no OpenMP threads

MPI task timing breakdown:
Section |  min time  |  avg time  |  max time  |%varavg| %total
---------------------------------------------------------------
Pair    | 1.3043     | 1.3043     | 1.3043     |   0.0 | 66.83
Neigh   | 0          | 0          | 0          |   0.0 |  0.00
Comm    | 0.04151    | 0.04151    | 0.04151    |   0.0 |  2.13
Output  | 0.0016973  | 0.0016973  | 0.0016973  |   0.0 |  0.09
Modify  | 0.59443    | 0.59443    | 0.59443    |   0.0 | 30.46
Other   |            | 0.009595   |            |       |  0.49

Nlocal:    108 ave 108 max 108 min
Histogram: 1 0 0 0 0 0 0 0 0 0
Nghost:    990 ave 990 max 990 min
Histogram: 1 0 0 0 0 0 0 0 0 0
Neighs:    4644 ave 4644 max 4644 min
Histogram: 1 0 0 0 0 0 0 0 0 0

Total # of neighbors = 4644
Ave neighs/atom = 43
Neighbor list builds = 0
Dangerous builds = 0
Total wall time: 0:00:01
