LAMMPS (3 Mar 2020)
Reading data file ...
  orthogonal box = (0 0 0) to (17.469 17.469 17.469)
  1 by 1 by 1 MPI processor grid
  reading atoms ...
  217 atoms
  read_data CPU = 0.00102838 secs
Reading potential file library.meam with DATE: 2012-06-29
Reading potential file LiSi.meam with DATE: 2020-11-07
1 atoms in group Li
Neighbor list info ...
  update every 1 steps, delay 10 steps, check yes
  max neighbors/atom: 2000, page size: 100000
  master list distance cutoff = 6
  ghost atom cutoff = 6
  binsize = 3, bins = 6 6 6
  2 neighbor lists, perpetual/occasional/extra = 2 0 0
  (1) pair meam/c, perpetual
      attributes: full, newton on
      pair build: full/bin/atomonly
      stencil: full/bin/3d
      bin: standard
  (2) pair meam/c, perpetual, half/full from (1)
      attributes: half, newton on
      pair build: halffull/newton
      stencil: none
      bin: none
Setting up Verlet run ...
  Unit style    : metal
  Current step  : 0
  Time step     : 0.0005
Per MPI rank memory allocation (min/avg/max) = 9.27 | 9.27 | 9.27 Mbytes
Step PotEng KinEng TotEng Temp Press Density c_msdli[4] 
       0   -951.06911    50.256344   -900.81276         1800    -114182.3    1.8918427            0 
     100    -914.3948    27.155555   -887.23925     972.6135   -81893.226    1.8918427   0.16326114 
     200   -911.13397    49.687439   -861.44654    1779.6239   -68429.567    1.8918427   0.38691957 
     300    -895.7344    51.059843   -844.67456    1828.7784   -57471.746    1.8918427   0.10434871 
     400   -906.35844    54.911815   -851.44662    1966.7421   -66445.773    1.8918427   0.16809414 
     500   -908.97186    47.266023   -861.70584    1692.8975   -71331.628    1.8918427   0.23790269 
     600   -899.16073    48.599213   -850.56152    1740.6476   -59478.561    1.8918427   0.34571277 
     700   -899.90214    45.176438   -854.72571    1618.0562   -60890.766    1.8918427   0.16217273 
     800   -904.39784    54.509257   -849.88858    1952.3239   -62679.082    1.8918427   0.32331639 
     900   -908.35293    49.440127   -858.91281    1770.7661   -69553.893    1.8918427   0.11730732 
    1000   -904.43591    50.893015    -853.5429    1822.8032   -64899.614    1.8918427   0.24761652 
    1100   -901.18894      46.9907   -854.19824    1683.0365   -61380.654    1.8918427   0.23621218 
    1200   -907.95136    45.173817   -862.77754    1617.9623   -69600.144    1.8918427   0.20544443 
    1300   -904.23271    50.341973   -853.89073    1803.0669   -61265.241    1.8918427  0.039219909 
    1400    -904.3553    55.038939   -849.31636    1971.2952   -64343.628    1.8918427   0.14243699 
    1500   -903.82398    45.036177    -858.7878    1613.0325   -62988.743    1.8918427   0.59022103 
    1600   -903.47547    49.870196   -853.60527    1786.1696   -63602.365    1.8918427   0.13754298 
    1700   -900.11199    46.414289    -853.6977    1662.3915   -62564.254    1.8918427   0.21177991 
    1800   -902.21997    49.454645   -852.76532     1771.286   -62563.281    1.8918427   0.15405519 
    1900    -906.0012    52.509999    -853.4912    1880.7177   -67542.152    1.8918427    0.2559161 
    2000   -903.78488    58.260154   -845.52473    2086.6674   -63021.557    1.8918427   0.10356852 
    2100   -902.88718    48.182227   -854.70495    1725.7126   -64489.374    1.8918427  0.088629254 
    2200   -904.48405    49.362833   -855.12122    1767.9977   -65517.701    1.8918427  0.036280712 
    2300   -897.98385    52.391519   -845.59233    1876.4742   -58631.955    1.8918427  0.088689764 
    2400   -906.27088    51.415773   -854.85511    1841.5265   -67669.666    1.8918427   0.13168151 
    2500   -903.47586    46.794316   -856.68155    1676.0027   -63237.762    1.8918427   0.38144687 
    2600   -902.32704     56.92237   -845.40467    2038.7529   -61502.165    1.8918427   0.20190064 
    2700   -900.63255    49.289187   -851.34336    1765.3599   -60707.586    1.8918427   0.17735917 
    2800   -902.15248    44.643597   -857.50889    1598.9717   -63110.047    1.8918427   0.30138822 
    2900   -905.12644    53.804453   -851.32199    1927.0804   -64363.869    1.8918427   0.20664541 
    3000   -901.73377    46.257775     -855.476    1656.7857   -66297.373    1.8918427    1.1625701 
    3100   -900.97558    49.375853   -851.59973     1768.464   -58512.037    1.8918427   0.98947531 
    3200   -901.92329    44.221993   -857.70129    1583.8714   -64299.882    1.8918427    1.7279599 
    3300   -905.42789    51.844868   -853.58303    1856.8952   -67619.478    1.8918427   0.66352692 
    3400   -902.10311    53.037648   -849.06546    1899.6162   -64084.842    1.8918427   0.60799702 
    3500   -904.98962    47.934295   -857.05532    1716.8326   -65984.771    1.8918427   0.10782084 
    3600   -908.98647    47.468596   -861.51787     1700.153   -70199.472    1.8918427    3.2108821 
    3700   -904.12226    51.377549   -852.74471    1840.1575   -62663.324    1.8918427    10.263406 
    3800   -903.48396    51.022259    -852.4617    1827.4323   -62947.592    1.8918427    13.941429 
    3900   -903.09255    51.079091   -852.01346    1829.4678   -63715.149    1.8918427     10.48162 
    4000   -905.90473    53.025505   -852.87923    1899.1813   -65175.078    1.8918427    5.6697111 
    4100   -905.44958    47.805973   -857.64361    1712.2366   -67121.615    1.8918427    8.7751217 
    4200   -904.47214    50.016804   -854.45534    1791.4205    -65884.49    1.8918427    3.6223026 
    4300   -898.50387    50.096304   -848.40757    1794.2679   -60950.832    1.8918427    6.5790729 
    4400   -900.39108    52.892705   -847.49838    1894.4249   -62277.489    1.8918427    5.2088254 
    4500    -901.1002    46.531002    -854.5692    1666.5718    -65687.74    1.8918427    3.2894269 
    4600   -903.94045    53.692264   -850.24819    1923.0622   -66082.681    1.8918427     9.069551 
    4700   -900.69583    48.815951   -851.87988    1748.4103   -63749.059    1.8918427      5.01198 
    4800   -903.64723    51.167162   -852.48007    1832.6222   -66151.398    1.8918427    6.2669561 
    4900   -904.95015    51.034529   -853.91562    1827.8718   -67597.563    1.8918427    4.5293492 
    5000   -904.38312    49.301138   -855.08198     1765.788   -66633.906    1.8918427    7.5198024 
    5100   -899.82527    53.272078   -846.55319    1908.0126   -62202.626    1.8918427    5.9557265 
    5200   -905.67856    50.202227   -855.47633    1798.0617   -65991.302    1.8918427    5.7088824 
    5300   -905.08958    51.644649   -853.44493     1849.724   -66159.659    1.8918427    5.7832779 
    5400   -903.14123    56.636798   -846.50443    2028.5247   -67125.985    1.8918427    4.3152107 
    5500   -904.17709    51.464625   -852.71247    1843.2762   -67635.375    1.8918427    4.3226536 
    5600   -901.84237    46.376678   -855.46569    1661.0444   -64993.367    1.8918427     9.122814 
    5700   -902.78026     51.00895   -851.77131    1826.9556   -65653.738    1.8918427    5.5039955 
    5800   -903.23461     47.70808   -855.52653    1708.7304   -66134.246    1.8918427    5.0155982 
    5900   -898.26659    54.072272   -844.19431    1936.6727   -61607.275    1.8918427    6.0959388 
    6000   -900.53521     50.20225   -850.33296    1798.0625   -65485.798    1.8918427    2.8867687 
    6100   -903.64831    49.515336   -854.13298    1773.4598   -65144.995    1.8918427    6.7394095 
    6200   -900.92586    49.180173   -851.74569    1761.4554   -66195.339    1.8918427    6.9211729 
    6300   -902.61319    51.174509   -851.43868    1832.8853   -65262.275    1.8918427    5.7873267 
    6400   -905.31662    54.364631   -850.95199    1947.1439   -67178.177    1.8918427    5.1913682 
    6500   -904.11888    45.562003   -858.55688    1631.8657   -66678.872    1.8918427    4.5442525 
    6600   -904.56218    52.542976    -852.0192    1881.8988   -67384.295    1.8918427    3.8279416 
    6700   -899.22606    48.450932   -850.77513    1735.3367   -63585.511    1.8918427    4.5689275 
    6800   -905.67751    52.360352   -853.31716    1875.3579   -67793.278    1.8918427    5.3774292 
    6900   -906.19257    49.921721   -856.27085     1788.015   -69276.663    1.8918427     4.733112 
    7000   -902.37876    50.453273   -851.92548    1807.0533   -63901.736    1.8918427    6.8946826 
    7100   -902.99666    52.709586   -850.28707    1887.8662   -66358.255    1.8918427    6.1075853 
    7200   -902.37893    45.429138    -856.9498     1627.107   -66364.828    1.8918427    4.3941389 
    7300   -906.72636    51.415425   -855.31094    1841.5141    -69879.51    1.8918427    6.1770717 
    7400    -898.8597    51.067292   -847.79241    1829.0452   -60264.251    1.8918427    6.9617656 
    7500   -898.88496    52.997925   -845.88703    1898.1935   -64702.427    1.8918427    11.144552 
    7600   -905.12617    53.399422   -851.72675    1912.5736   -65598.113    1.8918427    9.9928184 
    7700   -902.87247    45.756654   -857.11581    1638.8374   -68404.967    1.8918427     11.54579 
    7800   -898.30417    51.184527   -847.11964    1833.2441   -62697.003    1.8918427    7.2989922 
    7900   -895.26624    47.292976   -847.97326    1693.8629   -59015.751    1.8918427    11.014365 
    8000   -903.81983    51.792218   -852.02761    1855.0094   -67139.324    1.8918427    12.344778 
    8100   -908.29524    47.118411   -861.17682    1687.6106   -73717.634    1.8918427    10.643598 
    8200    -900.1272    48.406148   -851.72105    1733.7327   -64812.407    1.8918427    10.245073 
    8300   -899.86969    50.625467   -849.24422    1813.2207   -64243.721    1.8918427    13.498182 
    8400   -900.54094    48.179378   -852.36156    1725.6106   -67483.931    1.8918427    14.601037 
    8500   -903.48862     56.12461   -847.36401      2010.18   -66783.341    1.8918427    14.539911 
    8600   -906.84204    52.529633   -854.31241    1881.4209   -70580.166    1.8918427    15.544619 
    8700   -902.72953    49.280779   -853.44875    1765.0588   -69415.112    1.8918427    12.252186 
    8800   -898.32517    51.093641   -847.23153    1829.9889   -62223.277    1.8918427    14.121799 
    8900   -904.01751    49.167456   -854.85005         1761   -68253.279    1.8918427    9.2384633 
    9000   -902.43782    45.929292   -856.50853    1645.0207   -67863.695    1.8918427    4.2302114 
    9100   -903.50984    50.905024   -852.60482    1823.2333   -66961.069    1.8918427    7.0766802 
    9200   -895.05303    49.597916   -845.45512    1776.4175   -56866.326    1.8918427    7.0814661 
    9300    -901.9226    50.246004    -851.6766    1799.6296   -66937.242    1.8918427    9.1181723 
    9400   -907.15972    49.169418   -857.99031    1761.0702   -70754.849    1.8918427    6.6508247 
    9500   -899.87434    50.319319   -849.55502    1802.2555   -62236.432    1.8918427    7.7278147 
    9600    -901.3823    51.417313   -849.96499    1841.5817   -68264.903    1.8918427    4.6508621 
    9700   -903.12848    56.587505   -846.54098    2026.7592   -64049.003    1.8918427    8.1839686 
    9800   -900.01646    45.569516   -854.44695    1632.1348   -64289.681    1.8918427    5.2766347 
    9900   -904.65542    46.627839   -858.02758    1670.0401   -69307.639    1.8918427    4.0185821 
   10000   -902.73554    50.589579   -852.14596    1811.9352   -66136.313    1.8918427    5.0725843 
   10100   -900.72639     50.68552   -850.04087    1815.3715    -65355.88    1.8918427    5.6568912 
   10200   -900.78472    50.041745   -850.74298    1792.3138   -64184.772    1.8918427    8.2680861 
   10300   -908.01346    48.706083   -859.30738    1744.4753   -70296.713    1.8918427    6.8691573 
   10400   -901.96799    49.015909   -852.95208    1755.5721   -66730.031    1.8918427    7.1437275 
   10500   -898.63936    50.442035   -848.19732    1806.6508   -61787.488    1.8918427     5.011237 
   10600   -905.32051    49.050791   -856.26972    1756.8214   -68912.274    1.8918427    6.1760983 
   10700   -907.15682    51.949136   -855.20768    1860.6297   -70037.879    1.8918427     6.147495 
   10800   -901.14575    53.022448   -848.12331    1899.0718   -65392.728    1.8918427    5.9231505 
   10900   -901.81188    49.351627   -852.46025    1767.5963    -64059.78    1.8918427    6.4104493 
   11000   -904.14716     50.86059   -853.28657    1821.6419   -68891.512    1.8918427    7.3265638 
   11100   -897.85884    54.032937   -843.82591    1935.2638   -61381.757    1.8918427    6.6990585 
   11200    -903.2786    51.791042   -851.48756    1854.9673   -68790.865    1.8918427    6.2677971 
   11300   -901.79408    46.836841   -854.95724    1677.5258   -65483.775    1.8918427    7.1373038 
   11400    -900.1974    54.874211   -845.32319    1965.3952   -62872.716    1.8918427    3.5575444 
   11500   -901.31841    52.457225   -848.86119    1878.8275   -65731.054    1.8918427    3.1289279 
   11600   -904.56453    50.434989   -854.12954    1806.3984   -68982.167    1.8918427    5.6021097 
   11700   -900.37166    50.246085   -850.12557    1799.6325   -64278.466    1.8918427    6.6742191 
   11800   -900.59963    46.278414   -854.32121     1657.525   -63986.196    1.8918427    5.5607727 
   11900   -907.68447      48.7063   -858.97817     1744.483   -69962.981    1.8918427    8.8908012 
   12000   -896.84359    49.767915   -847.07568    1782.5062   -61771.799    1.8918427    8.6749601 
   12100     -901.914    53.790278   -848.12372    1926.5727   -66423.101    1.8918427    6.7613664 
   12200   -903.36692    48.377273   -854.98964    1732.6985   -68361.577    1.8918427    6.1287998 
   12300   -902.61376    52.448446   -850.16532    1878.5131    -64571.97    1.8918427    5.5879334 
   12400   -902.16442    46.915118    -855.2493    1680.3294   -66782.819    1.8918427    5.0676528 
   12500   -905.35335    46.301566   -859.05179    1658.3542   -68459.889    1.8918427    9.3175523 
   12600   -902.86672    53.176288   -849.69043    1904.5818   -67428.022    1.8918427     6.495931 
   12700   -903.30373    56.973536    -846.3302    2040.5855   -67100.119    1.8918427    4.9295993 
   12800   -906.42049     50.53657   -855.88392    1810.0367   -70537.431    1.8918427    7.1772388 
   12900   -904.77001    48.999411   -855.77059    1754.9812   -69032.396    1.8918427    3.2594283 
   13000    -903.9418    54.226237   -849.71556    1942.1872   -68079.435    1.8918427    5.4665135 
   13100   -900.50834    48.694236    -851.8141    1744.0509    -64422.26    1.8918427    2.8580196 
   13200   -905.17372    45.677829   -859.49589    1636.0142   -70861.352    1.8918427    3.4055239 
   13300   -901.95547    50.211825   -851.74364    1798.4055   -68318.389    1.8918427    5.5116509 
   13400   -905.50515    53.559589   -851.94556    1918.3102    -69958.17    1.8918427     6.178127 
   13500   -903.83501    47.466101   -856.36891    1700.0636   -70930.767    1.8918427    6.2211132 
   13600   -900.27197    50.843862   -849.42811    1821.0427   -66582.485    1.8918427    6.8476506 
   13700   -905.32192    52.079479   -853.24244    1865.2981    -71947.68    1.8918427     5.499367 
   13800   -906.74955    46.871285   -859.87827    1678.7595   -71745.089    1.8918427    6.9838857 
   13900   -903.75036      52.5379   -851.21246    1881.7171   -68363.758    1.8918427    5.0798796 
   14000   -900.83987    50.237033   -850.60284    1799.3083   -67150.081    1.8918427    9.4062337 
   14100   -900.31504    55.294326   -845.02071    1980.4422   -62927.285    1.8918427    12.049168 
   14200   -901.46387    52.569197   -848.89468     1882.838   -67620.865    1.8918427    12.463518 
   14300   -904.02368    49.950735   -854.07294    1789.0542   -67053.606    1.8918427    11.512055 
   14400     -903.862    49.179639   -854.68236    1761.4363   -65943.166    1.8918427    11.450793 
   14500   -902.24217    54.439839   -847.80233    1949.8376   -65403.425    1.8918427    12.288325 
   14600   -894.62391    52.593664   -842.03025    1883.7143    -57619.88    1.8918427    13.881603 
   14700   -901.57719    48.154541   -853.42265     1724.721   -63736.896    1.8918427    14.319316 
   14800   -907.96445    50.852704   -857.11175    1821.3594   -70824.602    1.8918427    14.948406 
   14900    -904.0929    49.756446   -854.33645    1782.0955    -66509.31    1.8918427    14.732045 
   15000   -900.38444    49.732134   -850.65231    1781.2247   -66223.506    1.8918427    16.296272 
   15100   -901.81564    51.395416   -850.42022    1840.7974    -65549.29    1.8918427    18.874698 
   15200   -902.67403     45.33792   -857.33611    1623.8399   -68005.068    1.8918427    20.645586 
   15300    -901.3103    49.599655   -851.71065    1776.4798   -66509.566    1.8918427    23.727385 
   15400   -902.75574    51.180673   -851.57507    1833.1061   -66007.621    1.8918427    31.702895 
   15500   -899.23063    52.178742   -847.05189    1868.8533   -65313.255    1.8918427    32.174129 
   15600   -901.30751    49.401844   -851.90567    1769.3949   -66234.868    1.8918427    33.434158 
   15700    -908.5102    55.617244   -852.89295     1992.008   -70975.152    1.8918427    43.614193 
   15800    -902.6325    44.366011   -858.26649    1589.0296   -68633.521    1.8918427    41.956451 
   15900   -901.66028    52.530579    -849.1297    1881.4548   -67025.821    1.8918427    47.181392 
   16000   -904.74573    50.162017   -854.58372    1796.6215   -67500.772    1.8918427    41.256083 
   16100   -906.73677    49.474483   -857.26228    1771.9966   -69705.821    1.8918427    48.110133 
   16200    -902.8023    48.667131   -854.13517    1743.0801   -66563.963    1.8918427    36.360607 
   16300   -901.87329    55.916409   -845.95688     2002.723    -66036.65    1.8918427    35.688687 
   16400   -901.32892    48.342335   -852.98658    1731.4471   -65634.364    1.8918427    40.848102 
   16500   -902.10306    49.972604   -852.13046    1789.8374   -66380.714    1.8918427    45.092358 
   16600   -896.24931    50.886518   -845.36279    1822.5705   -60300.828    1.8918427    46.029134 
   16700   -903.48243    47.698692   -855.78373    1708.3942   -65939.794    1.8918427    61.265847 
   16800   -903.91053    48.130442   -855.78009    1723.8579   -66255.696    1.8918427    59.962559 
   16900     -898.398    50.355385   -848.04262    1803.5473   -64942.141    1.8918427    59.493136 
   17000   -903.29905    54.284837   -849.01422     1944.286   -65530.215    1.8918427    61.006964 
   17100   -899.55972    48.110362   -851.44936    1723.1387   -65439.458    1.8918427    63.619298 
   17200   -904.60712    56.832978   -847.77414    2035.5512   -65099.069    1.8918427    52.243106 
   17300   -904.01321    47.797623   -856.21559    1711.9375   -65605.804    1.8918427      58.5696 
   17400   -903.94119    53.131189      -850.81    1902.9665   -64646.228    1.8918427    54.274143 
   17500   -908.71382    48.000499   -860.71332    1719.2038   -71393.574    1.8918427    60.542198 
   17600   -903.94585    50.741054   -853.20479    1817.3605   -65122.361    1.8918427    63.324611 
   17700   -905.30168    50.120571   -855.18111    1795.1371   -68468.473    1.8918427    64.064823 
   17800   -900.92096    52.438081   -848.48288    1878.1419   -60672.762    1.8918427    62.437051 
   17900    -903.7763    52.909924   -850.86638    1895.0416   -67891.352    1.8918427    64.114252 
   18000   -905.56998    50.256603   -855.31338    1800.0093   -67433.953    1.8918427    70.223583 
   18100   -901.07019    50.261544   -850.80865    1800.1862   -65003.448    1.8918427    69.433822 
   18200   -901.14335    53.276716   -847.86663    1908.1788   -62161.064    1.8918427    72.341253 
   18300   -903.74674    48.108735   -855.63801    1723.0804   -66904.197    1.8918427    67.182972 
   18400   -900.73399    50.295365   -850.43863    1801.3976   -64114.871    1.8918427    62.878036 
   18500   -898.35279    51.362381   -846.99041    1839.6142   -61629.579    1.8918427    59.728657 
   18600    -901.0399    49.053884   -851.98602    1756.9322   -61097.833    1.8918427    62.067125 
   18700    -906.2417    48.528998    -857.7127    1738.1327   -68521.415    1.8918427    70.369035 
   18800   -905.24299    47.496669   -857.74632    1701.1585   -69343.895    1.8918427    68.761757 
   18900   -902.30964    51.071887   -851.23775    1829.2098   -62831.562    1.8918427    64.572057 
   19000   -906.23746    51.756608   -854.48086     1853.734   -69432.306    1.8918427    70.628135 
   19100   -905.80594    46.921393   -858.88455    1680.5541   -70061.561    1.8918427    66.485537 
   19200   -903.49428    50.073491   -853.42079    1793.4508   -66659.312    1.8918427    70.463053 
   19300   -902.32908    47.933176   -854.39591    1716.7925   -64452.502    1.8918427    71.413254 
   19400   -902.51937    52.807439   -849.71193     1891.371   -63719.578    1.8918427     69.13081 
   19500    -904.8307    49.092719   -855.73799    1758.3231   -68800.538    1.8918427     65.31196 
   19600   -904.68501     56.26412   -848.42089    2015.1767     -63544.2    1.8918427    64.813992 
   19700   -903.98293    49.730678   -854.25225    1781.1725   -65435.806    1.8918427    67.408233 
   19800   -905.75708    47.314981    -858.4421     1694.651   -69140.459    1.8918427    62.328899 
   19900   -905.45369    50.296221   -855.15747    1801.4282   -69156.011    1.8918427    67.085003 
   20000   -904.78906    51.030622   -853.75844    1827.7318   -68523.566    1.8918427    70.864994 
   20100    -902.3375    46.749332   -855.58817    1674.3915   -66696.439    1.8918427     70.49922 
   20200    -900.0123    51.042617   -848.96968    1828.1614   -62447.402    1.8918427     63.29505 
   20300    -902.9276    44.047854   -858.87975    1577.6344    -68836.58    1.8918427    61.728745 
   20400     -905.262    48.842853   -856.41915    1749.3739   -67812.888    1.8918427    68.589801 
   20500   -902.97333    49.059659   -853.91367    1757.1391   -65455.695    1.8918427    65.403004 
   20600   -900.82036    48.244292   -852.57607    1727.9356   -65221.886    1.8918427    64.249062 
   20700   -904.46346    53.941252   -850.52221      1931.98   -67693.635    1.8918427    63.426107 
   20800   -906.95549    49.643731   -857.31176    1778.0584   -71202.926    1.8918427    72.658011 
   20900   -903.21654    50.343048   -852.87349    1803.1054   -65212.093    1.8918427    74.051913 
   21000   -897.30458    51.743718   -845.56086    1853.2723   -64101.308    1.8918427    65.028973 
   21100    -898.8092    54.989198      -843.82    1969.5137   -63043.179    1.8918427    65.160771 
   21200   -902.22211    48.409259   -853.81285    1733.8441   -64791.768    1.8918427    67.563062 
   21300   -906.05015    45.357614   -860.69253    1624.5453   -70157.248    1.8918427    71.009448 
   21400   -899.15149     48.38917   -850.76232    1733.1246   -63400.652    1.8918427    70.010602 
   21500   -899.88059    55.341204   -844.53939    1982.1212   -63382.227    1.8918427    68.296015 
   21600   -904.38081    49.802065   -854.57875    1783.7294   -68699.135    1.8918427    68.181477 
   21700   -906.14986    48.722318   -857.42755    1745.0567   -70221.869    1.8918427    67.835191 
   21800    -900.1976    52.000525   -848.19707    1862.4702    -65944.97    1.8918427    68.020322 
   21900   -897.86809    54.944442   -842.92365    1967.9107   -58805.213    1.8918427    61.198743 
   22000   -905.94623     53.64178   -852.30445     1921.254   -71649.707    1.8918427     63.90907 
   22100   -906.53002    48.253287   -858.27673    1728.2578   -69610.043    1.8918427    65.532675 
   22200   -902.43113    51.131206   -851.29992    1831.3344   -66862.499    1.8918427    70.325385 
   22300    -901.2174    51.986214   -849.23119    1861.9576   -65180.313    1.8918427     70.09173 
   22400   -908.02989    49.825614   -858.20428    1784.5728   -71626.787    1.8918427    68.523626 
   22500   -906.28181    48.429197   -857.85262    1734.5582   -68182.063    1.8918427    66.164254 
   22600   -902.21027     49.10551   -853.10476    1758.7813   -66996.631    1.8918427    70.358512 
   22700   -900.47769    53.361693     -847.116    1911.2223   -63271.112    1.8918427     69.90826 
   22800    -906.5662    48.135099    -858.4311    1724.0247   -71078.653    1.8918427    68.636521 
   22900   -905.32039    50.644185    -854.6762    1813.8911   -66604.566    1.8918427    66.937428 
   23000   -896.73277    52.815942   -843.91683    1891.6755   -60961.107    1.8918427    71.328037 
   23100   -900.25066    54.409624   -845.84104    1948.7554   -64194.584    1.8918427    63.676653 
   23200   -901.85839    48.261502   -853.59689     1728.552   -65731.452    1.8918427    69.652161 
   23300   -904.61927    48.878169    -855.7411    1750.6388   -66933.276    1.8918427    71.035595 
   23400   -907.08459    48.030153   -859.05443    1720.2659   -71359.844    1.8918427    71.873363 
   23500   -901.81868    52.418988    -849.3997    1877.4581   -63183.119    1.8918427    71.213858 
   23600   -901.91971    47.983009   -853.93671    1718.5774   -66328.353    1.8918427    65.991929 
   23700   -907.34059    53.771032   -853.56955    1925.8834   -69047.561    1.8918427    72.902899 
   23800   -899.34691    48.587511    -850.7594    1740.2284   -62550.674    1.8918427    67.178918 
   23900   -903.62904    47.640233   -855.98881    1706.3004   -67913.268    1.8918427    69.457582 
   24000    -903.5119    54.209388   -849.30251    1941.5837   -66076.251    1.8918427     65.53661 
   24100   -908.61709    49.290716   -859.32638    1765.4147   -73132.988    1.8918427     67.85844 
   24200   -909.23589     49.99579    -859.2401    1790.6679   -71946.342    1.8918427    66.346239 
   24300   -897.17004     46.02676   -851.14328    1648.5116   -62185.418    1.8918427    61.263273 
   24400   -902.06226    52.077288   -849.98498    1865.2196   -64979.871    1.8918427    64.824457 
   24500   -903.28605    47.641532   -855.64452    1706.3469   -65622.245    1.8918427    63.137947 
   24600   -905.59174    50.047244   -855.54449    1792.5108   -70346.469    1.8918427    69.408736 
   24700   -901.49485    51.850381   -849.64447    1857.0926   -62303.947    1.8918427    67.214654 
   24800   -902.81173    49.276338   -853.53539    1764.8997   -66878.347    1.8918427    68.584747 
   24900   -910.74451    53.802658   -856.94185    1927.0161   -72245.361    1.8918427    66.150395 
   25000   -902.10868    51.605257   -850.50342    1848.3132   -65861.566    1.8918427    66.690383 
   25100   -900.04767    50.110098   -849.93757     1794.762   -62621.153    1.8918427    65.212146 
   25200   -903.19504    50.972546    -852.2225    1825.6518   -68202.023    1.8918427    65.493046 
   25300   -909.20059    50.570854   -858.62973    1811.2646   -74498.595    1.8918427    68.447407 
   25400   -905.55527    50.123414   -855.43186    1795.2389   -68638.141    1.8918427    69.716503 
   25500   -899.45065    50.165681   -849.28497    1796.7528   -64759.534    1.8918427    71.029387 
   25600   -903.23373    56.568378   -846.66535    2026.0741   -63576.852    1.8918427    75.127041 
   25700   -901.30702    46.615738   -854.69128    1669.6067   -66596.937    1.8918427    72.407683 
   25800   -899.31825    50.390142    -848.9281    1804.7921   -62298.008    1.8918427    76.606075 
   25900   -902.65592    46.425444   -856.23048     1662.791   -70996.604    1.8918427    74.116805 
   26000   -904.52878    52.824596   -851.70418    1891.9855   -67298.968    1.8918427     62.93668 
   26100   -904.90236    50.700635   -854.20172    1815.9129   -69792.765    1.8918427    66.510116 
   26200   -896.42621    51.747026   -844.67918    1853.3908   -59118.406    1.8918427    69.728783 
   26300    -900.8022    49.194848   -851.60735     1761.981   -66677.708    1.8918427    73.844219 
   26400   -908.71431    46.293247   -862.42106    1658.0562   -74426.811    1.8918427    75.027258 
   26500   -904.29288    48.427977    -855.8649    1734.5145   -69614.158    1.8918427    75.023934 
   26600   -899.92942    49.761311   -850.16811    1782.2697   -64559.773    1.8918427    84.968725 
   26700   -903.01336    51.379206   -851.63415    1840.2168   -69667.078    1.8918427     84.26775 
   26800   -904.97732    50.543753   -854.43356    1810.2939   -70489.086    1.8918427     85.76894 
   26900   -902.93782    51.487783   -851.45004    1844.1057   -70392.728    1.8918427     76.80207 
   27000   -905.14436    44.598738   -860.54562    1597.3651     -72150.8    1.8918427    76.936297 
   27100   -903.52845    51.654675   -851.87377    1850.0831   -68058.931    1.8918427    83.793487 
   27200   -900.66135    51.876101   -848.78525    1858.0138   -65922.057    1.8918427    82.062952 
   27300   -900.21565     47.19249   -853.02316    1690.2638   -67765.183    1.8918427     78.50422 
   27400   -901.04738    55.260862   -845.78652    1979.2437   -63852.583    1.8918427    78.784833 
   27500   -900.20761    48.868874   -851.33873    1750.3058   -68862.597    1.8918427    82.021277 
   27600   -902.52117    57.846894   -844.67427     2071.866   -68091.895    1.8918427    82.322989 
   27700   -902.96623    47.871494   -855.09474    1714.5833   -70650.697    1.8918427    79.071538 
   27800    -901.5625    50.492739   -851.06976    1808.4668   -67368.414    1.8918427    82.854954 
   27900   -898.05026    54.194271   -843.85599    1941.0422   -65137.849    1.8918427    83.022828 
   28000   -903.44771    50.477161   -852.97055    1807.9088   -69251.866    1.8918427    94.486757 
   28100   -900.78905    44.500728   -856.28832    1593.8547   -67161.447    1.8918427    105.74159 
   28200   -899.23277    50.755949   -848.47682     1817.894   -62858.444    1.8918427    80.244363 
   28300   -900.95203    45.579088   -855.37294    1632.4776    -68587.88    1.8918427    78.927122 
   28400   -901.54587    52.280572    -849.2653    1872.5005   -66745.378    1.8918427    86.950601 
   28500   -902.32359    50.788367   -851.53522    1819.0551     -69322.8    1.8918427    92.913902 
   28600   -900.92363    53.163889   -847.75974    1904.1377   -65420.886    1.8918427    98.160393 
   28700   -898.86601    53.933659   -844.93235    1931.7081   -63616.247    1.8918427    98.208649 
   28800   -900.99265    47.342325   -853.65033    1695.6304   -68951.377    1.8918427    90.869585 
   28900   -901.56544    51.534298   -850.03114    1845.7717   -66545.981    1.8918427    90.681424 
   29000    -906.0662    47.107222   -858.95897    1687.2099   -70111.216    1.8918427    99.516694 
   29100   -901.70444    49.929945   -851.77449    1788.3095   -65163.959    1.8918427    96.210841 
   29200   -899.12218    50.562392   -848.55979    1810.9615   -64388.702    1.8918427    97.123436 
   29300   -902.55009    46.350587    -856.1995    1660.1099   -70347.174    1.8918427    89.406768 
   29400   -903.46465    49.186906   -854.27774    1761.6966   -70071.361    1.8918427    86.019213 
   29500   -899.24983    52.941066   -846.30876     1896.157   -61521.147    1.8918427    91.737429 
   29600   -898.41516    47.487353    -850.9278    1700.8248   -63787.963    1.8918427    93.108318 
   29700   -904.72991    49.452792   -855.27712    1771.2197   -69535.072    1.8918427    91.390994 
   29800    -906.6295    48.214564   -858.41494    1726.8708   -70839.535    1.8918427    95.155844 
   29900   -899.78001    50.390476   -849.38953    1804.8041   -64284.433    1.8918427    87.652223 
   30000    -902.8168     49.19217   -853.62463    1761.8851    -67123.52    1.8918427    86.026816 
   30001   -902.94317    49.256724   -853.68644    1764.1972   -66781.098    1.8918427    86.070626 
Loop time of 16.2631 on 1 procs for 30001 steps with 217 atoms

Performance: 79.692 ns/day, 0.301 hours/ns, 1844.731 timesteps/s
100.0% CPU use with 1 MPI tasks x no OpenMP threads

MPI task timing breakdown:
Section |  min time  |  avg time  |  max time  |%varavg| %total
---------------------------------------------------------------
Pair    | 15.839     | 15.839     | 15.839     |   0.0 | 97.39
Neigh   | 0.12426    | 0.12426    | 0.12426    |   0.0 |  0.76
Comm    | 0.12778    | 0.12778    | 0.12778    |   0.0 |  0.79
Output  | 0.0088379  | 0.0088379  | 0.0088379  |   0.0 |  0.05
Modify  | 0.12403    | 0.12403    | 0.12403    |   0.0 |  0.76
Other   |            | 0.03924    |            |       |  0.24

Nlocal:    217 ave 217 max 217 min
Histogram: 1 0 0 0 0 0 0 0 0 0
Nghost:    901 ave 901 max 901 min
Histogram: 1 0 0 0 0 0 0 0 0 0
Neighs:    3639 ave 3639 max 3639 min
Histogram: 1 0 0 0 0 0 0 0 0 0
FullNghs:  7278 ave 7278 max 7278 min
Histogram: 1 0 0 0 0 0 0 0 0 0

Total # of neighbors = 7278
Ave neighs/atom = 33.5392
Neighbor list builds = 227
Dangerous builds = 0
Total wall time: 0:00:16
