LAMMPS (3 Mar 2020)
Reading data file ...
  orthogonal box = (0 0 0) to (16.36 16.36 16.36)
  1 by 1 by 1 MPI processor grid
  reading atoms ...
  256 atoms
  read_data CPU = 0.0215566 secs
Reading potential file /usr/share/lammps-stable/potentials/Ag_u3.eam with DATE: 2007-06-11
Neighbor list info ...
  update every 1 steps, delay 10 steps, check yes
  max neighbors/atom: 2000, page size: 100000
  master list distance cutoff = 7.55
  ghost atom cutoff = 7.55
  binsize = 3.775, bins = 5 5 5
  2 neighbor lists, perpetual/occasional/extra = 1 1 0
  (1) pair eam, perpetual
      attributes: half, newton on
      pair build: half/bin/atomonly/newton
      stencil: half/bin/3d/newton
      bin: standard
  (2) compute rdf, occasional, copy from (1)
      attributes: half, newton on
      pair build: copy
      stencil: none
      bin: none
Setting up Verlet run ...
  Unit style    : metal
  Current step  : 0
  Time step     : 0.005
Per MPI rank memory allocation (min/avg/max) = 3.744 | 3.744 | 3.744 Mbytes
Step PotEng KinEng TotEng Temp Press Density c_msdall[4] 
       0       -729.6     26.36907   -703.23093          800     6432.208    10.472245            0 
     100   -713.88615    13.458029   -700.42812    408.29743   -8160.1159    10.110765  0.044145435 
     200    -713.2868    15.306257   -697.98054    464.37004   -3787.9886     10.14176  0.048215533 
     300   -713.19037    17.657254   -695.53311    535.69594    5515.8074    10.231777  0.042154662 
     400   -709.84433    16.529601   -693.31473    501.48453   -283.72573    10.118179  0.055101355 
     500    -711.0215    19.975695    -691.0458    606.03412   -8565.0301    10.044938  0.061384421 
     600   -708.38739    19.539298   -688.84809    592.79447    2843.3859    10.115905  0.058362809 
     700   -707.70143    21.036058   -686.66537    638.20402   -354.44302    10.071765   0.06826406 
     800   -705.39328    20.874468   -684.51882    633.30161   -923.13749    10.033041  0.079726513 
     900   -705.49107    23.152614   -682.33846    702.41731    2098.0138    10.062048  0.074856264 
    1000   -703.38056    23.105991   -680.27456    701.00284   -1312.5938    9.9903277  0.076940788 
    1100   -702.95783    24.688436   -678.26939    749.01196    882.86848    10.001936  0.089754886 
    1200   -700.89144    24.776331   -676.11511    751.67859    3320.3458    9.9877555   0.09132512 
    1300   -701.00134    26.593243    -674.4081     806.8011   -1477.9865     9.941055  0.095649462 
    1400    -700.2183    27.191877   -673.02643     824.9628    3692.6663    9.9822142  0.094599679 
    1500   -698.24678    25.926494   -672.32028    786.57289    1434.1207    9.9171701   0.11017847 
    1600   -695.98166     29.01441   -666.96725    880.25585    1266.6084    9.8801277   0.12398587 
    1700     -698.874     26.75443   -672.11957    811.69128   -1022.7845    9.9119319   0.11261155 
    1800   -700.23108    27.203284   -673.02779    825.30887    2785.3026     9.975841  0.099386551 
    1900   -699.42675    24.634943   -674.79181    747.38906   -1165.7399    9.9194234   0.10893103 
    2000   -701.55565    26.769299   -674.78635    812.14241    4859.7938    10.018928  0.088258219 
    2100   -698.98048    29.182971   -669.79751    885.36976   -5549.9662    9.8500235   0.11421126 
    2200   -699.48817    26.512223   -672.97595    804.34306    73.526155    9.9297558  0.094959225 
    2300   -698.67949    24.086043   -674.59345    730.73622   -2923.4912    9.8917226   0.11427725 
    2400   -697.76492    27.097285   -670.66764    822.09303    7486.0857    9.9901535  0.098993602 
    2500    -699.5513    27.777074   -671.77422    842.71686   -2968.5507    9.9004933  0.095977602 
    2600   -699.64611    25.220085   -674.42603    765.14145   -5400.9475    9.8864578  0.098091113 
    2700    -700.1995     27.93345   -672.26605    847.46108    968.42257    9.9455557  0.098677003 
    2800   -698.45276    29.420045   -669.03272    892.56225   -3532.9704    9.8713985   0.11558579 
    2900   -699.85336    25.217636   -674.63572    765.06715    2342.4743    9.9691784  0.093319182 
    3000   -700.10539    26.532904   -673.57248     804.9705   -1891.0342     9.927896  0.099355081 
    3100   -699.25198    28.063959   -671.18802    851.42053   -535.05926    9.9135261  0.095550099 
    3200   -699.35579    24.600624   -674.75516    746.34787    2860.9072    9.9629742  0.095280321 
    3300   -697.90071    22.790382   -675.11033    691.42772    5196.7574    9.9737031  0.095219509 
    3400   -700.98766    28.421497   -672.56616    862.26771   -4009.5055    9.9101241  0.090834432 
    3500   -701.09344    27.564825   -673.52862    836.27753   -4475.8951    9.8993674  0.092840224 
    3600    -702.5784    25.821421   -676.75698    783.38511    6707.3386    10.050614  0.080238845 
    3700   -697.83917    25.200498   -672.63867    764.54721   -6540.5902    9.8441643   0.11646399 
    3800   -698.81957    25.836077   -672.98349    783.82977     3874.901     9.973317   0.10004777 
    3900   -700.48239    23.718155   -676.76423    719.57503    2072.4734    9.9746254   0.09650328 
    4000   -698.76906    26.603581   -672.16548    807.11475    1431.1647    9.9363296   0.10754721 
    4100   -699.64155    26.667445    -672.9741    809.05229   -3218.3941    9.9075601   0.11463457 
    4200   -701.55997    25.507414   -676.05256    773.85859    1282.7463    9.9850909  0.093720017 
    4300   -700.83301    29.204787   -671.62823    886.03161   -4953.8383    9.8939131  0.099952339 
    4400   -700.33157    27.750921   -672.58065    841.92341   -3238.8098    9.9063511   0.10605454 
    4500   -699.83939    24.235414   -675.60397    735.26792   -717.42042    9.9341233   0.10354642 
    4600    -699.6114    27.890857   -671.72055    846.16885   -944.15561    9.9152716   0.10871162 
    4700   -697.95193    26.814747   -671.13718    813.52121    -1024.746    9.8978286   0.11141137 
    4800   -700.57417    25.525537   -675.04864    774.40841   -1945.6545    9.9304902  0.093654971 
    4900   -699.96087    26.374148   -673.58672    800.15408    269.80661    9.9465603   0.09230635 
    5000   -697.76616     27.72625   -670.03991    841.17491    2150.2004    9.9270159  0.098369541 
    5100   -700.82925    25.992219   -674.83703    788.56688   -3382.4422    9.9159336  0.098426918 
    5200   -699.36632    25.795066   -673.57125    782.58556    5148.8479    9.9845962  0.087813312 
    5300   -699.14477    28.649695   -670.49508    869.19092   -4339.4182    9.8658885   0.10447414 
    5400   -700.98356    25.927207   -675.05636    786.59451   -2118.7722    9.9339389    0.1017299 
    5500   -701.04156    26.526728   -674.51484    804.78315    4977.9683    10.004611  0.092552338 
    5600    -699.8759    27.553163   -672.32274     835.9237   -9941.0767    9.8373317   0.10418322 
    5700   -701.59218    27.161394   -674.43079    824.03801   -1488.1901    9.9500348  0.088430374 
    5800   -701.59839    25.168208   -676.43018    763.56758    6667.8275    10.042516  0.086254142 
    5900   -698.04776    24.832518   -673.21524    753.38321   -3611.8386     9.875971   0.10547793 
    6000   -701.55644    28.741264   -672.81518    871.96899    4373.1446     10.00593  0.084035277 
    6100   -701.52399    24.157054   -677.36694    732.89059   -4184.6828    9.9196934  0.094430713 
    6200   -699.07361    25.354463   -673.71915     769.2183    3607.0609    9.9528244  0.096780338 
    6300   -699.03876    26.138524   -672.90023    793.00558    1521.7594    9.9368062   0.10063582 
    6400   -700.26001    25.125574   -675.13444    762.27413    1392.7872    9.9627198  0.090389552 
    6500   -701.44188    25.022466   -676.41941    759.14597    1803.5659    9.9821548  0.084511828 
    6600   -698.62046    27.131827   -671.48864    823.14098   -6227.8637    9.8448322   0.10612764 
    6700    -698.1462    24.746193       -673.4    750.76425    4189.6874    9.9578234  0.096841889 
    6800    -701.3453    26.189858   -675.15544    794.56299    67.349848    9.9641065  0.091972914 
    6900   -697.51628    27.270819   -670.24546     827.3578    2249.0103     9.907351    0.1055534 
    7000   -699.59892    27.443248   -672.15567    832.58904    1933.1032    9.9478848  0.098282744 
    7100   -700.82646    26.542922   -674.28354    805.27444   -5643.9764    9.8917482    0.1014254 
    7200   -700.78886     27.47934   -673.30952    833.68404    6563.8123    10.017893   0.08868365 
    7300   -695.59808     26.70227   -668.89581    810.10883    -1942.747    9.8452632   0.12040273 
    7400   -697.76951     24.24143   -673.52808    735.45043    2274.7422    9.9382429   0.11064232 
    7500   -700.66232    26.993289   -673.66903    818.93793    885.51733     9.963943   0.10548083 
    7600   -697.67781    27.486876   -670.19093    833.91265   -1218.6601    9.8863887   0.11079536 
    7700    -701.1989    28.914875   -672.28402    877.23612   -5558.5058    9.8978126  0.093115399 
    7800   -701.02873    26.594306   -674.43443    806.83334    1500.5003    9.9707425  0.087220406 
    7900   -699.32812    26.100596   -673.22752    791.85489   -1783.6923    9.9113423   0.10455657 
    8000   -696.84745    27.826225   -669.02123      844.208     1652.793    9.9005088   0.11183597 
    8100   -699.60064    25.878521   -673.72212    785.11746    2241.9421    9.9639915  0.099174613 
    8200   -698.71624    24.903767   -673.81247    755.54481   -2228.1819    9.9024511   0.10499433 
    8300   -699.18878    26.917456   -672.27132    816.63727    10915.507    10.047827  0.097049213 
    8400   -695.98485    25.566935   -670.41791    775.66438    658.94749    9.8762302     0.129219 
    8500    -700.1763    24.295566   -675.88073    737.09284    683.72668    9.9507964  0.097378058 
    8600   -701.35667    26.971045   -674.38562    818.26307    3228.7576     9.997444   0.08957431 
    8700   -698.71386    26.461566    -672.2523    802.80622   -6732.4437    9.8397763   0.11660066 
    8800   -699.58608    29.602296   -669.98379    898.09149    2149.9998    9.9528326  0.094197724 
    8900   -700.01738    24.954062   -675.06332    757.07067   -5371.1613    9.8956691   0.11746496 
    9000   -698.93694    25.302129   -673.63481    767.63055    4698.1184    9.9710674    0.1135217 
    9100   -697.05073    25.709921   -671.34081    780.00236    5801.1565    9.9483218   0.11216445 
    9200   -700.90008    24.578837   -676.32124     745.6869   -2155.2214     9.935538  0.091785434 
    9300   -699.91982    25.671725   -674.24809    778.84356    3635.8975    9.9797587  0.095134742 
    9400   -699.35917     27.82686   -671.53231    844.22728   -5912.8028    9.8583498  0.097409343 
    9500   -700.80965    25.470611   -675.33904    772.74204   -3990.7607    9.9123362  0.088576066 
    9600   -701.89893    26.857808   -675.04112    814.82763    4946.4098    10.022224  0.084142236 
    9700   -699.76646    28.700578   -671.06589    870.73464   -5703.1426    9.8763203   0.10772222 
    9800   -700.28495    25.589549    -674.6954    776.35046   -3475.0149      9.91321   0.10153698 
    9900   -700.88803    26.464962   -674.42306    802.90923    3251.6698    9.9949661   0.09170518 
   10000   -696.47823     26.13954   -670.33869    793.03641   -2602.8895    9.8500756   0.11437533 
Loop time of 6.88172 on 1 procs for 10000 steps with 256 atoms

Performance: 627.750 ns/day, 0.038 hours/ns, 1453.125 timesteps/s
100.0% CPU use with 1 MPI tasks x no OpenMP threads

MPI task timing breakdown:
Section |  min time  |  avg time  |  max time  |%varavg| %total
---------------------------------------------------------------
Pair    | 4.263      | 4.263      | 4.263      |   0.0 | 61.95
Neigh   | 0.10514    | 0.10514    | 0.10514    |   0.0 |  1.53
Comm    | 0.0678     | 0.0678     | 0.0678     |   0.0 |  0.99
Output  | 0.0030476  | 0.0030476  | 0.0030476  |   0.0 |  0.04
Modify  | 2.4255     | 2.4255     | 2.4255     |   0.0 | 35.25
Other   |            | 0.01726    |            |       |  0.25

Nlocal:    256 ave 256 max 256 min
Histogram: 1 0 0 0 0 0 0 0 0 0
Nghost:    1431 ave 1431 max 1431 min
Histogram: 1 0 0 0 0 0 0 0 0 0
Neighs:    11807 ave 11807 max 11807 min
Histogram: 1 0 0 0 0 0 0 0 0 0

Total # of neighbors = 11807
Ave neighs/atom = 46.1211
Neighbor list builds = 190
Dangerous builds = 0
Total wall time: 0:00:07
