LAMMPS (3 Mar 2020)
Reading data file ...
  orthogonal box = (0 0 0) to (16.36 16.36 16.36)
  1 by 1 by 1 MPI processor grid
  reading atoms ...
  256 atoms
  read_data CPU = 0.000987706 secs
Reading potential file /usr/share/lammps-stable/potentials/Ag_u3.eam with DATE: 2007-06-11
Neighbor list info ...
  update every 1 steps, delay 10 steps, check yes
  max neighbors/atom: 2000, page size: 100000
  master list distance cutoff = 7.55
  ghost atom cutoff = 7.55
  binsize = 3.775, bins = 5 5 5
  2 neighbor lists, perpetual/occasional/extra = 1 1 0
  (1) pair eam, perpetual
      attributes: half, newton on
      pair build: half/bin/atomonly/newton
      stencil: half/bin/3d/newton
      bin: standard
  (2) compute rdf, occasional, copy from (1)
      attributes: half, newton on
      pair build: copy
      stencil: none
      bin: none
Setting up Verlet run ...
  Unit style    : metal
  Current step  : 0
  Time step     : 0.001
Per MPI rank memory allocation (min/avg/max) = 3.744 | 3.744 | 3.744 Mbytes
Step PotEng KinEng TotEng Temp Press Density c_msdall[4] 
       0       -729.6    45.486645   -684.11336         1380    11095.601    10.472245            0 
     100   -702.27158    28.219383    -674.0522    856.13586    46150.736    10.472245   0.08014998 
     200   -691.51972    40.723224   -650.79649    1235.4846    65123.102    10.472245   0.10635832 
     300   -679.05553    47.907774   -631.14775    1453.4536    82180.982    10.472245   0.14146173 
     400    -676.4804     46.21767   -630.26273    1402.1783    86008.007    10.472245   0.13709927 
     500   -688.28615    44.268313   -644.01783    1343.0375    69635.262    10.472245  0.099651679 
     600   -689.05189     43.33043   -645.72146    1314.5835    68679.006    10.472245  0.091454358 
     700   -685.16432    50.128085   -635.03624    1520.8147    75723.492    10.472245   0.10268562 
     800   -682.46165    43.181373   -639.28028    1310.0613    77361.273    10.472245   0.12532203 
     900   -686.24216    48.156207   -638.08596    1460.9907    73245.072    10.472245   0.12739417 
    1000    -682.8024    47.160972   -635.64143    1430.7967    78898.113    10.472245   0.12932215 
    1100   -684.13592    47.908072   -636.22785    1453.4626     76901.91    10.472245   0.10680417 
    1200   -684.56706     43.01704   -641.55002    1305.0757    74912.476    10.472245   0.10699558 
    1300   -681.99855    43.349319   -638.64923    1315.1566    78833.432    10.472245   0.11823307 
    1400   -679.64414     45.76554    -633.8786    1388.4613    82693.992    10.472245   0.12811724 
    1500   -687.30473    46.327364   -640.97736    1405.5062    72232.602    10.472245    0.1075581 
    1600   -686.62316     45.68875   -640.93441    1386.1316    73393.028    10.472245  0.097419247 
    1700   -681.01784    50.387676   -630.63016    1528.6903    81551.802    10.472245   0.11416005 
    1800   -682.42908    46.811468   -635.61761    1420.1932    79081.479    10.472245   0.12040782 
    1900   -685.00389    45.271643   -639.73225    1373.4772    75112.542    10.472245   0.10268223 
    2000   -688.88349    42.328994   -646.55449    1284.2014    69454.864    10.472245  0.091331763 
    2100   -685.51109     46.09661   -639.41448    1398.5055    73970.683    10.472245   0.10496415 
    2200   -682.78415    46.981559   -635.80259    1425.3536    77554.495    10.472245   0.12680829 
    2300   -680.59969    47.700683   -632.89901    1447.1708    81502.833    10.472245   0.12795305 
    2400   -685.09629    46.006411   -639.08988     1395.769    74116.712    10.472245   0.11913201 
    2500   -683.61511    47.196315   -636.41879     1431.869    77333.763    10.472245   0.11617813 
    2600   -681.53412     41.02282    -640.5113    1244.5739    77421.935    10.472245   0.12169904 
    2700   -682.66453    42.914943   -639.74958    1301.9782    77630.115    10.472245   0.11436513 
    2800   -681.98178    41.724772   -640.25701    1265.8701    77494.372    10.472245   0.11793095 
    2900   -685.14223    52.233585   -632.90865    1584.6925    76025.146    10.472245    0.1076388 
    3000   -684.17165    46.180216   -637.99144     1401.042    76524.937    10.472245   0.11612929 
    3100    -684.8274    43.076577   -641.75083     1306.882    73777.488    10.472245    0.1166193 
    3200   -686.42142     47.47305   -638.94837    1440.2647    73108.363    10.472245   0.10131136 
    3300   -683.26315    43.988441    -639.2747    1334.5466    77795.464    10.472245   0.10327943 
    3400   -683.76714    42.912394   -640.85475    1301.9009    76355.664    10.472245   0.10732546 
    3500    -684.9818    47.239665   -637.74213    1433.1841    75742.997    10.472245   0.10498539 
    3600   -687.15385     41.02365    -646.1302    1244.5991    71711.766    10.472245  0.098750242 
    3700   -687.09014    44.794988   -642.29515    1359.0161    72889.238    10.472245  0.094269175 
    3800   -680.67355    46.039864   -634.63369    1396.7839    81525.975    10.472245   0.12811624 
    3900   -679.46872    45.540854   -633.92787    1381.6446    83286.831    10.472245   0.12676559 
    4000   -687.78126    44.728677   -643.05258    1357.0043    70383.258    10.472245  0.093703926 
    4100   -687.91033    44.147433    -643.7629    1339.3702    71433.637    10.472245  0.095171054 
    4200   -683.44782    45.259538   -638.18828    1373.1099    77070.232    10.472245   0.12037614 
    4300   -683.82509    50.266272   -633.55881    1525.0071    76932.337    10.472245    0.1282779 
    4400   -684.24368    43.672961   -640.57071    1324.9754    74636.872    10.472245   0.12237998 
    4500   -692.64838    44.004684   -648.64369    1335.0394    63540.315    10.472245  0.098546092 
    4600   -686.77809    45.361644   -641.41645    1376.2076    71769.091    10.472245   0.10755252 
    4700   -682.60768    46.718848   -635.88883    1417.3833    78042.672    10.472245   0.11985859 
    4800   -682.15935    44.950675   -637.20868    1363.7394    78090.249    10.472245    0.1205673 
    4900    -686.9938    44.836267   -642.15753    1360.2685    70514.025    10.472245   0.11094632 
    5000   -684.35329    43.402065   -640.95123    1316.7568    75196.183    10.472245   0.12005044 
    5100   -683.18601    45.474148   -637.71186    1379.6209     77356.82    10.472245   0.12313004 
    5200   -683.80082    49.371013    -634.4298    1497.8462    77437.719    10.472245   0.11634696 
    5300   -684.36419    44.454287    -639.9099    1348.6797    75778.022    10.472245   0.12328471 
    5400   -684.30251    47.088211    -637.2143    1428.5892    75589.397    10.472245   0.11668879 
    5500   -683.60031    47.910487   -635.68982    1453.5359    76652.605    10.472245   0.11875309 
    5600   -687.76707    48.801327   -638.96574    1480.5627    72434.452    10.472245   0.10564839 
    5700   -687.18161    45.512309    -641.6693    1380.7786    71640.854    10.472245   0.10670406 
    5800   -685.25071    47.644869   -637.60584    1445.4774    75456.421    10.472245   0.10288392 
    5900    -684.6214    46.091398      -638.53    1398.3474    75902.478    10.472245   0.10605451 
    6000   -685.37581    51.578642   -633.79717    1564.8225    77456.707    10.472245  0.097081198 
    6100   -681.13385    43.490623   -637.64323    1319.4435    79094.982    10.472245   0.11377012 
    6200   -683.82777    44.869074   -638.95869    1361.2638    77166.088    10.472245   0.11745757 
    6300   -681.10695    47.798568   -633.30838    1450.1404    80718.114    10.472245   0.11543189 
    6400   -682.29313    43.007577   -639.28556    1304.7886    79064.516    10.472245   0.11258074 
    6500   -686.22603    45.953649   -640.27238    1394.1682    73030.835    10.472245   0.10599533 
    6600    -683.2262    45.354385   -637.87182    1375.9874    77655.696    10.472245    0.1169246 
    6700   -681.54114    49.420058   -632.12108    1499.3341    80811.422    10.472245   0.11645487 
    6800    -686.7891     45.91507   -640.87403    1392.9978    72722.294    10.472245  0.099716375 
    6900   -685.78411     44.92708   -640.85703    1363.0236    73263.941    10.472245  0.094711851 
    7000   -680.93439    44.062927   -636.87146    1336.8064    80935.533    10.472245   0.10487273 
    7100   -685.11796     44.40087   -640.71709    1347.0591    73825.063    10.472245   0.10181966 
    7200   -686.86407    45.428891   -641.43518    1378.2478    72631.032    10.472245  0.096749242 
    7300   -682.72956    48.484501   -634.24506    1470.9507    79420.266    10.472245   0.10552555 
    7400   -683.60626    43.726083   -639.88018    1326.5871    76297.643    10.472245   0.11273931 
    7500    -682.9243    40.340906    -642.5834    1223.8856    76879.154    10.472245   0.10947214 
    7600   -682.67288    46.790261   -635.88262    1419.5498    78642.797    10.472245   0.11072856 
    7700    -684.9414    43.570389   -641.37101    1321.8635     74265.37    10.472245   0.10908328 
    7800   -687.64918     45.41943   -642.22975    1377.9608    71578.802    10.472245  0.097027401 
    7900   -682.70502    47.460785   -635.24423    1439.8926    78538.469    10.472245   0.10827254 
    8000   -681.08475    47.815137   -633.26961    1450.6431    80496.855    10.472245    0.1158855 
    8100   -687.96815     46.89423   -641.07392    1422.7041    70549.194    10.472245  0.097353395 
    8200   -686.30346    44.892342   -641.41112    1361.9697    73580.034    10.472245    0.0957197 
    8300   -687.79443    48.409269   -639.38516    1468.6682    72710.708    10.472245  0.095866406 
    8400   -685.90158    47.348694   -638.55289    1436.4919    74554.716    10.472245   0.10635397 
    8500   -686.96909    48.721831   -638.24726    1478.1509    73808.679    10.472245   0.11057493 
    8600   -684.76434    46.198253   -638.56609    1401.5892    75261.116    10.472245    0.1205023 
    8700   -683.19976    48.050147   -635.14961     1457.773     77838.87    10.472245   0.11536049 
    8800   -687.08599    44.565072   -642.52092    1352.0408    72235.464    10.472245   0.11105568 
    8900   -683.21224     46.44266   -636.76958    1409.0041    78074.935    10.472245   0.12164703 
    9000   -683.74334    48.361948   -635.38139    1467.2326    76856.669    10.472245   0.12669116 
    9100   -686.02363    45.223255   -640.80038    1372.0091    74070.705    10.472245   0.10859157 
    9200   -686.71936    44.335045   -642.38431    1345.0621    72348.154    10.472245  0.096702426 
    9300   -685.10154    42.340215   -642.76132    1284.5418    74687.182    10.472245   0.10866196 
    9400   -683.41467    44.595089   -638.81958    1352.9515    76222.038    10.472245   0.12073338 
    9500   -680.26704    47.974977   -632.29206    1455.4924    81728.663    10.472245   0.12464207 
    9600   -682.78758     45.98443   -636.80315    1395.1021     77849.79    10.472245   0.12192273 
    9700   -685.35106    45.680137   -639.67092    1385.8703    74998.289    10.472245   0.11025532 
    9800   -685.72846     48.63698   -637.09148    1475.5767    74956.285    10.472245   0.10342517 
    9900   -686.21825    46.528568   -639.68968    1411.6105    73521.064    10.472245   0.10836795 
   10000   -683.06276    41.433148   -641.62961    1257.0227    76294.142    10.472245   0.11478686 
Loop time of 6.37417 on 1 procs for 10000 steps with 256 atoms

Performance: 135.547 ns/day, 0.177 hours/ns, 1568.831 timesteps/s
100.0% CPU use with 1 MPI tasks x no OpenMP threads

MPI task timing breakdown:
Section |  min time  |  avg time  |  max time  |%varavg| %total
---------------------------------------------------------------
Pair    | 4.0491     | 4.0491     | 4.0491     |   0.0 | 63.52
Neigh   | 0.03152    | 0.03152    | 0.03152    |   0.0 |  0.49
Comm    | 0.064195   | 0.064195   | 0.064195   |   0.0 |  1.01
Output  | 0.0026603  | 0.0026603  | 0.0026603  |   0.0 |  0.04
Modify  | 2.2101     | 2.2101     | 2.2101     |   0.0 | 34.67
Other   |            | 0.0166     |            |       |  0.26

Nlocal:    256 ave 256 max 256 min
Histogram: 1 0 0 0 0 0 0 0 0 0
Nghost:    1431 ave 1431 max 1431 min
Histogram: 1 0 0 0 0 0 0 0 0 0
Neighs:    13045 ave 13045 max 13045 min
Histogram: 1 0 0 0 0 0 0 0 0 0

Total # of neighbors = 13045
Ave neighs/atom = 50.957
Neighbor list builds = 56
Dangerous builds = 0
Total wall time: 0:00:06
