LAMMPS (3 Mar 2020)

# ---------- 1. Initialize simulation ----------
units metal
atom_style atomic
dimension 3
boundary p p p
read_data /home/modeler/RemLabs/Project/arrhenius_2/T1800.0/n3_T1800.0_timestep3.000000e-03_eqsteps3200_time300_rseed3321/20201205-073145/lammps.data
  orthogonal box = (0 0 0) to (17.469 17.469 17.469)
  1 by 1 by 1 MPI processor grid
  reading atoms ...
  217 atoms
  read_data CPU = 0.000985198 secs

pair_style meam/c
pair_coeff * * library.meam Li Si LiSi.meam Li Si
Reading potential file library.meam with DATE: 2012-06-29
Reading potential file LiSi.meam with DATE: 2020-11-07

group Li type 1
1 atoms in group Li
group Si type 2
216 atoms in group Si

velocity all create 1800.0 3321 dist gaussian

# ---------- 2. Specify equilibration ensemble  ----------
fix 1 all npt temp 1800.0 1800.0 0.15 tchain 2 iso 1.0 1.0 1.0 pchain 2
# fix 1 all nvt temp 1800.0 1800.0 0.15

# ---------- 3. Run equilibration -------------
timestep 0.003
run 3200
Neighbor list info ...
  update every 1 steps, delay 10 steps, check yes
  max neighbors/atom: 2000, page size: 100000
  master list distance cutoff = 6
  ghost atom cutoff = 6
  binsize = 3, bins = 6 6 6
  2 neighbor lists, perpetual/occasional/extra = 2 0 0
  (1) pair meam/c, perpetual
      attributes: full, newton on
      pair build: full/bin/atomonly
      stencil: full/bin/3d
      bin: standard
  (2) pair meam/c, perpetual, half/full from (1)
      attributes: half, newton on
      pair build: halffull/newton
      stencil: none
      bin: none
Per MPI rank memory allocation (min/avg/max) = 8.895 | 8.895 | 8.895 Mbytes
Step Temp E_pair E_mol TotEng Press Volume 
       0         1800   -951.04357            0   -900.78722   -114161.75    5330.9442 
    3200    1756.5131   -940.37259            0    -891.3304    5156.2177    4633.0905 
Loop time of 2.25143 on 1 procs for 3200 steps with 217 atoms

Performance: 368.406 ns/day, 0.065 hours/ns, 1421.321 timesteps/s
99.9% CPU use with 1 MPI tasks x no OpenMP threads

MPI task timing breakdown:
Section |  min time  |  avg time  |  max time  |%varavg| %total
---------------------------------------------------------------
Pair    | 2.1451     | 2.1451     | 2.1451     |   0.0 | 95.28
Neigh   | 0.057547   | 0.057547   | 0.057547   |   0.0 |  2.56
Comm    | 0.015001   | 0.015001   | 0.015001   |   0.0 |  0.67
Output  | 2.5331e-05 | 2.5331e-05 | 2.5331e-05 |   0.0 |  0.00
Modify  | 0.028966   | 0.028966   | 0.028966   |   0.0 |  1.29
Other   |            | 0.004809   |            |       |  0.21

Nlocal:    217 ave 217 max 217 min
Histogram: 1 0 0 0 0 0 0 0 0 0
Nghost:    953 ave 953 max 953 min
Histogram: 1 0 0 0 0 0 0 0 0 0
Neighs:    4129 ave 4129 max 4129 min
Histogram: 1 0 0 0 0 0 0 0 0 0
FullNghs:  8258 ave 8258 max 8258 min
Histogram: 1 0 0 0 0 0 0 0 0 0

Total # of neighbors = 8258
Ave neighs/atom = 38.0553
Neighbor list builds = 98
Dangerous builds = 1

# ---------- 4. Describe computed properties----------
compute msdli Li msd
compute msdsi Si msd
thermo_style custom step pe ke etotal temp press density c_msdli[4] c_msdsi[4]
thermo 100

# ---------- 3. Run production -------------
timestep 0.003
run 100000
Per MPI rank memory allocation (min/avg/max) = 9.663 | 9.663 | 9.663 Mbytes
Step PotEng KinEng TotEng Temp Press Density c_msdli[4] c_msdsi[4] 
    3200   -940.37259    49.042182    -891.3304    1756.5131    5156.2177    2.1767993            0 8.5058339e-32 
    3300   -940.77466    46.275132   -894.49953    1657.4074    -6510.913    2.1501448  0.075170565   0.12928042 
    3400   -932.44093    48.961884   -883.47904    1753.6371   -957.36443    2.1411888    0.6217015   0.13826821 
    3500   -939.35881    50.372762   -888.98605    1804.1697    12399.476    2.1866054  0.026160677   0.15528164 
    3600   -940.28807    47.877272    -892.4108    1714.7902   -2621.5335    2.1555554   0.15257584   0.14271627 
    3700   -933.66565    48.930542   -884.73511    1752.5146   -6097.1033    2.1320746   0.59085193   0.14017148 
    3800   -939.40682    49.891679   -889.51515     1786.939    7428.3419    2.1807743   0.45340244   0.13029132 
    3900   -939.94468    46.361249   -893.58343    1660.4918    1916.0456    2.1714153   0.89819856   0.15977012 
    4000   -936.50659    48.480304   -888.02629    1736.3887   -6433.5894    2.1381939     1.551951   0.14810535 
    4100   -936.31604     52.32457   -883.99147    1874.0763     5603.926    2.1660761    4.4686973    0.1773911 
    4200   -943.99378    49.198415   -894.79537    1762.1088    6586.6323    2.1870146    3.4782825   0.16234614 
    4300   -938.37228    47.213163   -891.15912    1691.0043   -10864.894    2.1361178    2.6385758   0.15824044 
    4400   -939.90854    53.007713   -886.90083     1898.544   -3947.4084    2.1528995    3.8775624   0.16940122 
    4500   -943.33794    49.738293   -893.59964    1781.4453    9913.1603    2.1933662    3.4438819   0.17679473 
    4600   -943.44528    47.788898   -895.65638     1711.625   -6122.9102    2.1525963    4.3774611   0.17823601 
    4700   -940.65373    53.106999   -887.54673    1902.1001   -9317.4134    2.1334228    3.5761936   0.17954275 
    4800   -942.81775     52.74725    -890.0705    1889.2152    9634.6489    2.1861836    5.2220453   0.17103795 
    4900   -945.82024    50.217756   -895.60249    1798.6179    1424.5996    2.1746727    3.9941019   0.15043089 
    5000   -938.06183    52.650426    -885.4114    1885.7473   -12672.335    2.1226464    3.6719585   0.16678731 
    5100   -943.51495    53.949772   -889.56518    1932.2852    3813.0154    2.1752991    4.3999718   0.16339147 
    5200   -941.88264    49.222109   -892.66053    1762.9574    8837.6265    2.1865302    4.1672172   0.18017537 
    5300   -937.29826    51.249506   -886.04876    1835.5715    -7053.193    2.1340175    4.2129677   0.17435403 
    5400   -938.50024    51.930579   -886.56966     1859.965   -2427.4545    2.1450269    3.9303574   0.17516411 
    5500   -943.85144     51.26662   -892.58482    1836.1844    11112.605    2.1954591    3.9586505   0.16431675 
    5600   -941.61586    53.345774   -888.27009    1910.6522   -3570.8056    2.1525929    3.5689837   0.16537081 
    5700   -936.67381    50.710787   -885.96303    1816.2765   -7346.6044    2.1273396    4.5894492   0.17644879 
    5800   -945.68948    51.079767   -894.60971     1829.492    9513.0906    2.1942289     4.482202   0.16920544 
    5900   -937.71757    48.728067    -888.9895    1745.2626    5315.6571    2.1707175    4.0786864   0.16917574 
    6000   -939.89121    51.932583   -887.95862    1860.0368   -11187.363    2.1301799    5.2631012   0.16054442 
    6100   -942.01477    46.692667    -895.3221     1672.362    4112.2633    2.1729966    4.0990712   0.15458451 
    6200   -941.09666    49.143203   -891.95345    1760.1313    7104.0139    2.1812417    3.7531353   0.18697374 
    6300   -938.37632     50.98061   -887.39571    1825.9406    -7953.503    2.1364436    5.3982965   0.20377355 
    6400   -942.46839    48.445023   -894.02337     1735.125   -3267.1684    2.1575011    4.6948799   0.17391306 
    6500   -943.30965    50.025122   -893.28453    1791.7184     5487.557    2.1837891    4.6371188   0.16645943 
    6600   -937.23558    51.704335   -885.53125    1851.8618   -3353.4179    2.1475071    5.2761514   0.16146467 
    6700   -942.80002    49.401262   -893.39876     1769.374   -4836.0209    2.1534536    4.0530807   0.15803684 
    6800   -942.11727    49.851241   -892.26603    1785.4907      4060.79     2.175814    3.2691312   0.16922601 
    6900   -936.71287    52.500687   -884.21218    1880.3842    2883.0082    2.1537284    5.2226888   0.17368998 
    7000    -945.4187    52.192855   -893.22584    1869.3588   -4177.5549    2.1580751    4.6683866   0.17659148 
    7100   -945.07643    52.531148   -892.54528    1881.4752   -2381.5192    2.1638699    3.9951883   0.18216593 
    7200    -940.1435    55.761321   -884.38218    1997.1683   -415.01028    2.1547437    4.0184836   0.18394517 
    7300   -941.50031    48.332709    -893.1676    1731.1024    3157.0917    2.1676563    4.0417728   0.17547032 
    7400   -941.14426    48.472529   -892.67173    1736.1102   -1792.0115    2.1594793    4.1941055   0.16026497 
    7500   -939.46363    54.156378   -885.30725    1939.6851   -1269.2472    2.1535892      3.79612   0.17707499 
    7600   -941.47312    47.884535   -893.58859    1715.0504    2645.2557    2.1706299    3.9980517   0.15536715 
    7700   -940.43348    47.677947   -892.75553    1707.6512   -750.82303    2.1635487    2.8383211   0.16657666 
    7800   -935.81157    50.549263   -885.26231    1810.4913   -436.58294     2.154897    4.6121087   0.18187143 
    7900   -941.86617      48.6112   -893.25497    1741.0769    3749.3871    2.1733339    3.7654804   0.16328848 
    8000   -941.91224    48.804922   -893.10732    1748.0153   -1489.8091    2.1616581    4.4788502   0.16873617 
    8100   -940.75128    55.157143   -885.59414    1975.5288   -5375.4127    2.1469493    4.5910084   0.19505736 
    8200    -942.9441    49.557583   -893.38652    1774.9729    6560.1237    2.1842521    3.6771297   0.16453211 
    8300   -941.58765    48.407895   -893.17976    1733.7952   -1189.6876    2.1653584    2.5073901   0.16989631 
    8400   -937.62885    51.015409   -886.61345    1827.1869   -8932.8592    2.1335328    4.4631069   0.19236153 
    8500   -943.84548    50.108454   -893.73703    1794.7031    3949.7035    2.1810139     4.387241    0.1825196 
    8600   -942.65501    49.151089   -893.50392    1760.4137    6198.2026    2.1831938    4.2547597   0.18018235 
    8700    -938.7194    51.809096    -886.9103    1855.6139    -10440.99    2.1366605    6.1302527   0.20778985 
    8800   -940.09674    48.780689   -891.31605    1747.1474   -2431.9468    2.1556064    4.2275052   0.16622387 
    8900   -940.08137    46.183302   -893.89806    1654.1184    12804.406    2.1957555    4.1702048   0.18037961 
    9000   -940.19311    54.787567   -885.40554     1962.292   -4574.0848     2.148043    3.3761651   0.18606772 
    9100    -941.1262    50.702792   -890.42341    1815.9901   -8260.5007    2.1376695    3.7038046   0.17920889 
    9200   -946.26774      53.1234   -893.14434    1902.6875     4872.939    2.1860846    4.5007132   0.15878513 
    9300   -935.52976    52.227791   -883.30197    1870.6101    6974.7827    2.1636145    6.1183814   0.17345359 
    9400   -938.02055    49.416886   -888.60367    1769.9336   -6859.3136    2.1391614    5.9872778   0.17177302 
    9500   -943.35619    49.718663   -893.63753    1780.7422   -731.84133    2.1631581    4.0609844   0.16572338 
    9600   -939.04168    53.093946   -885.94773    1901.6326    7659.4288    2.1799994    4.4945328    0.1969769 
    9700   -938.04014    51.235153   -886.80499    1835.0574   -5212.4671    2.1444995    4.8781176   0.16868869 
    9800   -944.24336    48.982442   -895.26092    1754.3734   -5015.0107    2.1558155    4.8178818   0.17016225 
    9900   -940.28457    52.227002   -888.05756    1870.5818    7181.0992     2.180348    5.2535276   0.17220891 
   10000   -942.12931    55.013602   -887.11571    1970.3877   -2851.0509    2.1559749     4.295817   0.17147798 
   10100   -943.67236    46.828454   -896.84391    1677.2254   -6419.8164    2.1564399    4.5254429   0.15990095 
   10200   -941.62457    51.424878   -890.19969    1841.8527   -23.681666    2.1654078    2.9703074   0.16194573 
   10300   -945.29321    58.718951   -886.57426    2103.0999   -2341.2729    2.1629471    3.7298132   0.16070854 
   10400   -943.92016     47.84264   -896.07752    1713.5498   -3736.0654    2.1619363    3.3566984    0.1627163 
   10500   -941.35091    49.090526   -892.26039    1758.2446   -788.06747    2.1631264    5.4045026   0.17433969 
   10600    -938.8059    52.415667   -886.39023    1877.3391    517.28979    2.1606988    3.3528491   0.18046086 
   10700   -947.67084    53.208249   -894.46259    1905.7265   -4377.3974     2.163254    3.2537795   0.15595959 
   10800    -943.0613    50.095127   -892.96617    1794.2258   -1410.7415    2.1639462     3.470583   0.16993864 
   10900   -941.38153    55.330273   -886.05126    1981.7297   -1467.1215    2.1556309    3.5811463   0.16172094 
   11000    -943.7801    50.467867   -893.31223     1807.576    -1747.516    2.1665697    3.2923691   0.15746901 
   11100   -939.57748    46.596325   -892.98116    1668.9114    1674.9438    2.1660876    5.2808068   0.17272233 
   11200   -936.52666    51.630154    -884.8965    1849.2049   -1253.3671    2.1476897    4.3656633   0.18674631 
   11300   -940.43977    47.818578    -892.6212     1712.688     3007.664    2.1679386    3.1472031   0.19006404 
   11400   -943.14748    51.199967   -891.94751    1833.7971    1384.8385    2.1707921    3.5258581   0.17353429 
   11500   -934.99736    50.856613   -884.14075    1821.4994    -4409.867    2.1412636    2.5548765   0.17635961 
   11600   -941.57975    48.016235   -893.56352    1719.7674     822.2012    2.1722377    4.4782991   0.18156022 
   11700    -942.0043    49.995233   -892.00906     1790.648    2392.0197    2.1731462    3.4173647   0.16819179 
   11800   -936.74292    51.498219    -885.2447    1844.4794    -3020.291    2.1445008    4.7751185   0.15734592 
   11900   -940.11367    46.326467    -893.7872     1659.246    456.00984    2.1635276    5.6008559   0.19396784 
   12000   -938.87274    46.911747   -891.96099    1680.2087     3308.099    2.1706642    5.4991011   0.17020429 
   12100   -934.63754    48.104284   -886.53326     1722.921    1070.8698    2.1497712    4.8350315   0.18844898 
   12200   -942.20253    47.541515   -894.66102    1702.7647   -4584.2587    2.1586658    4.3624317   0.17769267 
   12300   -941.40285    48.340338   -893.06251    1731.3756    5470.5867    2.1779926    5.2181313   0.16618251 
   12400   -938.02816    52.694917   -885.33324    1887.3408     458.5626    2.1559163    3.7540857    0.1764012 
   12500   -944.20929    51.113034   -893.09626    1830.6835   -9014.8533     2.147139    4.4532318   0.16794361 
   12600   -937.88276    46.837538   -891.04522    1677.5508    4705.9337    2.1730707    9.7550812    0.1839952 
   12700   -938.76284    55.633328   -883.12951    1992.5841   -573.89215    2.1521085    9.1974472   0.18886157 
   12800   -939.40719    47.437806   -891.96938    1699.0502   -6327.9574    2.1429849     11.50841    0.2031785 
   12900   -937.69606    46.493469   -891.20259    1665.2274    3382.4779     2.162797    13.352719   0.20996362 
   13000   -934.25456    53.154325   -881.10023    1903.7951    8241.3756    2.1611836    13.450267    0.1966715 
   13100   -940.04258    50.321273    -889.7213    1802.3255   -4139.4894    2.1433438    10.099983   0.18775026 
   13200   -940.21087    48.156945   -892.05393    1724.8071   -4285.9904    2.1445371    6.8601935   0.19218556 
   13300   -937.98054    55.650548   -882.32999    1993.2008     7916.745    2.1726787     7.153978    0.2019493 
   13400   -942.67235    53.271372   -889.40098    1907.9874   -2238.9712    2.1543006    9.9786288   0.17985919 
   13500   -943.61072    49.808711   -893.80201    1783.9674   -14013.822    2.1289304    10.181848   0.17286209 
   13600   -937.79806     53.01002   -884.78804    1898.6267    7215.7902    2.1687066    10.067503   0.18347623 
   13700   -943.45118    54.485971   -888.96521    1951.4899    6591.6115     2.174846    9.8395734   0.18443794 
   13800   -943.51878    48.311838   -895.20694    1730.3548    -8896.811    2.1405143    7.8995834    0.1953063 
   13900   -937.76797    50.386597   -887.38137    1804.6652   -781.04741     2.150293    7.8369891   0.21675946 
   14000   -934.87529    48.594868   -886.28042     1740.492    8655.8837    2.1740008    11.960408   0.21031723 
   14100   -943.66524    47.863754   -895.80149    1714.3061   -2070.5652    2.1600467     16.87722   0.17659499 
   14200    -937.0825    48.861894   -888.22061    1750.0559   -2875.9532    2.1464153    11.709215   0.19346402 
   14300    -940.8999    55.043918   -885.85598    1971.4735    894.68754    2.1577059    23.210937   0.16874339 
   14400   -945.18192    49.407213   -895.77471    1769.5872    2165.9135    2.1711435    15.557063   0.15184375 
   14500   -939.86926    51.721331   -888.14793    1852.4705    -3529.439     2.150508    9.8204405   0.18229895 
   14600   -939.45057    52.547261   -886.90331    1882.0523    -1524.609    2.1534238    7.8570823   0.18782148 
   14700    -943.7558    49.086204   -894.66959    1758.0898    861.65799    2.1703065    9.3188738   0.17330496 
   14800   -941.51413    53.783245   -887.73089    1926.3208   -3092.5777    2.1514227    9.4660734   0.19123007 
   14900   -938.75525    52.616818   -886.13844    1884.5436   -2458.0239    2.1500067    10.416933   0.18186055 
   15000   -939.37589    46.845074   -892.53081    1677.8207    3319.9407     2.162248    10.177988   0.18096924 
   15100    -943.3958    56.318302   -887.07749    2017.1173    118.89309    2.1617107    7.5472198   0.15194625 
   15200   -935.14551    51.678722   -883.46679    1850.9444   -257.73312    2.1450297    2.2544096   0.17100912 
   15300   -943.34655    51.422648   -891.92391    1841.7728   -302.93382    2.1633381    8.2766581   0.16743685 
   15400   -938.80604    51.336484   -887.46956    1838.6867    6291.7789    2.1708101    3.1828038   0.17392323 
   15500   -933.69862    50.210522    -883.4881    1798.3588   -4748.0402    2.1322829    2.2782396   0.22212504 
   15600    -942.3596     48.13849   -894.22111    1724.1462    222.93031    2.1641908    2.9674613   0.17270009 
   15700   -940.48043    51.228269   -889.25216    1834.8108    7343.9611    2.1798479    2.6096529   0.19386383 
   15800   -937.95824    51.318188   -886.64006    1838.0314   -5277.8121    2.1387019     2.947343   0.20856146 
   15900   -943.07023    51.902189   -891.16804    1858.9482   -10406.888    2.1373444    3.2023798   0.18410064 
   16000    -942.4111    48.612529   -893.79857    1741.1245    12231.579    2.1910848    2.1374418   0.20177507 
   16100   -938.48853    51.857419   -886.63111    1857.3447    3467.4842    2.1585352    1.2513344   0.19996608 
   16200   -937.03301    47.834422   -889.19859    1713.2555   -11569.339    2.1233172    3.0243883   0.21374527 
   16300   -940.14285    44.807982   -895.33487    1604.8594    6348.0254    2.1758391    3.2198729    0.1905398 
   16400   -938.72403    53.530748   -885.19328    1917.2772    5059.0668    2.1714149     2.919861   0.18231375 
   16500   -938.92635    51.591672   -887.33468    1847.8266    -6422.582     2.140658    4.0187529    0.1962537 
   16600   -942.49736    49.259279   -893.23808    1764.2887   -3065.6508    2.1553873    6.6075927   0.18346863 
   16700   -940.95442    51.002717    -889.9517    1826.7324    6274.2008    2.1777291    10.260181    0.1756707 
   16800   -932.93061    48.192386   -884.73823    1726.0765   -1181.4945     2.144153    11.879065   0.18548065 
   16900   -940.89642    47.599531   -893.29689    1704.8426    -2472.091    2.1563428     12.68222    0.1524494 
   17000   -942.15441    51.812228   -890.34219    1855.7261    2422.5605    2.1708828    11.477334   0.16417423 
   17100   -936.60316    53.452336   -883.15082    1914.4688   -1351.1688    2.1472848    12.006607   0.18322007 
   17200   -944.17838    50.655921   -893.52246    1814.3114   -813.93476    2.1635627    9.9396883   0.16616018 
   17300   -939.11173    47.972018   -891.13971    1718.1837    2577.0488    2.1620345    11.851457    0.1821532 
   17400   -935.58343    50.749849   -884.83358    1817.6755     858.0036    2.1537673    11.420824    0.1929018 
   17500   -941.15444    46.927978   -894.22646      1680.79    157.12662    2.1630912    11.808752   0.16344133 
   17600   -944.15737    50.883975   -893.27339    1822.4794    -3999.323    2.1605583    10.159071   0.15143412 
   17700   -937.99612    51.300418   -886.69571    1837.3949    3077.4178    2.1614218    11.434433   0.17472857 
   17800   -944.23878    50.592128   -893.64665    1812.0266   -1484.1199    2.1652511    11.558017   0.17079306 
   17900   -942.68749    47.318204   -895.36929    1694.7665   -2686.4583     2.163989    11.807307   0.18709556 
   18000   -935.19273    47.963554   -887.22917    1717.8806    1404.9832    2.1574538    13.596852   0.20021908 
   18100   -940.09814    48.578286   -891.51986     1739.898    525.63962    2.1616284    11.695625   0.17080091 
   18200   -944.23306    47.481944   -896.75111    1700.6311     710.5363    2.1702719    11.455935   0.16356156 
   18300   -938.19114    51.751568   -886.43957    1853.5535   -2897.6489     2.150648    11.427077   0.16300854 
   18400   -939.55234    49.495438   -890.05691    1772.7471    2080.1792    2.1644571    11.961884   0.16937747 
   18500   -945.56756    50.033014   -895.53454    1792.0011   -635.23176    2.1722051    12.228897   0.15864596 
   18600   -941.17816    56.209444   -884.96871    2013.2185   -5856.4793    2.1452682    11.897208   0.16449236 
   18700   -943.64765    54.939371   -888.70828     1967.729    1250.8237    2.1734308    10.237246   0.17006447 
   18800    -941.3632     48.08796   -893.27524    1722.3363    644.52092     2.170073    11.683203   0.16482984 
   18900   -934.68506    50.363307   -884.32175     1803.831   -11040.114    2.1237375    13.910914   0.18897302 
   19000   -937.98348    51.584917   -886.39856    1847.5847    7267.6043    2.1751838    12.884995   0.18817263 
   19100   -940.69698    50.017884    -890.6791    1791.4592    7469.2123    2.1802186    11.754721    0.1725862 
   19200   -942.65233    51.652403   -890.99992    1850.0017   -12954.006    2.1311903    12.471431   0.17054205 
   19300    -935.7594    54.070104    -881.6893    1936.5951    1255.0832    2.1472142    11.752291   0.16100764 
   19400   -940.86144    49.986768   -890.87467    1790.3447    15562.594    2.1980794    10.026843   0.15496425 
   19500   -943.26928    50.276024   -892.99326    1800.7049   -11546.432    2.1366096    13.854391   0.17347842 
   19600   -939.15409    50.831804   -888.32228    1820.6109    -5640.109    2.1446859    11.926059    0.1960057 
   19700   -942.47868     53.01283   -889.46585    1898.7273    11032.764    2.1865883     13.19122   0.17493381 
   19800   -944.55368    47.096898   -897.45678    1686.8401   -9.8012078    2.1688405     13.00168    0.1731107 
   19900   -940.83805    49.724707   -891.11334    1780.9587   -8885.8332    2.1424574    10.957484    0.1911951 
   20000   -941.65535    54.255756   -887.39959    1943.2444    1570.6845    2.1660036    11.155123     0.189763 
   20100   -942.32717    46.123058   -896.20411    1651.9607    5617.1108    2.1791817    11.828564   0.18180411 
   20200    -938.4604    46.821644   -891.63876    1676.9815   -5221.4418    2.1436436     12.87853   0.17017517 
   20300   -936.50532     48.87023   -887.63509    1750.3544    3635.8107    2.1572216    13.135286   0.18336512 
   20400   -940.58169    49.470484   -891.11121    1771.8533    4808.3241     2.172271     12.69508   0.16608305 
   20500   -944.01164    45.102125   -898.90951    1615.3946    -4603.064    2.1600001    13.095556   0.16851813 
   20600   -936.06952    47.115408   -888.95412    1687.5031   -1613.7819    2.1461957    14.853741   0.18346834 
   20700   -937.51903    50.220283   -887.29875    1798.7084    10360.356    2.1830179    12.488298   0.20095036 
   20800   -941.48295    47.369231   -894.11372    1696.5941   -7041.2423    2.1500263    13.367665   0.17976231 
   20900     -937.191    49.946728   -887.24428    1788.9107   -8761.5526    2.1281539    12.786388   0.18116776 
   21000   -935.87405    52.737008   -883.13705    1888.8484    16488.038    2.1931544    11.789706   0.17358335 
   21100    -938.4893    48.471999    -890.0173    1736.0912   -931.47628    2.1568721    12.936151   0.16658394 
   21200   -943.05416    50.414988   -892.63917     1805.682   -19449.942    2.1194231    13.657706   0.17280935 
   21300   -937.37465    52.302337   -885.07232      1873.28    12825.366    2.1921369    15.072272   0.17999967 
   21400   -935.96959    50.287396   -885.68219    1801.1122    6291.6115     2.167158    11.649979   0.16463283 
   21500   -940.39716    45.745064   -894.65209    1638.4223    -8109.557    2.1451546    12.087346   0.18529361 
   21600   -939.92936    49.763774   -890.16559    1782.3579    1374.2597    2.1657509    9.6329102   0.18791396 
   21700   -939.57047    54.035744   -885.53472    1935.3644    4479.1216    2.1655279    12.000838    0.1681753 
   21800   -941.59366    49.044259    -892.5494    1756.5875   -7634.1611     2.145337    11.452252   0.17600805 
   21900   -942.78294    48.209331    -894.5736    1726.6834   -1225.7832     2.159302    13.913321   0.17167727 
   22000   -938.59135    51.522001   -887.06935    1845.3312    9885.2112     2.178708    11.963034   0.17275202 
   22100   -937.22424    48.604279   -888.61996     1740.829   -4189.9408    2.1436023    10.492033    0.1791934 
   22200   -945.72011    48.948356   -896.77175    1753.1526    -6735.889    2.1603835     16.02201   0.19261127 
   22300   -942.08507    49.668155   -892.41691    1778.9332    8378.9857    2.1778533    10.518569   0.20753357 
   22400    -937.5004    50.659958   -886.84044     1814.456    1779.6957    2.1558065    13.583242   0.19763704 
   22500    -936.0814       45.116    -890.9654    1615.8915   -7363.6586    2.1337823    12.907387   0.18961291 
   22600   -944.91723     50.50399   -894.41325    1808.8698    1226.5847    2.1737616    14.291797   0.20027004 
   22700    -937.7056     54.21238   -883.49322    1941.6908    3023.7931    2.1594516    12.504813   0.17188552 
   22800   -938.47557    49.702333   -888.77324    1780.1573   -7799.2767    2.1373835    12.348321   0.16045361 
   22900   -941.23975    48.517117   -892.72263    1737.7072    588.49539    2.1605471    13.979902   0.16777252 
   23000    -944.0093    51.701608    -892.3077    1851.7641    7915.1057    2.1892975    15.771864   0.15986427 
   23100   -937.43148    54.326021   -883.10546    1945.7611   -13885.855     2.115732    14.067146   0.18197355 
   23200   -939.14813    47.054084   -892.09405    1685.3067   -5082.6111    2.1434625     11.31874   0.18113375 
   23300   -937.09414    47.745087   -889.34906    1710.0559    21051.221    2.2102723    10.595353    0.1719031 
   23400   -939.93181    51.261258   -888.67055    1835.9924   -7372.2692     2.140565    11.525162   0.18383215 
   23500   -935.50155    53.260857   -882.24069    1907.6108   -13059.601    2.1130787    11.913464    0.1739649 
   23600   -942.72517    50.194439   -892.53074    1797.7828    11164.238    2.1948795    11.433393   0.18650866 
   23700   -939.00314    48.074019   -890.92912     1721.837    1936.2544    2.1627446    13.426762    0.1728212 
   23800   -938.56874    53.083609   -885.48514    1901.2624   -8057.2727    2.1327124    14.528654   0.17463299 
   23900   -945.34782    49.449723    -895.8981    1771.1097    4984.7648    2.1815465    11.226716   0.16074446 
   24000   -938.37845    46.547921   -891.83053    1667.1777    4319.7086    2.1669071    11.109651   0.15612989 
   24100   -938.32528    50.752326   -887.57296    1817.7643   -6001.1145    2.1412314    11.233573   0.17439445 
   24200   -943.51513    48.513315   -895.00181     1737.571   -261.93634    2.1661402    11.943237   0.16070242 
   24300    -945.0755    50.769694   -894.30581    1818.3863    5246.6642    2.1807218    11.317524   0.15322884 
   24400   -938.32152    50.940233   -887.38129    1824.4944   -2632.9944    2.1467014    9.9984535   0.17297069 
   24500   -938.21377     46.74236   -891.47141    1674.1418   -3393.2941    2.1495276    14.137401   0.17072129 
   24600   -943.48324    47.995385   -895.48786    1719.0206    7732.3367     2.188936    12.802344   0.18579193 
   24700   -939.02035    53.606188   -885.41416    1919.9792   -1003.0393     2.151779    14.110951   0.16839868 
   24800   -939.78364    49.120665   -890.66297    1759.3241   -6178.0758    2.1441598     12.15134   0.16463635 
   24900   -944.58036    51.071229   -893.50913    1829.1862    3640.3065    2.1827553    12.691054    0.1609115 
   25000   -934.62044    51.612936    -883.0075    1848.5882    4292.1108    2.1600063    11.939218    0.1728979 
   25100   -939.34445    51.621891   -887.72256    1848.9089   -6696.5346    2.1366894    14.967545   0.15439482 
   25200   -943.01944    49.597285   -893.42216    1776.3949   -1262.3304    2.1631953    9.1811308   0.16581934 
   25300   -940.06933    51.833904   -888.23543    1856.5025    14675.304    2.1911282    12.620305   0.15124241 
   25400   -934.20266    49.190369   -885.01229    1761.8206   -9190.9685    2.1252508    12.096778    0.1942579 
   25500   -940.52678    44.907736   -895.61904    1608.4322   -7132.7533    2.1474826    11.757265   0.17242221 
   25600   -941.57901     51.12896   -890.45005    1831.2539    15227.812    2.1958461    13.624784   0.15833063 
   25700   -938.23217    51.484687   -886.74748    1843.9948   -2331.3516    2.1494629    14.680575   0.17005563 
   25800   -933.51801    49.262079   -884.25593     1764.389   -8548.3243    2.1225255    10.449041   0.18027042 
   25900   -942.50496    48.350543   -894.15442    1731.7411    11414.515    2.1895079    10.527148   0.16337142 
   26000    -934.4574    45.632263   -888.82514    1634.3822    7323.7641    2.1630262    10.377257   0.16957053 
   26100   -940.04255    51.936143   -888.10641    1860.1643   -9451.1776     2.133728    11.612054   0.17625715 
   26200   -942.79885    45.234447    -897.5644    1620.1339    4032.2597    2.1763319    12.332824   0.17148029 
   26300   -936.11365    46.649351    -889.4643    1670.8106    5041.9578    2.1627516    13.740892   0.17959028 
   26400   -938.07885    49.517984   -888.56087    1773.5546   -3740.8902    2.1461759    13.331293   0.16992344 
   26500   -947.03626     51.09255   -895.94371    1829.9498    -3471.317    2.1620483      10.6981   0.16927738 
   26600   -940.54582    48.122971   -892.42285    1723.5903    8603.5855    2.1776017    12.139289   0.16329993 
   26700   -938.79504    51.706315   -887.08873    1851.9327   -2708.3958    2.1473079    14.450411   0.16840964 
   26800   -940.95928    47.639913   -893.31937    1706.2889   -6143.7294    2.1491749    11.717467   0.17067422 
   26900   -941.59538    48.795397   -892.79998    1747.6742      7743.45    2.1853714    10.768064    0.1754549 
   27000   -937.79314    54.080565   -883.71257    1936.9697    629.74647    2.1528415    11.181007   0.19340015 
   27100   -939.46277    47.503184   -891.95959    1701.3918   -6349.2806     2.141473    11.332376   0.18936618 
   27200   -941.68303    50.529436   -891.15359    1809.7812    6308.3008    2.1836569    12.634962   0.17928057 
   27300   -938.79406     57.78765   -881.00641    2069.7441     5860.731    2.1687005    11.849644   0.16779629 
   27400   -938.60785    50.261861   -888.34599    1800.1976   -12148.401    2.1243821    11.069241   0.16337917 
   27500    -943.4497     50.39897   -893.05073    1805.1083   -3087.6488    2.1611364    11.119282   0.17208108 
   27600   -938.99084    52.303243    -886.6876    1873.3125    19639.841    2.2038736    13.701555   0.16477456 
   27700   -939.59156     52.73197   -886.85959    1888.6679   -9587.0592    2.1288115    13.428382   0.16453937 
   27800    -940.0821    42.902331   -897.17977    1536.6059   -5793.2377     2.151856    11.121462   0.16284205 
   27900   -939.50271    49.054497   -890.44821    1756.9542     10441.86     2.184013     12.08756   0.17679753 
   28000   -937.67543    50.081996   -887.59343    1793.7555    1610.8778    2.1572488    10.991038   0.18483509 
   28100   -943.23126    50.000757    -893.2305    1790.8458   -8598.6616    2.1450466    13.086617   0.16641635 
   28200   -943.23645     47.81024   -895.42621    1712.3894    3541.4855     2.178339    12.208745   0.17443211 
   28300    -939.5094    52.161426   -887.34797    1868.2331    3090.0032    2.1645505    9.6021891   0.17151207 
   28400   -942.36239    51.115363   -891.24702    1830.7669   -8218.3588    2.1479835    10.377922   0.16424326 
   28500   -943.11872    46.004676   -897.11405    1647.7206    2607.2464    2.1728089    12.318673   0.14735418 
   28600   -939.21799    52.727717   -886.49027    1888.5156    3766.8305    2.1645003     11.07313   0.16722271 
   28700   -941.39027    52.169339   -889.22093    1868.5165   -2185.5332    2.1535048    12.868797   0.17836712 
   28800   -942.23698    47.280861   -894.95611     1693.429   -3978.8957    2.1552104    12.555647   0.17191567 
   28900   -942.44992    53.885795   -888.56412    1929.9938    6425.5317    2.1781715    10.811985   0.17621073 
   29000   -939.06179    53.229081   -885.83271    1906.4727   -2653.1459    2.1518222    12.365001   0.17180355 
   29100   -940.62318    46.807772   -893.81541    1676.4846    -12508.51    2.1322698    9.9290572   0.16385349 
   29200    -940.4239    51.471428   -888.95247    1843.5199    6947.7094    2.1814161    11.285046   0.16148459 
   29300    -936.0964    53.975916   -882.12049    1933.2216    11497.373    2.1732311    9.8326809   0.18239637 
   29400   -943.88017    52.694624   -891.18554    1887.3303   -16604.197    2.1210031    13.900299   0.15037276 
   29500   -942.08354    49.729702   -892.35383    1781.1376   -3505.4412    2.1551134    10.407026   0.19167084 
   29600    -936.6581     51.65408   -885.00402    1850.0618    15299.992    2.1909984    13.184306   0.17454237 
   29700   -938.43426    47.838918   -890.59535    1713.4166   -6070.3144    2.1432659    13.446239   0.18931322 
   29800    -943.8436    48.262396    -895.5812     1728.584   -3852.4053    2.1572998    13.567625    0.1617271 
   29900   -938.81022    52.695563   -886.11465     1887.364    4545.5614     2.164365    11.269327   0.18387352 
   30000   -941.98889    51.707429   -890.28146    1851.9726   -1360.8806    2.1638018    14.330715   0.15334599 
   30100   -944.49408    47.846496   -896.64758     1713.688   -4138.6371    2.1598032    10.114571   0.15688663 
   30200    -941.8532    54.809499    -887.0437    1963.0775   -3503.2243    2.1521993    13.572852   0.17157997 
   30300   -942.17853    53.411092   -888.76744    1912.9916    4460.3502    2.1717308    13.597739   0.17346401 
   30400   -943.31715     47.45615   -895.86101    1699.7072   -4235.2112    2.1579585    13.193071   0.18321361 
   30500   -939.72356    52.759006   -886.96455    1889.6363     -5592.51    2.1410043    12.483522   0.16988894 
   30600   -939.45202    51.938088   -887.51393     1860.234    7373.1455    2.1732371    10.581318   0.15525587 
   30700   -943.69232    49.355196   -894.33712    1767.7242    1994.1471    2.1675449    11.198323   0.15431283 
   30800   -938.95222    51.357239   -887.59498    1839.4301   -6772.2105    2.1340892    11.798492   0.14484408 
   30900   -939.92017     53.53047    -886.3897    1917.2673    4151.0624    2.1620589    12.518223   0.15208201 
   31000    -941.1745    47.659211   -893.51529    1706.9801    12395.017    2.1881307     13.96723   0.15654131 
   31100   -938.94145     51.03054   -887.91091    1827.7289   -10628.447    2.1260806    10.756581   0.18293512 
   31200   -936.85872    49.793389   -887.06533    1783.4186   -2622.6752    2.1410613    12.874084   0.18936446 
   31300   -941.16157    49.313963   -891.84761    1766.2473    18303.983    2.2065989    8.5870528   0.17908989 
   31400   -942.27445    50.441053    -891.8334    1806.6156   -6784.9348    2.1462844    12.126195    0.1664882 
   31500   -933.90913    48.248149   -885.66099    1728.0737     -13521.8    2.1113856    11.012573   0.18030765 
   31600   -941.14699    48.924883    -892.2221    1752.3119    11846.317    2.1915543    11.262113   0.17149436 
   31700   -939.98049    46.512102   -893.46839    1665.8948    5484.6991    2.1758776    12.362546   0.17510968 
   31800    -936.6099    50.329022   -886.28088     1802.603   -7803.7861    2.1269329    11.770457   0.19308833 
   31900   -942.27274    49.616834   -892.65591    1777.0951    -521.2949    2.1636128     12.03181   0.18389491 
   32000   -941.15853    47.330462   -893.82806    1695.2055    6974.5828    2.1809902    12.021258    0.1788645 
   32100    -940.6605    54.183802    -886.4767    1940.6673   -6976.1494    2.1439186    12.293143   0.18055705 
   32200   -943.29055    52.368109   -890.92244    1875.6357   -8620.9451    2.1470911     12.40573   0.17987462 
   32300   -942.98883    48.774529    -894.2143    1746.9267     6929.352     2.183306     11.26911   0.16625433 
   32400   -939.53999    54.259707   -885.28029    1943.3859   -294.13111    2.1527555    10.714628   0.18156881 
   32500    -942.1225    51.810216   -890.31229    1855.6541   -5827.8964    2.1450702    10.844492   0.16391801 
   32600    -940.8024    46.590596    -894.2118    1668.7062    6015.2842    2.1765494    11.434684   0.17281536 
   32700   -934.79164    50.744918   -884.04672    1817.4989    8049.0935    2.1669228     11.36328   0.19020913 
   32800   -942.80081    53.168527   -889.63228    1904.3038   -6715.8756    2.1453483    13.097507   0.17713816 
   32900   -942.78835    47.903554    -894.8848    1715.7316    -2815.449    2.1599546    11.138242   0.17401301 
   33000   -939.88768    53.804631   -886.08305    1927.0867    11007.315    2.1863126    9.7016883    0.1689081 
   33100   -937.79135    50.094488   -887.69687    1794.2029   -605.80617    2.1516289    11.063137   0.15312271 
   33200    -942.6759    46.554485   -896.12142    1667.4128   -12838.524    2.1353179    12.838919   0.16920448 
   33300   -939.66786    50.516335   -889.15152    1809.3119    11764.322    2.1906245    13.525073   0.18387763 
   33400   -937.31605    51.650156   -885.66589    1849.9213    7876.7035     2.172552    13.016269   0.19909489 
   33500   -943.07297    48.489097   -894.58387    1736.7036   -15521.017    2.1295359    11.581768   0.17235115 
   33600   -940.65658    48.332903   -892.32368    1731.1093    1660.8002    2.1656961    10.237293   0.16948309 
   33700   -934.18003      49.9854   -884.19463    1790.2958    9728.8864     2.170418    10.674398   0.18051729 
   33800   -942.91069    50.261091    -892.6496      1800.17   -4684.0764    2.1518852    12.067547   0.14815005 
   33900   -941.73531    48.362356   -893.37295    1732.1642   -2869.8601    2.1545061    10.482262   0.16512265 
   34000    -940.6892    56.504432   -884.18476    2023.7839    313.60562    2.1602273    13.477679   0.16216697 
   34100   -946.18889    54.645437   -891.54345    1957.2014   -3011.5703    2.1636944    12.323657   0.16656432 
   34200     -942.023      47.5307    -894.4923    1702.3773   -5705.9762    2.1512633    13.018181   0.15842446 
   34300   -937.58455    52.716767   -884.86779    1888.1234    344.66795    2.1529154    11.374689    0.1780961 
   34400   -937.90969    47.269267   -890.64042    1693.0137    7086.9052    2.1734531    12.070981   0.16579102 
   34500   -942.23486    46.866577   -895.36828    1678.5908   -5241.0119    2.1525268    12.858696   0.16466528 
   34600   -933.83388    47.619615   -886.21426    1705.5619   -1357.6348     2.146785    11.078538   0.17331715 
   34700   -945.03857    55.049863    -889.9887    1971.6865    7658.7938    2.1885514     10.26917    0.1625437 
   34800   -944.00517    48.633402   -895.37177    1741.8721   -3794.9417    2.1602957    10.607453   0.15487087 
   34900    -935.0965      47.4794    -887.6171    1700.5399   -10341.115    2.1260049    9.5403655   0.16990465 
   35000   -940.83304    54.575881   -886.25716    1954.7101    10647.956    2.1828238    11.829109   0.16897699 
   35100   -940.81079    47.183225   -893.62756     1689.932    9970.5829    2.1848535    12.440981   0.15122783 
   35200   -936.61839    47.994911   -888.62348    1719.0037   -16729.894    2.1138827    14.544278   0.18774598 
   35300   -934.38634     48.80541   -885.58093    1748.0328    1929.5181    2.1545713    10.325302   0.18332473 
   35400   -942.15451     50.73352   -891.42099    1817.0907    14548.283    2.1971039    13.367424   0.16566632 
   35500   -940.48258    47.141221   -893.34136    1688.4276   -6519.2558      2.14458    11.456328   0.16632343 
   35600   -934.57081    50.291544   -884.27927    1801.2607    -6757.793    2.1346568    13.111198   0.17276898 
   35700   -941.43871    49.837076   -891.60163    1784.9833    5819.1946    2.1793996     11.17175   0.17846373 
   35800   -937.99469    44.774134   -893.22056    1603.6471    1970.6454     2.164599    11.810077   0.17719743 
   35900   -939.17997    54.367469    -884.8125    1947.2456   -6679.4381    2.1358526    10.828135   0.17774792 
   36000   -938.92513    46.305748   -892.61938     1658.504    4903.3987    2.1691646    13.177136   0.16697964 
   36100   -943.72412    50.378956   -893.34517    1804.3915     909.4495    2.1694565    12.795987   0.17805433 
   36200   -939.14943    53.209135    -885.9403    1905.7582   -5857.9121      2.14156    13.117355   0.18243487 
   36300   -940.80275    48.251755   -892.55099    1728.2029   -487.20183    2.1568148    11.147423   0.17219334 
   36400   -944.86677    50.876558   -893.99022    1822.2138    2455.9604    2.1721538    12.385162   0.14850335 
   36500    -939.6914    53.503755   -886.18764    1916.3105   -2258.0474    2.1500486    11.810671    0.1512008 
   36600   -938.87686    47.181041   -891.69582    1689.8538   -4980.5136    2.1445193     14.61045   0.15920272 
   36700     -943.328     48.73045   -894.59755     1745.348    4547.7253    2.1753933    12.433065   0.13986607 
   36800    -935.8852    51.435683   -884.44952    1842.2396    7652.7018    2.1616522    12.911904   0.16197639 
   36900   -941.83254    51.257495   -890.57505    1835.8576   -6008.6071    2.1408602    12.372831   0.16387278 
   37000   -944.27711     49.61255   -894.66456    1776.9416   -1295.8164    2.1606977     11.36382   0.17840918 
   37100   -935.46099    50.678466   -884.78252    1815.1189    11943.068    2.1791101    11.212527   0.17292358 
   37200   -938.74041    51.245822   -887.49459    1835.4395   -1801.9732     2.142812    13.400696   0.16310147 
   37300   -943.06871    47.842825   -895.22588    1713.5565   -9099.4483    2.1399607    11.892476   0.16008975 
   37400    -939.4353    50.888294   -888.54701    1822.6341    10835.893    2.1866348    13.685382   0.16821801 
   37500    -937.8493     52.47302   -885.37628    1879.3933    3596.7958    2.1613264    12.179513   0.16643831 
   37600   -940.77516    45.417977   -895.35719    1626.7072   -11349.971    2.1364959    11.367713   0.14933181 
   37700   -941.55883    49.899446   -891.65938    1787.2172    1908.6179     2.168447    11.080652    0.1600448 
   37800   -935.91127    50.969888   -884.94138    1825.5565    8074.3642    2.1705174    12.393443   0.18091089 
   37900   -938.98285     46.37471   -892.60814    1660.9739   -6020.1287    2.1464911    11.380783   0.19391388 
   38000   -941.88738    48.191849   -893.69553    1726.0573   -2239.3071    2.1608874    11.664428   0.17826067 
   38100   -937.50745    52.621576   -884.88587     1884.714    3391.5659    2.1638694    11.651912   0.16987716 
   38200   -942.78481    50.853719   -891.93109    1821.3958   -1723.0476    2.1635669    11.272804   0.17274384 
   38300   -941.22466    47.020141   -894.20452    1684.0909   -791.80874    2.1621449    16.084776   0.15603455 
   38400   -936.31864    52.141481   -884.17716    1867.5188   -674.93463    2.1528642    13.457148    0.1913268 
   38500   -940.36276    50.347024   -890.01574    1803.2478    2479.4857    2.1668595    12.149454   0.18288252 
   38600   -941.55556    47.528735   -894.02682    1702.3069   -594.39115    2.1611533    12.300559   0.16468942 
   38700   -936.60203    51.341451   -885.26058    1838.8646     644.2092    2.1535786      9.62405   0.18162257 
   38800    -940.9355    51.272588   -889.66291    1836.3981    1696.1913    2.1638542    23.584171    0.1872789 
   38900   -940.83913    46.674171   -894.16496    1671.6995   -503.08728    2.1640306     28.15036   0.20721293 
   39000   -938.80362    53.222087   -885.58153    1906.2222   -686.25557    2.1520145    28.843825   0.18879685 
   39100   -937.07937     47.37177    -889.7076     1696.685    5629.7521    2.1653124    24.727658   0.18925275 
   39200   -940.13794    46.019214   -894.11873    1648.2414    2400.5437    2.1699893    25.748229   0.19105511 
   39300    -933.6396    48.255391   -885.38421    1728.3331   -1443.5018    2.1391525    43.165523   0.18724818 
   39400   -937.42309    50.108422   -887.31467     1794.702    3046.9556     2.162983    28.138428   0.19893938 
   39500   -940.26203    46.834079   -893.42795    1677.4269    7967.2522    2.1824145    31.512796   0.16795248 
   39600    -938.2101    52.437065   -885.77304    1878.1055    -7058.216    2.1362922    33.240276   0.17639635 
   39700   -941.45353    52.647584   -888.80595    1885.6455   -4564.0407    2.1507022    32.497369   0.17613349 
   39800   -940.45782    48.270553   -892.18727    1728.8762    8457.4838    2.1832677    34.191003   0.17697389 
   39900   -937.01514    53.552795   -883.46235    1918.0669   -630.29482    2.1455664    42.093447    0.1821991 
   40000   -939.42709    52.542695   -886.88439    1881.8888    -8163.933    2.1364053    47.185885   0.17544616 
   40100   -939.91792    47.419263   -892.49866     1698.386    8321.3218    2.1765251    65.791727   0.19240456 
   40200     -938.211    51.853204    -886.3578    1857.1937    3675.7799    2.1684164    66.118965   0.21138077 
   40300   -938.74121    53.029405    -885.7118     1899.321   -12028.564    2.1244241    62.300785   0.19080573 
   40400   -943.20013    49.145475   -894.05466    1760.2127    838.68173     2.164827    66.864729   0.17413022 
   40500   -938.13325    50.876081   -887.25717    1822.1967    13121.358      2.18422    63.803131   0.18131516 
   40600   -938.69375    51.590756     -887.103    1847.7938   -8051.5824    2.1350552    61.105917   0.20879917 
   40700    -944.6719    47.789133   -896.88276    1711.6334   -7236.3427     2.155056    62.330783   0.20370581 
   40800   -942.03723    52.981545   -889.05568    1897.6068    9420.2892    2.1829813    61.385022    0.2142547 
   40900   -939.31037    52.831732   -886.47864     1892.241   -2324.2113    2.1520489     56.99436   0.20822358 
   41000    -941.1358    47.085076   -894.05072    1686.4167   -11859.356    2.1346398    63.806999   0.18339152 
   41100   -940.07519    47.416609   -892.65858     1698.291     7228.125    2.1795906     71.98299    0.1855754 
   41200   -936.15009     52.86356   -883.28653     1893.381    5173.9038    2.1659267    55.088405   0.19180169 
   41300   -939.67389    49.751921   -889.92197    1781.9334   -10265.446    2.1338098    78.946291   0.20825003 
   41400   -943.68386    52.056591   -891.62727    1864.4783   -2555.1859    2.1627909    40.457244   0.19689718 
   41500   -935.87435    54.380411   -881.49394    1947.7091    4464.5569    2.1598889    37.383065   0.20438804 
   41600   -936.71938    49.703798   -887.01558    1780.2098    2516.9493    2.1586771    56.873736   0.18727077 
   41700    -940.8747    48.460313   -892.41439    1735.6727   -5611.0664    2.1531522    88.631747   0.18368624 
   41800   -937.95369    51.265451   -886.68824    1836.1425     1394.519    2.1637041    90.475127    0.1743041 
   41900   -932.92046     50.50916   -882.41129    1809.0549    4307.9966    2.1588064     85.97614   0.18531326 
   42000    -942.9292     51.01602   -891.91318    1827.2088   -1511.6851    2.1596895    89.246822   0.17249246 
   42100   -943.23705    52.955148    -890.2819    1896.6614   -1266.9445    2.1614255    84.927016   0.16801874 
   42200    -936.2482    53.773095    -882.4751    1925.9572    3993.6782    2.1604774    83.832828   0.15977021 
   42300   -940.92506    51.224726   -889.70033    1834.6839   -3948.9518    2.1554318    87.444766   0.17435347 
   42400    -938.1485    45.715666   -892.43283    1637.3694   -4178.7739    2.1534661    90.348326    0.1961943 
   42500   -937.91009    50.539684   -887.37041    1810.1482    9264.4575    2.1805264    83.679287    0.1906684 
   42600   -941.76747    50.795181   -890.97228    1819.2992    646.47404    2.1620448    87.207225    0.1771503 
   42700   -945.38657    47.830442   -897.55613     1713.113   -7340.3093    2.1551763    82.397963   0.16645301 
   42800   -941.55445    51.978153    -889.5763    1861.6689    5881.5208    2.1797376    88.568226   0.16867149 
   42900   -937.72601    49.228576   -888.49743    1763.1891    3870.3631    2.1699751    82.100439    0.1901542 
   43000   -939.62897    43.473053   -896.15592    1557.0471   -10680.604    2.1400915    83.295037   0.18127512 
   43100   -943.90727    49.362316   -894.54495    1767.9792     2779.536    2.1779605    85.735097   0.17939422 
   43200   -939.43286    53.093417   -886.33944    1901.6136    10131.202    2.1872612    84.223428   0.18430039 
   43300   -940.20344    49.448326   -890.75511    1771.0597   -11749.534    2.1263205    107.33032   0.21320418 
   43400   -943.74054    50.993895   -892.74664    1826.4164   -5937.1442    2.1517037    107.13746   0.19399785 
   43500   -946.61912    45.562146   -901.05697    1631.8708     13346.79    2.2104719    105.95465   0.19382207 
   43600   -937.80814    45.613946    -892.1942    1633.7261   -2190.4614     2.150355    106.27307   0.20415976 
   43700   -942.08645    51.869087   -890.21736    1857.7626   -4872.7911    2.1534962    104.34538   0.19993357 
   43800    -943.4952    55.250676   -888.24453    1978.8788   -1463.0357    2.1630179    128.43545   0.16455636 
   43900    -940.0409    49.927155   -890.11375    1788.2096    154.27585    2.1575284    120.90617   0.20568554 
   44000   -944.09197    45.271284   -898.82068    1621.4532    3352.4111    2.1784935    126.14535   0.18262273 
   44100   -939.68921    50.100264   -889.58894    1794.4098   -2247.6466    2.1545474    124.80281   0.20668458 
   44200   -937.10896     49.52053   -887.58843    1773.6458    4293.4274    2.1662785    119.77232   0.21581045 
   44300   -940.39243    46.814163   -893.57827    1676.7136   -618.96649    2.1617467    99.750999   0.19620335 
   44400   -941.23201    45.171587   -896.06042    1617.8824    1007.7368    2.1625752    109.68627   0.18524549 
   44500   -940.27458    53.127718   -887.14686    1902.8422   -209.82481    2.1571971    105.12217   0.20270147 
   44600   -938.52223    49.328579   -889.19365    1766.7708    876.20647    2.1622074    100.26163   0.19986445 
   44700   -941.45109    45.312672   -896.13842    1622.9356    715.91049    2.1693438    111.67857   0.18021804 
   44800    -939.9858    50.400075   -889.58573    1805.1479    3098.5091    2.1619338    123.58388   0.22368526 
   44900   -936.44954    50.694045   -885.75549    1815.6768    6581.3987    2.1711346    99.766396   0.19815526 
   45000    -934.9973    45.255825   -889.74147    1620.8995   -3450.2885    2.1437756    77.228234   0.20721401 
   45100   -942.84163    49.506464   -893.33517     1773.142    3486.0193    2.1706944    79.725117   0.20483598 
   45200   -947.78678    45.609507   -902.17728    1633.5671    5484.8451    2.1936533    52.439394   0.17976265 
   45300   -940.25872    49.319095   -890.93963    1766.4311   -10750.256    2.1317233    51.462616   0.18549959 
   45400     -941.139    51.518821   -889.62018    1845.2173    2238.5554    2.1675448    51.163717    0.1858757 
   45500   -935.10101    48.390986   -886.71002    1733.1896    12754.702    2.1810669    52.205919   0.16793928 
   45600   -942.88453    49.133485   -893.75104    1759.7832   -11848.845    2.1369651    52.072008   0.17585009 
   45700   -943.97293    48.485359   -895.48758    1736.5697   -2590.1958    2.1648148    54.022082   0.16779278 
   45800   -937.74403    51.358364   -886.38566    1839.4703    8857.0486    2.1778659    48.692049   0.17612937 
   45900   -940.49493    49.229988   -891.26494    1763.2396   -3869.7073    2.1528943    50.266515   0.18104541 
   46000   -944.21896     48.65361   -895.56535    1742.5959   -5995.1389    2.1573465     48.47088   0.17968271 
   46100   -939.95232    53.191479   -886.76084    1905.1259    7901.3421    2.1795105    44.688937   0.16844026 
   46200   -940.25978    53.565003   -886.69478    1918.5042   -1027.2105    2.1574732    46.101627    0.1563051 
   46300    -937.5326    45.176675   -892.35592    1618.0647   -3875.1794    2.1512166    44.603651   0.17095788 
   46400    -939.7107    52.245604   -887.46509    1871.2481    3752.6126    2.1657167    61.176778   0.20238541 
   46500   -938.51736    56.510934   -882.00642    2024.0167    535.74722    2.1528098     41.00545   0.24579263 
   46600   -940.54808    48.982547   -891.56553    1754.3772   -1660.6762    2.1641321    42.438996   0.21737274 
   46700   -936.46304     49.00679   -887.45625    1755.2455   -1591.4745    2.1507302    53.993798   0.19959116 
   46800   -936.83055    54.305242   -882.52531    1945.0168    2089.6936    2.1550289    56.826503   0.21435013 
   46900   -942.75308    50.020534   -892.73255    1791.5541    2940.5688    2.1784008    58.400246   0.19979419 
   47000   -940.39768    51.229309   -889.16837    1834.8481    -4298.168     2.149581    51.287212   0.20780422 
   47100   -938.85928     55.01593   -883.84335    1970.4711   -4434.5648    2.1456036    67.135623   0.20345745 
   47200    -941.3682    46.759714   -894.60848    1674.7634    4933.4446    2.1807144    68.589545   0.19376259 
   47300   -940.68041    50.717709    -889.9627    1816.5244    -6222.972    2.1431442    52.048722   0.20744604 
   47400   -934.72653    49.066512   -885.66002    1757.3845   -1402.3409    2.1411858    66.351342    0.1987706 
   47500   -940.87759     47.43146   -893.44613    1698.8229    10640.096     2.188045    53.295182   0.19168821 
   47600   -940.85628    49.401089    -891.4552    1769.3679   -4330.8039    2.1489289    67.377221   0.20658738 
   47700   -935.65493    49.700546   -885.95439    1780.0933   -12613.316    2.1213195     71.35896   0.19352146 
   47800   -940.66393    52.202657   -888.46128    1869.7099    12474.368    2.1889035    53.813452   0.18520679 
   47900   -943.64946    50.237085   -893.41238    1799.3102    6577.2649     2.180333    56.789569   0.18039503 
   48000   -933.63147    47.587138   -886.04433    1704.3987   -11618.045    2.1132309    57.332798   0.20659437 
   48100   -938.02268    53.776747   -884.24594     1926.088    1590.2731    2.1565282     51.72355   0.19752645 
   48200   -942.10749    51.222625   -890.88487    1834.6087    14117.749    2.1930179    57.204674   0.18952881 
   48300   -938.13717    49.911167     -888.226     1787.637   -6682.9391    2.1379652    55.799748   0.18485122 
   48400   -936.88063    52.421501   -884.45913    1877.5481   -9748.9534    2.1250174    63.705223   0.21186648 
   48500   -941.01153    48.600841   -892.41069    1740.7059    12272.524    2.1874776    64.718843   0.19477668 
   48600   -945.47478    54.327519   -891.14726    1945.8147   -89.333296    2.1665655    56.016423   0.19037382 
   48700   -937.77538     52.60572   -885.16966    1884.1461   -9173.7536     2.129244    55.233007   0.21172513 
   48800   -945.31882    51.186122    -894.1327    1833.3012    1923.7143    2.1765444    59.742268   0.19220691 
   48900   -939.91803    48.919121   -890.99891    1752.1055    7355.6872    2.1796643    64.008932   0.19538286 
   49000   -934.62227    48.419164   -886.20311    1734.1989   -4197.5556    2.1393167    72.998752   0.20690342 
   49100   -941.08688      48.7794   -892.30748    1747.1012   -3957.8032    2.1570031    59.410954   0.20871791 
   49200   -942.96953    50.178423   -892.79111    1797.2091    5046.1842     2.180553    60.155708   0.19787281 
   49300   -939.59309    54.418707   -885.17438    1949.0807   -2227.5154    2.1505738    56.400549   0.21616333 
   49400   -938.87068    47.789749   -891.08093    1711.6555   -5612.5847    2.1522758    57.069341   0.22472262 
   49500   -939.82928    46.556218   -893.27307    1667.4749    4504.3383    2.1737719    63.408935   0.20260809 
   49600   -937.47498    53.667811   -883.80717    1922.1864    3989.2109    2.1650019    58.204443   0.20904416 
   49700   -939.68822    49.109116    -890.5791    1758.9105   -8822.7065    2.1427639     56.09567   0.21807034 
   49800   -940.35713    46.040075   -894.31706    1648.9885   -3443.5517    2.1567292    46.185542   0.20450407 
   49900   -938.22081     54.45301    -883.7678    1950.3094    13674.718    2.1886061    46.668272   0.20451277 
   50000   -936.97548    48.323246   -888.65224    1730.7634   -2400.4317    2.1517271    49.466848   0.19013102 
   50100   -940.78969    45.825768   -894.96392    1641.3128   -12641.176    2.1331336    45.221236   0.19524294 
   50200   -943.41003    55.251116   -888.15891    1978.8946    10609.237    2.1915223    46.675515   0.17358167 
   50300   -935.64714    50.440988   -885.20615    1806.6133    6912.0642    2.1688729    46.805042   0.18507654 
   50400   -941.25474    46.077918   -895.17682    1650.3439   -10372.881     2.138999    50.263439   0.17448203 
   50500   -940.24661    49.025012    -891.2216    1755.8981   -122.85153    2.1637164    48.025167   0.18537413 
   50600   -935.69637      51.1263   -884.57007    1831.1587    8342.6997    2.1732396    50.708421   0.17328579 
   50700   -945.90946    52.236253   -893.67321    1870.9132   -8571.2661    2.1535031    46.709181   0.17015845 
   50800   -946.17906    53.975934   -892.20313    1933.2222   -7584.5464    2.1496124    41.862204   0.16615301 
   50900   -942.02991    57.937466   -884.09244    2075.1099    3647.1301    2.1715842    42.511567   0.19860614 
   51000   -941.54921    50.225148   -891.32407    1798.8827   -779.65825    2.1614478     43.38087   0.20751655 
   51100   -940.15949    47.374537   -892.78495    1696.7841   -5421.7446    2.1481111    39.119634   0.19967323 
   51200   -938.59326     56.02355   -882.56971    2006.5604    370.85974    2.1571804    47.599457   0.19874463 
   51300   -939.24299    51.446441   -887.79655    1842.6249    5691.9011     2.174513    44.863985   0.20699339 
   51400   -942.66499    49.855699   -892.80929    1785.6503   -7391.5405    2.1460513    43.612305   0.18378465 
   51500   -938.73464    53.751998   -884.98264    1925.2016   -127.53746    2.1527907    44.675004   0.20166342 
   51600   -937.73577    52.467321   -885.26845    1879.1892    3982.7351    2.1654959    43.596074   0.20443643 
   51700   -941.19213    48.031823    -893.1603    1720.3257   -5276.3535    2.1556596    42.688992   0.20139561 
   51800   -936.92445     50.20337   -886.72108    1798.1027    2287.0561    2.1513052    39.633151   0.21778758 
   51900   -934.56559    51.774254   -882.79134     1854.366    8065.1699    2.1747162    47.924421   0.23403088 
   52000   -941.51813    48.055016   -893.46312    1721.1564   -478.59105    2.1731012    47.851805   0.24019218 
   52100   -939.68176    51.345461    -888.3363    1839.0082   -4670.7471    2.1496195    39.216856   0.22050674 
   52200   -935.50889    52.065259   -883.44363    1864.7888    1324.2508    2.1537961    50.203926   0.20539685 
   52300    -935.9196    43.872953   -892.04664    1571.3701     7174.522    2.1715727    65.473206   0.20121996 
   52400   -937.13016    46.396357    -890.7338    1661.7492   -592.86667    2.1524892    68.348587   0.19625279 
   52500   -935.63087    51.861013   -883.76985    1857.4734   -269.62462     2.144597    63.907761   0.20730658 
   52600   -942.51747    51.278798   -891.23868    1836.6206    4594.2581     2.172379    59.920489   0.20079438 
   52700   -943.11006    52.148509   -890.96155    1867.7705   -2088.9064    2.1569296    74.854887   0.19397415 
   52800   -936.53675    52.800146   -883.73661    1891.1097   -8330.0374    2.1297479     72.00203   0.21425959 
   52900   -940.97592    48.729602   -892.24632    1745.3176    4986.3805     2.177044    77.850115   0.21004301 
   53000   -938.96467    48.119416   -890.84525     1723.463    2989.0129     2.165423     70.62489   0.18905714 
   53100   -936.38347    50.026754   -886.35671    1791.7769   -8683.3844     2.129926    67.012046   0.18201465 
   53200   -943.27753     47.67008   -895.60745    1707.3694     2063.275    2.1724203    66.119102   0.16605229 
   53300   -941.19285    47.681539   -893.51132    1707.7798    9619.7344     2.186369    60.908705   0.16022668 
   53400   -934.78228    46.244173   -888.53811    1656.2986   -6802.8321    2.1298556    65.319026   0.19290142 
   53500   -938.70319    50.674667   -888.02853    1814.9828   -3364.9583     2.142943     61.95435   0.17249261 
   53600   -944.03799    49.016064   -895.02193    1755.5776     16695.95     2.208616    62.568216   0.16666107 
   53700   -936.32169    49.770039   -886.55165    1782.5823   -5118.9761    2.1370663    67.868038   0.18149267 
   53800   -940.35601    52.062246   -888.29376    1864.6809   -12455.647    2.1268129    63.928192   0.16993299 
   53900   -941.67901       49.193   -892.48601    1761.9149    10695.743    2.1859511    63.063222   0.17250322 
   54000    -944.9533    49.498874   -895.45443    1772.8702    4054.6112     2.178337    60.965483   0.16072399 
   54100   -938.01763    52.159283   -885.85834    1868.1564   -12735.954    2.1198945    61.047477   0.16511623 
   54200    -938.7783     47.12971   -891.64859    1688.0153    4739.3672    2.1680855    61.416675   0.16718395 
   54300   -941.96055    48.952067   -893.00849    1753.2855    7347.0935    2.1815462    64.345796    0.1627341 
   54400    -938.9799    54.685147   -884.29475    1958.6237   -7482.6841    2.1342674    64.167448   0.16694271 
   54500   -941.75976    50.079871   -891.67989    1793.6794   -3505.6622    2.1546511     68.52942   0.17756799 
   54600   -940.34036    47.574523   -892.76583    1703.9469    5436.7128    2.1730259    62.901527   0.17300023 
   54700   -939.88399    54.689787   -885.19421    1958.7898   -792.61178    2.1553662    62.493558   0.20044937 
   54800   -939.26702    49.020931   -890.24609     1755.752   -5564.0017    2.1511004    62.162539   0.18998132 
   54900   -944.38342    50.282636   -894.10079    1800.9417    1243.7865     2.174518    62.468744   0.17533009 
   55000   -939.37714    53.785876   -885.59127     1926.415    4281.4474    2.1670845    60.209577    0.1669469 
   55100   -940.03544     49.76227   -890.27317     1782.304   -4388.0565    2.1490082    58.836571   0.16624096 
   55200   -943.56703    47.541746   -896.02528    1702.7729   -4035.1029    2.1629106    63.656816   0.17661035 
   55300   -939.85532    53.510854   -886.34446    1916.5647    7982.2888    2.1751241    60.515666   0.18156728 
   55400   -942.17021    52.312865   -889.85734    1873.6571   -2026.8807    2.1586666    63.826152   0.18268657 
   55500   -941.81309    44.223402   -897.58968    1583.9219    -11926.09    2.1366693    62.737429   0.18032029 
   55600   -941.65496    52.699157   -888.95581    1887.4927    7853.3246    2.1855498    62.587783   0.18572727 
   55700   -939.68655    53.054846    -886.6317    1900.2322    8297.5097    2.1819652    61.137226   0.19808337 
   55800   -938.27651    43.220708    -895.0558     1548.009   -13786.471    2.1259022    57.761023   0.19437274 
   55900   -936.56686    45.257611   -891.30925    1620.9635    2024.0797    2.1635526    60.834312   0.19517838 
   56000   -937.25467     54.14091   -883.11376    1939.1311    10128.858     2.175883    56.975731   0.19779624 
   56100   -942.07548    49.951729   -892.12375    1789.0898   -4632.9527    2.1521241    69.552164   0.16929216 
   56200     -936.735    44.896762   -891.83824    1608.0392   -2898.6676    2.1501354    63.638946   0.19432835 
   56300   -934.90361     52.46218   -882.44143     1879.005    7058.3763    2.1644258    65.714039   0.18877636 
   56400   -940.08675     48.84238   -891.24437    1749.3569    4068.9983    2.1713986    62.087087   0.17106443 
   56500   -941.00385    47.477243   -893.52661    1700.4627   -7684.9989    2.1467422    62.160873   0.20022416 
   56600   -933.68503    48.834278   -884.85076    1749.0668    3204.4187    2.1568148    64.476181   0.18824783 
   56700   -939.14947    47.409091   -891.74038    1698.0217    8110.7919    2.1815663    63.668893    0.1803321 
   56800   -941.15019    46.021254   -895.12894    1648.3144   -6043.7267    2.1528958    65.452099   0.17845143 
   56900    -937.9151    50.808973   -887.10613    1819.7931   -4819.7423    2.1490663    68.436156   0.17654363 
   57000   -940.49175    49.398866   -891.09289    1769.2882    6581.5593    2.1823244    58.999391    0.1812806 
   57100   -940.75949    45.460559   -895.29893    1628.2323    -601.6238    2.1600816    67.499048   0.17639588 
   57200   -935.49756    47.619312   -887.87825    1705.5511   -8511.7132    2.1338451    62.543216   0.18470292 
   57300   -939.64779    49.832382   -889.81541    1784.8152    7270.1376    2.1756335     65.46992   0.18796192 
   57400   -943.67934    48.149586   -895.52976    1724.5436     6122.229     2.184102    60.979702   0.17171245 
   57500   -931.88166    45.089879   -886.79179    1614.9559   -14342.154    2.1084308    62.611973    0.1928057 
   57600   -938.37144    49.968738    -888.4027     1789.699    5297.8773    2.1648368    60.477873   0.16927393 
   57700   -941.87627    50.939707   -890.93656    1824.4756    18911.806    2.2071362    63.113174   0.16391321 
   57800   -936.40074    46.195372   -890.20537    1654.5507    -12115.85    2.1215126    63.289505   0.16809247 
   57900   -935.64944    51.723379   -883.92606    1852.5438   -8724.2076    2.1299422    69.621552   0.18509386 
   58000    -946.8607    55.474326   -891.38638    1986.8892    10275.526    2.1979309    59.091199   0.15937192 
   58100   -945.27598    52.071074   -893.20491     1864.997   -1465.3538    2.1643943    64.075229     0.175375 
   58200   -941.81445    56.359066   -885.45538    2018.5773   -12222.003    2.1308327    61.429784   0.18630181 
   58300   -941.11211    47.576201   -893.53591     1704.007    7519.3583    2.1844712     62.06665     0.176493 
   58400   -941.55879    48.415295    -893.1435    1734.0603    2885.3584    2.1741486    65.518083   0.19254838 
   58500   -940.83704    53.735463   -887.10157    1924.6094   -8144.7234    2.1392866    60.814735   0.17357696 
   58600   -942.32902    51.942601   -890.38642    1860.3956   -112.75218    2.1715235    64.320724   0.18474781 
   58700    -943.3262    48.516104   -894.81009    1737.6709    7674.1567    2.1927478    59.392859   0.18215608 
   58800   -938.26026    50.532761    -887.7275    1809.9002    -7051.921    2.1426247    67.402462    0.1777589 
   58900   -937.76713    49.509793   -888.25734    1773.2612   -1741.9931    2.1523065    62.270716   0.17573883 
   59000   -945.53196    50.748897   -894.78306    1817.6415    10416.145    2.1978117    62.613919   0.16939424 
   59100   -935.01637    49.439754   -885.57662    1770.7527   -2004.1849    2.1483567    66.581942   0.19581643 
   59200   -941.35601    52.835081   -888.52093     1892.361   -8341.5545    2.1425086    61.277834    0.1892332 
   59300   -943.71904    50.497118   -893.22192    1808.6237    5557.7672    2.1850612    61.567654   0.16581077 
   59400   -941.13835    51.610893   -889.52746     1848.515    6418.9812    2.1784141    61.281056   0.18619716 
   59500     -940.066    54.517241   -885.54876    1952.6099    -16448.31    2.1166187    62.716378   0.15932459 
   59600   -943.46654    49.908715   -893.55783    1787.5492   -3364.0696     2.161062    76.700141   0.18955009 
   59700   -940.12338    52.331332   -887.79204    1874.3185    17096.068    2.2046538    63.974992   0.18276686 
   59800   -937.90541    52.007079   -885.89833     1862.705   -12774.937    2.1219354    75.953141   0.16579939 
   59900   -942.97194    48.637035   -894.33491    1742.0022     -9994.94    2.1420647    71.071844   0.16989991 
   60000   -943.64834    50.870992   -892.77735    1822.0144    9738.0795    2.1927555    73.952616    0.1701177 
   60100    -938.6253    50.967768   -887.65753    1825.4806    1004.7691     2.155218    80.341856   0.17445172 
   60200   -943.05756    55.302833   -887.75473    1980.7469     -9300.74    2.1374821    80.526765   0.18544786 
   60300   -943.66692    47.832963   -895.83396    1713.2033    7413.0674    2.1855418    77.878999    0.1680127 
   60400   -936.87164    49.462671   -887.40897    1771.5735    3400.3146    2.1611568    80.598752   0.16619838 
   60500   -938.31745    49.075525   -889.24193    1757.7073   -6872.5786     2.140253    76.856993   0.18435799 
   60600   -944.72509    47.990366   -896.73473    1718.8409    1509.6127     2.175957    78.705754   0.16412925 
   60700   -938.65465    49.965659   -888.68899    1789.5887    9083.2754    2.1784182    76.588442   0.17518136 
   60800    -940.1261    52.047162   -888.07894    1864.1406   -4886.9114    2.1486549    76.338934   0.18924222 
   60900   -940.64081    45.795058   -894.84575    1640.2129   -4959.1054    2.1482108     76.95872    0.1705806 
   61000   -941.92577    51.049757   -890.87601    1828.4172    8838.9891    2.1849831    76.652129   0.16756285 
   61100   -937.16186    52.271025   -884.89083    1872.1585    1985.8828    2.1567507    83.583837   0.18193766 
   61200   -940.19828    46.519062   -893.67921    1666.1441   -9345.4212    2.1397297    78.586564   0.18329594 
   61300   -938.45905    48.079667   -890.37939    1722.0393    6176.9976    2.1725847    74.248522   0.20057953 
   61400   -934.84228    52.660161   -882.18212     1886.096      7442.29    2.1635553    80.540405   0.18919821 
   61500   -937.38963    45.372206   -892.01742    1625.0679    -2806.067    2.1467091    73.326659   0.17269326 
   61600   -938.49663    46.578252   -891.91838    1668.2641   -2214.1116    2.1535995     79.53492   0.17447442 
   61700   -933.84994    50.323549   -883.52639     1802.407    8676.5777    2.1658526    75.615765   0.17632219 
   61800   -939.90146    48.605179   -891.29628    1740.8612   -607.63501    2.1566061    74.570916   0.17593976 
   61900   -943.27056    49.405483   -893.86507    1769.5252   -4763.0519    2.1517952    77.192433   0.16150671 
   62000   -944.00579    58.373122   -885.63267    2090.7135   -853.33937     2.158479    73.309924   0.17815363 
   62100   -944.13641    52.196388   -891.94002    1869.4853   -1125.2903     2.162859    75.140938   0.16605164 
   62200   -942.56936    47.349593   -895.21976    1695.8907   -2233.6772    2.1622049    79.218395   0.16242544 
   62300    -939.6337    53.349947   -886.28375    1910.8016   -1818.1448    2.1534314    72.307923   0.16281556 
   62400   -940.34201    48.718491   -891.62352    1744.9197    1656.8742    2.1670273    78.305417   0.17303323 
   62500   -943.87778    48.160141   -895.71764    1724.9216   -127.93778    2.1657875    75.787324   0.16774851 
   62600   -938.22252     52.01819   -886.20433    1863.1029   -1878.8897    2.1469592    77.702828   0.17223698 
   62700   -940.59376    49.469752   -891.12401    1771.8271     2236.079    2.1674062     79.47245   0.17255577 
   62800   -941.09248    46.758909   -894.33357    1674.7346    2498.3139    2.1687844    86.045613   0.16476143 
   62900   -937.82709    52.524535   -885.30255    1881.2384   -2562.9886     2.141814    87.897085   0.17129213 
   63000   -937.96343    48.300704   -889.66273    1729.9561     2540.852    2.1633917    88.511006    0.1916086 
   63100    -941.1855    47.349087   -893.83641    1695.8726    4453.5062    2.1776257    75.313268   0.17330699 
   63200   -938.63374    54.244805   -884.38893    1942.8522   -10073.143    2.1281128    72.692762   0.18679117 
   63300   -941.09464    49.848715   -891.24593    1785.4002    2499.6528    2.1651325    76.020083   0.14797773 
   63400   -940.63664    48.599367   -892.03728    1740.6531     10074.61    2.1881457    78.068107   0.17393781 
   63500   -937.51079    52.097271   -885.41352    1865.9353   -8719.7651    2.1333043    78.411636   0.19040297 
   63600   -938.47808    51.531047   -886.94704    1845.6552   -7345.8793    2.1373874    82.606887   0.17547281 
   63700   -945.35086    53.195272   -892.15559    1905.2617    10733.172    2.1994833    77.873227   0.15797685 
   63800   -938.20325    49.977585   -888.22566    1790.0159    2040.7125    2.1607418    79.239174   0.14637659 
   63900   -934.22251    47.125118   -887.09739    1687.8508   -12905.942    2.1193789    78.232385   0.17649554 
   64000   -941.39967    45.449188   -895.95048    1627.8251    10508.615    2.1899115    76.650926   0.17573926 
   64100   -940.73321    51.701779   -889.03143    1851.7702    6335.0066     2.173851    75.884175   0.17158813 
   64200   -939.06672     50.74896   -888.31776    1817.6437   -6736.2481    2.1360484    76.826757    0.1638536 
   64300   -942.73267    47.009813   -895.72286     1683.721    466.56136    2.1637067    71.218894   0.16415714 
   64400   -940.22823    47.637284   -892.59095    1706.1948    7474.6231    2.1792613    78.324829    0.1732366 
   64500   -941.91731    54.888624   -887.02869    1965.9115   -5902.3119    2.1441757    75.471914   0.17239303 
   64600   -943.40728    49.876502   -893.53078    1786.3954   -4369.7503    2.1524705    78.392739   0.16190367 
   64700   -944.26278    51.560889   -892.70189     1846.724    4322.8558    2.1765815     79.53229    0.1672001 
   64800   -939.17616    54.711421   -884.46474    1959.5647   -3547.1789    2.1430844    75.297341   0.16880547 
   64900   -943.16069    50.167419   -892.99327     1796.815   -4929.0458    2.1555392     76.01772   0.16824916 
   65000    -942.5462     50.89028   -891.65592    1822.7053    2294.5423    2.1723064     78.76923   0.17002972 
   65100   -937.51761     54.73017   -882.78744    1960.2362   -398.47993    2.1444701    76.908285   0.17010526 
   65200   -940.36661    48.378786   -891.98783    1732.7527   -3819.2807    2.1479532    76.586673   0.21391139 
   65300   -940.60765    49.403714   -891.20394    1769.4619     4403.739    2.1622767    74.145684    0.2062825 
   65400   -935.34818    53.032053   -882.31612    1899.4158    6412.5442    2.1569744    67.686717   0.19465699 
   65500   -938.98943    47.549055   -891.44038    1703.0347   -4846.9356    2.1431302    76.742798   0.19658023 
   65600   -938.31194     45.98647   -892.32547    1647.0686   -7704.3487    2.1377771    70.058535    0.1841319 
   65700   -938.13221    55.012696   -883.11952    1970.3553    10312.642    2.1789348    72.459252   0.18246963 
   65800   -939.82724    50.577637    -889.2496    1811.5075    2325.1205    2.1638596    78.028149    0.2079225 
   65900   -940.20614    45.603414   -894.60273    1633.3489   -13754.619    2.1241254    86.500361   0.19337488 
   66000    -943.7211    57.533751   -886.18735    2060.6503     2281.435    2.1701518     94.45425   0.17983712 
   66100   -937.24057     47.87844   -889.36213    1714.8321    10434.044    2.1822336    93.252152   0.17789504 
   66200   -942.58187    45.917791   -896.66408    1644.6088   -7564.7256    2.1500289    96.691051   0.17017463 
   66300   -940.05475    51.495728   -888.55902    1844.3902   -3142.8217    2.1509959    98.754457   0.18199209 
   66400   -941.64458    54.729825   -886.91476    1960.2238    7952.7655    2.1819323    92.764495   0.16591195 
   66500   -944.52697    48.361255   -896.16572    1732.1248    -611.6818    2.1664413     97.38187   0.16620425 
   66600   -939.40693    50.283628    -889.1233    1800.9772   -7395.9846     2.138853    96.523943   0.16894018 
   66700   -937.66511    51.644997   -886.02012    1849.7365    6800.6131    2.1687209    89.744843   0.17691845 
   66800   -944.83179    49.973562   -894.85823    1789.8718    2534.4166    2.1760469    93.522312   0.18302345 
   66900   -939.35606    50.901575   -888.45449    1823.1098   -5530.6994    2.1390833     93.40304   0.18145982 
   67000    -941.0731    55.015585   -886.05752    1970.4587   -1165.6056    2.1570327    94.474333   0.16525675 
   67100   -941.91343    48.544675   -893.36875    1738.6942    5050.2063    2.1801491    95.357918    0.1723588 
   67200   -940.79515    52.494616   -888.30054    1880.1668   -5234.3937    2.1485028    91.588511   0.16972226 
   67300   -939.44429    53.609325   -885.83497    1920.0916   -5984.6521    2.1455758    90.124322   0.18546128 
   67400    -943.2736     49.89866   -893.37494     1787.189    5329.9425    2.1799124    95.331454   0.15419918 
   67500   -942.88707    54.235849   -888.65122    1942.5314   -552.18549     2.160856    93.707438   0.18194994 
   67600   -937.24087    51.225898   -886.01497    1834.7259   -9668.5327    2.1272057    100.64726   0.19416987 
   67700   -943.96824    48.276644   -895.69159    1729.0943    7416.1494    2.1854215    93.252511   0.16009468 
   67800   -944.74575    54.874627   -889.87112    1965.4101     8410.372    2.1881317     92.93592   0.17366778 
   67900   -938.90929    50.593721   -888.31557    1812.0836   -14205.821    2.1205969    89.951242   0.17578918 
   68000   -943.12327    48.747776   -894.37549    1745.9686   -4417.3801    2.1540017    92.932624   0.16742655 
   68100   -944.50681    50.392511    -894.1143     1804.877    12929.387    2.2059839    97.019657   0.16319767 
   68200   -938.27074    51.325389   -886.94535    1838.2893    -4751.597    2.1436545    93.358226   0.17594524 
   68300   -940.11631    49.282766   -890.83354    1765.1299   -9212.2565    2.1363093    93.610578   0.19363978 
   68400   -941.76394    47.824222   -893.93972    1712.8902    7558.6638    2.1909029    95.372136   0.18835558 
   68500   -936.58282    53.058789   -883.52403    1900.3734   -1380.8112    2.1505783    95.705183   0.20780507 
   68600   -939.14842    50.675368   -888.47305    1815.0079   -7135.8168    2.1402134    78.882999   0.17750034 
   68700   -944.37495    51.993265   -892.38168    1862.2102    2459.6327    2.1762497    79.062397   0.17773021 
   68800   -936.48804    53.070581   -883.41746    1900.7957    3539.7085     2.159137    80.349733   0.19922289 
   68900   -935.20822    49.460414   -885.74781    1771.4926    -3761.837     2.147305     78.89172   0.19432332 
   69000   -940.37409    48.116953   -892.25714    1723.3748   -4931.0697    2.1516557    79.517308   0.20091929 
   69100   -936.15211    50.092743   -886.05937    1794.1404    9265.0859    2.1722453    94.636955   0.20221742 
   69200   -935.44738    52.585304   -882.86207    1883.4149    2345.6961    2.1534231    102.96136   0.20675178 
   69300   -939.55407    47.110517   -892.44355    1687.3279   -7116.8953    2.1399074    114.21648   0.21001429 
   69400   -939.77794    50.875634   -888.90231    1822.1807    6716.8787    2.1741208    92.084284   0.20488614 
   69500   -939.52722    56.361215   -883.16601    2018.6543    6406.1727    2.1775115    95.077235   0.21448675 
   69600   -941.03626    54.163197   -886.87307    1939.9293   -22938.203    2.1016895    101.24686   0.21581922 
   69700   -942.61297     49.59171   -893.02126    1776.1952   -2735.1265    2.1600642    101.15062    0.2059046 
   69800   -935.25826    50.178453    -885.0798    1797.2102     18352.16    2.2000886    105.73702   0.19868082 
   69900   -938.14805    48.954785   -889.19327    1753.3829   -5334.6456    2.1388925    100.56766    0.1873286 
   70000   -945.18742    47.539629   -897.64779    1702.6971   -6358.7114    2.1570618    97.501032   0.17694842 
   70100   -942.29928    53.044745   -889.25453    1899.8704    5756.7079    2.1791067       101.92   0.18663906 
   70200    -939.8108    51.784727   -888.02608    1854.7411    1403.8598    2.1648372    100.25689    0.1794234 
   70300   -938.99611    42.419716   -896.57639    1519.3204   -6940.3612    2.1499911    105.37306   0.17956798 
[...]
   86800   -939.47117    52.573706   -886.89746    1882.9995    680.63535    2.1587944    77.173776   0.16996556 
   86900   -940.44011    50.597319   -889.84279    1812.2125   -7750.6592    2.1442546    79.344221    0.1648702 
   87000   -941.54477    45.856549   -895.68822    1642.4153    4430.7035    2.1746609    75.290641   0.16169624 
   87100    -936.4792    49.819063   -886.66013    1784.3382    2849.8649    2.1574198    76.779797   0.17742355 
   87200   -937.39408    47.316246   -890.07783    1694.6963   -4344.7652    2.1440658    74.789273   0.16835045 
   87300   -945.65901    48.985445   -896.67356     1754.481   -1414.2495    2.1678569    77.908851    0.1548899 
   87400   -934.72068    48.254783    -886.4659    1728.3113    10040.747    2.1721053    75.001989   0.16764289 
   87500   -938.39597    49.602761   -888.79321     1776.591   -2355.2552    2.1486501    82.729404   0.17067998 
   87600   -941.67949    46.111805   -895.56768    1651.5576   -6778.4621    2.1443302    77.898205   0.18890892 
   87700   -939.67099    50.820865   -888.85012    1820.2191     12768.74    2.1916241     79.07054   0.19003916 
   87800   -935.91416    50.159658    -885.7545     1796.537    1973.2484     2.156512    78.063042    0.1813868 
   87900   -943.39382    48.484301   -894.90952    1736.5318   -12807.998    2.1331141    71.090455   0.15660217 
   88000    -937.7942    47.332156   -890.46204    1695.2662    7431.1835    2.1730551    72.562938   0.15754105 
   88100   -934.07345    50.799479   -883.27397    1819.4531     9935.789    2.1696475    75.791563   0.16617309 
   88200   -938.70053    46.380062   -892.32047    1661.1656   -6836.6269     2.138888    78.765463   0.18104258 
   88300    -942.6083    49.945632   -892.66267    1788.8714   -3390.5319      2.15549    77.159272    0.1597885 
   88400   -937.90503    54.120645   -883.78438    1938.4052    8990.8698    2.1740944    74.535724    0.1838585 
   88500   -943.06938    51.505017   -891.56436    1844.7229   -5031.0713    2.1560058    80.478375    0.1774079 
   88600   -941.94731    47.202394   -894.74492    1690.6186    -6183.476    2.1505979    78.075047   0.17305341 
   88700   -940.43207    55.202608   -885.22946    1977.1572    1656.6369    2.1611356      81.4786   0.18435298 
   88800   -939.17957    48.839362   -890.34021    1749.2488    2935.1856    2.1688498    78.904487   0.16774135 
   88900    -941.6121    45.749674   -895.86243    1638.5874    -3162.006    2.1553255    76.404275   0.16644056 
   89000    -939.6867    53.026804   -886.65989    1899.2278   -3387.0601    2.1528805    72.950387   0.18543893 
   89100   -941.32869     51.46042   -889.86827    1843.1256    3278.5716     2.170437    75.011753     0.167796 
   89200   -944.34437    48.671441   -895.67293    1743.2345    16.280817    2.1652045    76.653463   0.16754591 
   89300   -936.83918    50.216907   -886.62227    1798.5875   -1407.2828    2.1459351    78.330602   0.18768251 
   89400   -941.04154    51.487329   -889.55421    1844.0894    1795.8338    2.1635302    77.171892   0.17967962 
   89500    -943.7301    48.324555   -895.40555    1730.8103     1738.356    2.1713244    75.047476   0.16213814 
   89600   -938.14328    51.781471   -886.36181    1854.6245   -1631.7395    2.1452924    72.541563   0.16993592 
   89700   -943.04053    53.307646   -889.73288    1909.2866   -904.21561    2.1587248    80.021794   0.15358902 
   89800     -944.843    49.900184   -894.94281    1787.2436    1567.3662    2.1728016    78.388034   0.16329773 
   89900   -936.36375    50.611968   -885.75178    1812.7371   -1675.3822    2.1497028    94.880845   0.23048665 
   90000   -938.33599    51.456277   -886.87971    1842.9772    925.09057    2.1603801    86.872721   0.19443425 
   90100   -941.19301    46.913579   -894.27943    1680.2743    3375.7313    2.1673106    99.084288   0.20905054 
   90200   -935.31188    49.718178   -885.59371    1780.7248    1730.8933    2.1528567    89.867241   0.22492425 
   90300   -936.88457     51.02353   -885.86104    1827.4778   -1404.2713    2.1509107    86.759852   0.20087231 
   90400    -939.7098    46.531189   -893.17861    1666.5785    1481.6252    2.1643065    105.05264    0.2058341 
   90500   -940.96503    55.213338   -885.75169    1977.5415    527.04608    2.1590096    85.557135    0.2058334 
   90600   -935.57944    50.416367   -885.16308    1805.7314    1422.0846    2.1525493    72.525899   0.17522383 
   90700   -943.51324    49.668203   -893.84504    1778.9349   -3826.1476    2.1532866    91.455678   0.19095844 
   90800   -940.20088     52.54292   -887.65796    1881.8969    2664.6137    2.1674799    88.889056   0.22426792 
   90900     -938.009    52.847799    -885.1612    1892.8165    2730.0844    2.1610781    76.086399   0.18057286 
   91000   -944.75356    49.329497   -895.42407    1766.8037   -7760.5568    2.1509662    94.348595   0.19828291 
   91100   -942.02402    51.707426   -890.31659    1851.9725   -2286.2866    2.1594324    85.010166   0.19054488 
   91200   -940.84732     57.18926   -883.65806    2048.3119    6561.2075     2.171228    77.277523   0.17870064 
   91300   -942.62616    49.642029   -892.98413    1777.9974   -5349.6491    2.1554049    68.188912   0.19485372 
   91400    -941.6707    50.704221   -890.96648    1816.0413   -10244.684    2.1427193    86.967004   0.18638389 
   91500   -938.02514    54.842257   -883.18288    1964.2508    5691.3582    2.1701173    113.22021   0.20560453 
   91600   -943.41159    52.375377   -891.03622    1875.8961    1047.3854    2.1698645    99.086686   0.20083808 
   91700   -941.16285    48.893709   -892.26914    1751.1954   -7876.5763    2.1410131    96.017343   0.19744652 
   91800   -936.16539    54.240037   -881.92536    1942.6814   -67.640271    2.1524994    80.468373   0.20812558 
   91900   -938.23977    49.243549   -888.99622    1763.7254    11183.123    2.1857563    107.37539   0.19297182 
   92000   -938.57163    45.827939   -892.74369    1641.3906   -4305.4642    2.1486891    101.11652    0.1947215 
   92100   -936.90263    51.954302   -884.94833    1860.8147    -6562.645    2.1385971      93.1706    0.2153386 
   92200   -940.53211    51.026971   -889.50514    1827.6011    10012.181    2.1885046    92.660985   0.18105156 
   92300   -941.02978    48.185573   -892.84421    1725.8325   -3235.6333    2.1584384    87.059571   0.22562173 
   92400   -936.44303    48.772332    -887.6707    1746.8481   -7048.8391    2.1366228    90.304198   0.23393547 
   92500   -935.77074    52.254798   -883.51595    1871.5774    8338.7967    2.1719538    95.860706   0.22855721 
   92600   -942.40865    48.235878   -894.17278    1727.6342    9555.8294    2.1895424     98.09822     0.182876 
   92700   -935.93527     47.03496   -888.90031    1684.6217   -13311.827    2.1161019    92.940767   0.20676767 
   92800    -934.7208    47.469135   -887.25167    1700.1723    1275.7594    2.1547607    98.240178   0.20474696 
   92900   -938.94132    48.394177   -890.54714    1733.3039    25492.661    2.2220133    99.776405   0.18589109 
   93000   -943.07145    46.434283   -896.63717    1663.1076   -12928.335    2.1346609    89.241947   0.18316858 
   93100   -936.21798    47.385867   -888.83211    1697.1899   -10284.025    2.1279824    94.541639   0.22697774 
   93200   -938.93282    52.852347   -886.08047    1892.9794    10531.782    2.1850167    96.390468   0.19553384 
   93300   -942.01842    47.245771   -894.77265    1692.1722   -702.48778    2.1627441    109.07345   0.19238424 
   93400   -935.59073    47.279434    -888.3113    1693.3779   -4928.4675    2.1368493    122.01246   0.20119726 
   93500   -936.81299    52.056625   -884.75636    1864.4795    4196.0614    2.1651921    92.622163   0.18676902 
   93600   -939.64996    48.052292   -891.59767    1721.0588    2042.1391    2.1658274    100.65547   0.20864971 
   93700   -943.39279     52.27199    -891.1208    1872.1931   -7210.2322    2.1439673     85.91726   0.18501595 
   93800   -937.75581    56.252959   -881.50285     2014.777    -2363.068    2.1458461    81.836915   0.20017009 
   93900   -941.54905    52.817297   -888.73176     1891.724    5024.6793    2.1793348    90.832761    0.2008543 
   94000   -943.64839    51.367786   -892.28061    1839.8078   -10196.012    2.1447171    90.616233    0.1955967 
   94100   -936.43193    52.501645   -883.93029    1880.4185   -3963.7075    2.1365571    96.252808   0.19573186 
   94200   -940.10808    54.767787    -885.3403    1961.5835    12446.622    2.1808047    93.583309   0.17561914 
   94300   -942.83195    50.477628   -892.35432    1807.9256   -1459.4484    2.1602054    96.447015   0.18322001 
   94400   -936.10889    46.637302   -889.47159     1670.379   -4373.5994     2.144172    100.69186   0.21442229 
   94500   -938.79389    55.481001   -883.31289    1987.1283    1149.7856    2.1666403    99.674902   0.21596714 
   94600   -939.08011    46.420877   -892.65924    1662.6275    1937.2802    2.1686339    89.361586    0.2100609 
   94700   -938.86901    47.069429   -891.79958    1685.8563   -11921.604    2.1363544    92.189185   0.20478988 
   94800   -938.28751    52.648683   -885.63883    1885.6849    2338.8037    2.1662356    98.958381   0.19299551 
   94900   -943.96206    50.568959    -893.3931    1811.1967    4849.9443     2.180812    94.137512   0.18779567 
   95000   -943.40337    49.236921   -894.16644     1763.488   -8769.8772    2.1483065    100.71372   0.18111848 
   95100   -936.96475    50.124971   -886.83978    1795.2947    1369.9547    2.1531569    97.189124   0.20416012 
   95200   -937.06304    49.495199   -887.56784    1772.7385    8274.5117    2.1819156    108.15376   0.20980156 
   95300   -943.91128    47.708492   -896.20279    1708.7452   -5826.0096    2.1537145    85.765469   0.19956369 
   95400   -939.88568    50.166333   -889.71935    1796.7761   -8861.7999    2.1421937    94.879473   0.21031448 
   95500   -935.36398    50.877792   -884.48618     1822.258    19593.078    2.2057334    104.96866    0.2491608 
   95600   -938.04558    49.227058   -888.81852    1763.1347   -7715.3081    2.1288628    109.91404    0.2244965 
   95700   -934.41367    47.875445   -886.53823    1714.7248   -12979.589    2.1185296    122.74403   0.22210359 
   95800   -932.22852    55.738641   -876.48988     1996.356    7562.7634    2.1648887    130.72739   0.23791343 
   95900   -936.27816    51.471628   -884.80653     1843.527    583.74763    2.1500678     105.4926   0.21892716 
   96000   -938.99973    49.481255   -889.51848    1772.2391   -6126.0561    2.1449116    109.79854   0.21742359 
   96100   -935.53273     47.12779   -888.40494    1687.9465     3623.083    2.1605937    113.15436   0.21855646 
   96200    -934.4819    55.321924   -879.15998    1981.4307    1148.0265    2.1492999    126.69916   0.20247253 
   96300   -941.35928    52.495473   -888.86381    1880.1975   -3741.2218    2.1468161    116.40912   0.19630375 
   96400   -939.88078    49.105247   -890.77554    1758.7719     -339.438     2.160586    121.37357   0.20882276 
   96500    -941.6976    53.538767   -888.15884    1917.5645    4491.9637    2.1713586    131.98356   0.18850265 
   96600   -932.11451    53.300391   -878.81412    1909.0267    -5936.699    2.1259019    137.24222    0.1899934 
   96700   -936.82178    48.616575    -888.2052    1741.2694    849.38694     2.158581    137.49795   0.21202686 
   96800   -938.23741    48.891954   -889.34546    1751.1325    9445.1605    2.1815796     138.6544   0.22542286 
   96900   -938.42597    45.737523   -892.68845    1638.1522   -2549.0736    2.1480545    139.40397   0.19409749 
   97000   -945.41466     43.62435   -901.79031     1562.466    -5032.217    2.1598473    134.76467   0.17843482 
   97100   -943.29179      50.1585   -893.13329    1796.4956    13676.206    2.1982193    128.19235   0.16437638 
   97200   -938.37549    48.706961   -889.66852    1744.5067    3032.4502    2.1665993    135.74702   0.18841011 
   97300   -940.99181    49.509424   -891.48238     1773.248     -18213.4    2.1167988    126.53315   0.17038366 
   97400   -939.53731     53.22907   -886.30824    1906.4723    8460.3649    2.1776722    133.23686   0.16108628 
   97500   -936.57622    57.120201   -879.45602    2045.8385    6389.7262    2.1623719    139.76443   0.16270566 
   97600   -940.00526    50.207797   -889.79747    1798.2612    -6789.265    2.1396873    128.98538     0.156448 
   97700   -940.94163    50.141715   -890.79991    1795.8944    549.21682    2.1636179    129.29937   0.16928572 
   97800   -943.50399    53.172845   -890.33114    1904.4585    4182.6968    2.1742344    125.65106   0.18450961 
   97900   -933.74304    54.508361   -879.23468    1952.2918   -5707.5217    2.1299707    128.46774    0.1819384 
   98000   -938.55425    49.460955    -889.0933     1771.512    5066.2304    2.1653569    132.07644   0.16275805 
   98100   -940.49638    49.499801   -890.99657    1772.9033    2984.1952    2.1679532    135.25939   0.15693613 
   98200   -938.09448    48.548823   -889.54566    1738.8428   -739.63934    2.1533132    139.67152   0.17159284 
   98300   -933.24122    54.138967   -879.10225    1939.0615   -1085.0058    2.1393043    125.88359   0.20313585 
   98400    -941.5779    52.202769   -889.37513    1869.7139    6554.6655    2.1824721    128.41637   0.17885743 
   98500   -939.21752    47.775162   -891.44236     1711.133   -4537.2255    2.1513453    127.49565   0.18778953 
   98600   -937.42574    50.321447    -887.1043    1802.3318   -5837.9028    2.1391414    139.77998   0.19265276 
   98700   -937.43322    59.148245   -878.28497    2118.4756    7870.4231    2.1714838    133.97651   0.17470092 
   98800   -940.91688    51.758678    -889.1582    1853.8082    6280.1251    2.1740092    131.63894   0.19203524 
   98900   -939.40889    48.000056   -891.40883    1719.1879   -17662.282    2.1167598    128.39643   0.17825185 
   99000   -940.78241    54.161822   -886.62059      1939.88    4512.4757    2.1759605    130.78179   0.17838796 
   99100   -944.95673     50.04665   -894.91008    1792.4895    10782.515    2.2000987    126.45406   0.18462422 
   99200   -943.12354    46.778272   -896.34527    1675.4281   -12029.663    2.1441073    137.49609   0.16912655 
   99300   -940.36904    50.057997   -890.31104    1792.8959    33.292073    2.1612647    131.34836   0.19213836 
   99400   -938.67776    50.379078   -888.29868    1804.3959    7183.5564     2.177153    135.40239   0.19750988 
   99500   -937.55293    45.470139   -892.08279    1628.5755    -598.2885     2.156132    126.03386   0.19920662 
   99600   -948.01446    49.873763    -898.1407    1786.2973   -1808.4637    2.1735335      128.233   0.18573592 
   99700   -941.64859    51.227723   -890.42087    1834.7913     4730.734    2.1762912    127.38808   0.17825978 
   99800   -939.57166    50.886765    -888.6849    1822.5794   -2962.5557    2.1552568    133.98459   0.20382853 
   99900   -943.86402    52.070256   -891.79377    1864.9677    -6256.356    2.1542761    131.18584     0.175744 
  100000   -948.32483    51.167753   -897.15707    1832.6433    6437.0689     2.194827    128.98991    0.1675678 
  100100   -936.84715    48.042372   -888.80478    1720.7035    2813.7432    2.1593423    126.90309   0.19684149 
  100200   -939.02267    49.235937   -889.78673    1763.4527   -8710.1166    2.1356914    142.28082   0.18762417 
  100300   -945.07559    48.223237   -896.85235    1727.1815    6864.0754    2.1866678    138.75455   0.17737904 
  100400   -944.78588    49.721898   -895.06398    1780.8581    6228.0652    2.1878285    139.76462   0.17281517 
  100500   -938.72608    49.418826   -889.30725    1770.0031   -10158.535    2.1315519    131.36644   0.18686292 
  100600   -934.86072    44.248469   -890.61225    1584.8197    913.81019    2.1517748    130.14566   0.18059466 
  100700   -943.50471    47.904252   -895.60045    1715.7566    15985.422    2.2079635    130.15484   0.17816676 
  100800   -936.20011    51.214868   -884.98524    1834.3308   -5068.6533    2.1362982    129.84283   0.17516577 
  100900   -936.22869    48.723863   -887.50483    1745.1121   -3783.8181    2.1424881    128.31118   0.15087774 
  101000   -936.95701    46.551724   -890.40529    1667.3139    9632.3938    2.1827445    143.46969   0.17282586 
  101100   -942.31513    48.196259   -894.11887    1726.2152    2878.0168    2.1736914    136.35669    0.1579775 
  101200   -931.96359    49.499316   -882.46427     1772.886    -9615.701    2.1183165     132.2738   0.18685851 
  101300   -937.45639    49.002219   -888.45417    1755.0818    10373.407    2.1806519     126.8998     0.190617 
  101400   -940.35586    49.285298   -891.07056    1765.2207    6117.6831    2.1746383    131.97966   0.16727133 
  101500    -937.7524    50.111939   -887.64046    1794.8279   -12650.677    2.1275283    130.01779   0.17951875 
  101600   -935.28127    52.687968    -882.5933    1887.0919   -781.14263    2.1466649    136.39915   0.18350153 
  101700   -941.69205    50.779614   -890.91243    1818.7416    7313.6246     2.180261    132.19646   0.15598365 
  101800   -938.72454    47.193329   -891.53121    1690.2939    128.43081     2.157766     130.0628    0.1832429 
  101900   -937.05535    54.784433   -882.27092    1962.1797   -6217.9111    2.1420004    122.99427    0.1875963 
  102000   -942.00273    51.588445   -890.41428     1847.711    1629.0977    2.1695931    145.86627   0.19110962 
  102100   -940.55622    49.260579   -891.29564    1764.3353    2989.6934    2.1655352    134.68272   0.21055086 
  102200   -932.40929    48.981317   -883.42798    1754.3331     -2353.58    2.1422924    114.18633   0.20549063 
  102300   -936.77346    48.837632   -887.93582    1749.1869   -484.17928    2.1539917    117.62464   0.19615582 
  102400   -945.19853    53.524504   -891.67403    1917.0536   -196.98879    2.1686222    130.42232   0.21088751 
  102500   -935.94457    52.858886   -883.08568    1893.2136    3134.3323    2.1611316     121.3662   0.21206625 
  102600   -935.46242    46.468548   -888.99387    1664.3349   -7182.1583    2.1392858    126.55733   0.21316905 
  102700   -937.59217    45.137903   -892.45426     1616.676    1057.9307    2.1564165    140.63893   0.22324258 
  102800   -938.69183     55.89755   -882.79428    2002.0475    7206.3141    2.1770645    122.54623   0.20710731 
  102900   -939.96503    51.137323   -888.82771    1831.5535   -7956.8758    2.1405263    121.16417   0.18726521 
  103000   -941.71096    47.234095   -894.47687     1691.754    -5596.776    2.1504527    103.80209    0.1937422 
  103100   -939.45425     53.13099   -886.32326    1902.9594    10908.028    2.1825976    91.535585   0.21808246 
  103200   -937.23296    51.459644   -885.77332    1843.0978   -1496.8019     2.151399    91.290382   0.20507276 
Loop time of 70.2254 on 1 procs for 100000 steps with 217 atoms

Performance: 369.097 ns/day, 0.065 hours/ns, 1423.987 timesteps/s
100.0% CPU use with 1 MPI tasks x no OpenMP threads

MPI task timing breakdown:
Section |  min time  |  avg time  |  max time  |%varavg| %total
---------------------------------------------------------------
Pair    | 66.805     | 66.805     | 66.805     |   0.0 | 95.13
Neigh   | 1.8423     | 1.8423     | 1.8423     |   0.0 |  2.62
Comm    | 0.47289    | 0.47289    | 0.47289    |   0.0 |  0.67
Output  | 0.034033   | 0.034033   | 0.034033   |   0.0 |  0.05
Modify  | 0.91459    | 0.91459    | 0.91459    |   0.0 |  1.30
Other   |            | 0.1561     |            |       |  0.22

Nlocal:    217 ave 217 max 217 min
Histogram: 1 0 0 0 0 0 0 0 0 0
Nghost:    950 ave 950 max 950 min
Histogram: 1 0 0 0 0 0 0 0 0 0
Neighs:    4109 ave 4109 max 4109 min
Histogram: 1 0 0 0 0 0 0 0 0 0
FullNghs:  8218 ave 8218 max 8218 min
Histogram: 1 0 0 0 0 0 0 0 0 0

Total # of neighbors = 8218
Ave neighs/atom = 37.871
Neighbor list builds = 3138
Dangerous builds = 77
Total wall time: 0:01:12
