LAMMPS (3 Mar 2020)
Reading data file ...
  orthogonal box = (0 0 0) to (17.469 17.469 17.469)
  1 by 1 by 1 MPI processor grid
  reading atoms ...
  217 atoms
  read_data CPU = 0.000999912 secs
Reading potential file library.meam with DATE: 2012-06-29
Reading potential file LiSi.meam with DATE: 2020-11-07
1 atoms in group Li
216 atoms in group Si
Neighbor list info ...
  update every 1 steps, delay 10 steps, check yes
  max neighbors/atom: 2000, page size: 100000
  master list distance cutoff = 6
  ghost atom cutoff = 6
  binsize = 3, bins = 6 6 6
  2 neighbor lists, perpetual/occasional/extra = 2 0 0
  (1) pair meam/c, perpetual
      attributes: full, newton on
      pair build: full/bin/atomonly
      stencil: full/bin/3d
      bin: standard
  (2) pair meam/c, perpetual, half/full from (1)
      attributes: half, newton on
      pair build: halffull/newton
      stencil: none
      bin: none
Setting up Verlet run ...
  Unit style    : metal
  Current step  : 0
  Time step     : 0.003
Per MPI rank memory allocation (min/avg/max) = 8.895 | 8.895 | 8.895 Mbytes
Step Temp E_pair E_mol TotEng Press Volume 
       0         1800   -951.04357            0   -900.78722   -114161.75    5330.9442 
    3200    1748.1151    -938.8863            0   -890.07859   -11397.809     4735.421 
Loop time of 2.30214 on 1 procs for 3200 steps with 217 atoms

Performance: 360.291 ns/day, 0.067 hours/ns, 1390.012 timesteps/s
100.0% CPU use with 1 MPI tasks x no OpenMP threads

MPI task timing breakdown:
Section |  min time  |  avg time  |  max time  |%varavg| %total
---------------------------------------------------------------
Pair    | 2.2077     | 2.2077     | 2.2077     |   0.0 | 95.90
Neigh   | 0.042874   | 0.042874   | 0.042874   |   0.0 |  1.86
Comm    | 0.015268   | 0.015268   | 0.015268   |   0.0 |  0.66
Output  | 2.5561e-05 | 2.5561e-05 | 2.5561e-05 |   0.0 |  0.00
Modify  | 0.030981   | 0.030981   | 0.030981   |   0.0 |  1.35
Other   |            | 0.005275   |            |       |  0.23

Nlocal:    217 ave 217 max 217 min
Histogram: 1 0 0 0 0 0 0 0 0 0
Nghost:    957 ave 957 max 957 min
Histogram: 1 0 0 0 0 0 0 0 0 0
Neighs:    4194 ave 4194 max 4194 min
Histogram: 1 0 0 0 0 0 0 0 0 0
FullNghs:  8388 ave 8388 max 8388 min
Histogram: 1 0 0 0 0 0 0 0 0 0

Total # of neighbors = 8388
Ave neighs/atom = 38.6544
Neighbor list builds = 71
Dangerous builds = 0
Setting up Verlet run ...
  Unit style    : metal
  Current step  : 3200
  Time step     : 0.003
Per MPI rank memory allocation (min/avg/max) = 9.664 | 9.664 | 9.664 Mbytes
Step PotEng KinEng TotEng Temp Press Density c_msdli[4] c_msdsi[4] 
    3200    -938.8863    48.807709   -890.07859    1748.1151   -11397.809    2.1297595            0 5.4350456e-32 
    3300   -939.33465    50.254112   -889.08054      1799.92    5665.2868    2.1667127 0.0030815888   0.12798413 
    3400   -942.00353    50.810898   -891.19263    1819.8621    5472.4203    2.1739557   0.25449879    0.1180781 
    3500   -942.80725    47.807644    -894.9996    1712.2964   -9729.7574    2.1364212   0.27587651   0.11609951 
    3600   -947.98836    46.429166    -901.5592    1662.9243    4249.2343    2.1855316  0.067265417   0.13159074 
    3700   -945.80535    53.735832   -892.06952    1924.6226    3871.2395    2.1777536   0.07799174  0.092361435 
    3800   -939.20361    48.643528   -890.56008    1742.2348   -7209.8896    2.1380083   0.12687418   0.11537334 
    3900   -938.33683    50.598624   -887.73821    1812.2592   -572.28217    2.1544929   0.25578451   0.13311999 
    4000   -946.20065    48.060269   -898.14038    1721.3445    10328.705    2.1966081  0.099486624   0.11589793 
    4100   -941.61241    48.804753   -892.80765    1748.0093   -6987.3801    2.1390348  0.081470076   0.11477547 
    4200   -935.92505    46.393718   -889.53133    1661.6547     2158.847     2.153368  0.027825272   0.11173891 
    4300   -939.34751    50.056745   -889.29076    1792.8511    8835.3016    2.1829302   0.73595423   0.13256411 
    4400   -942.18524    44.831258   -897.35398    1605.6931   -7310.4063    2.1480479  0.043251459   0.15275303 
    4500    -943.6555    47.113552   -896.54195    1687.4366   -5011.9915    2.1557227   0.34344553   0.14354475 
    4600   -941.20526    52.276648   -888.92862    1872.3599     12006.36    2.1846962   0.10181269   0.14939488 
    4700   -939.08355    48.650526   -890.43302    1742.4854   -3097.6539    2.1472927  0.017388036   0.12924264 
    4800   -939.91249    49.341799   -890.57069    1767.2443     -7028.06    2.1389485  0.010034325   0.12584311 
    4900   -947.03877    46.271712   -900.76706    1657.2849    14675.543    2.2091481  0.083715374   0.12765947 
    5000    -942.1243    49.986033   -892.13827    1790.3184   -4703.8923    2.1514278   0.14595235   0.12932135 
    5100   -941.94816    51.380414   -890.56775    1840.2601   -9653.3678    2.1364926   0.36464113    0.1346066 
    5200   -941.55415    54.146383   -887.40777    1939.3271    6319.5934    2.1750851    0.1277122    0.1392135 
    5300   -944.27027    49.609175    -894.6611    1776.8207   -2678.9713    2.1604666   0.41914383   0.13295723 
    5400   -941.97607     45.40076   -896.57531    1626.0906   -7475.9182    2.1457806   0.17732138    0.1299421 
    5500   -940.37311    50.369514   -890.00359    1804.0533    8319.3412    2.1783242   0.19968804   0.14665017 
    5600   -936.78574    47.914525   -888.87122    1716.1245    3651.0979    2.1610257  0.078710338   0.13509291 
    5700   -938.63951    47.591986   -891.04752    1704.5723   -9879.4367    2.1327531   0.17709373   0.13819506 
    5800   -943.01419     45.33231   -897.68188    1623.6389    9501.4245     2.189723   0.61751138   0.12226528 
    5900   -940.19926    50.949285   -889.24998    1824.8186    5103.4279    2.1716996   0.15323317   0.12969948 
    6000   -945.02195    54.721661   -890.30029    1959.9315    -13127.12    2.1319197   0.31109631    0.1266711 
    6100   -940.87293    48.118095   -892.75483    1723.4157    780.48383    2.1608335   0.26218814   0.14751878 
    6200   -945.54626    46.165444   -899.38082    1653.4788    13711.531    2.2046345   0.30795217   0.13593023 
    6300   -942.58211    52.649432   -889.93268    1885.7117   -10989.016     2.137548   0.25639614   0.12437964 
    6400   -939.91172    49.987866   -889.92385    1790.3841    -4363.082    2.1504265   0.16105836   0.12868598 
    6500   -946.67452     52.97086   -893.70366    1897.2241     5692.594    2.1820542   0.28643899   0.11547867 
    6600   -946.53425    44.719476   -901.81477    1601.6894   -733.85607    2.1735352   0.14264711   0.14122577 
    6700   -937.65148    46.686935   -890.96455    1672.1567   -6012.6092      2.14236   0.35929881   0.15434301 
    6800   -940.54513       51.082   -889.46313     1829.572    6358.7525    2.1764681   0.22090061   0.11951742 
    6900    -939.9678     48.48837   -891.47943    1736.6776    1979.1217    2.1666793   0.22508752   0.13366701 
    7000   -943.40416    50.079355   -893.32481    1793.6609   -5429.2675    2.1518116  0.013431441   0.12842765 
    7100   -947.08805    44.916841   -902.17121    1608.7583     7967.596    2.1980676  0.070853594    0.1255258 
    7200   -939.72097    45.443575   -894.27739    1627.6241     1827.739    2.1675622   0.22161793   0.15936986 
    7300   -944.03689    53.291604   -890.74528     1908.712   -7319.5428     2.145215  0.078313576   0.13212813 
    7400   -942.91623    55.455795   -887.46043    1986.2255    512.00565    2.1645975  0.083616068   0.12414601 
    7500   -944.71745    47.681748    -897.0357    1707.7873    1462.5162    2.1775292   0.38635283   0.13121877 
    7600   -942.03376    48.285574   -893.74818    1729.4141   -5235.5817    2.1486648   0.11880784   0.12606157 
    7700   -937.68675    49.102269   -888.58448    1758.6652    3464.9116    2.1662088   0.35574902   0.14003426 
    7800   -941.17266    50.262615   -890.91005    1800.2246    5115.7689    2.1740399   0.09209926   0.14469551 
    7900   -945.62825    45.688226   -899.94003    1636.3866   -6516.9031    2.1572038   0.42291857   0.11387014 
    8000   -938.96783    47.661903   -891.30592    1707.0765   -4856.1548      2.14836   0.17699963   0.12628433 
    8100   -938.78615    52.062196   -886.72395    1864.6791    22324.686    2.2124131   0.10088829   0.13301821 
    8200   -941.16991    48.547671   -892.62224    1738.8015   -12204.819    2.1307705   0.31188398   0.14271779 
    8300   -936.54327    49.352782   -887.19049    1767.6377   -13039.076     2.120395   0.39105698   0.15395019 
    8400   -935.57742    56.799438   -878.77798    2034.3499    14723.759    2.1818395  0.072090624   0.12929341 
    8500   -940.62026    51.997878   -888.62238    1862.3754   -1519.5567    2.1590716   0.20642886   0.11979123 
    8600   -934.89633    43.144787   -891.75154    1545.2898   -5589.9877    2.1359504   0.19360345   0.11802432 
    8700   -935.83338    48.442393   -887.39099    1735.0309    8748.0409    2.1713882   0.15725954   0.13366428 
    8800    -936.1109    56.523191    -879.5877    2024.4557    2754.5873     2.150895   0.14551543   0.12515333 
    8900     -940.225    49.509853   -890.71514    1773.2634   -3197.7934    2.1489767   0.29982446   0.12845895 
    9000   -941.06111    50.085783   -890.97533    1793.8911     648.7683    2.1622221   0.11977225   0.12166441 
    9100   -938.69911    50.777686   -887.92142    1818.6726    5262.9639    2.1692748   0.19637863    0.1325364 
    9200   -933.27787    54.323977    -878.9539    1945.6878   -6523.5334    2.1250044   0.27354852   0.13284531 
    9300   -943.70811    52.745613    -890.9625    1889.1566    2011.2296    2.1725486  0.078233473   0.12390704 
    9400   -942.78309    52.327038   -890.45605    1874.1648    1284.7007    2.1678907  0.094295542   0.12225112 
    9500   -939.98929    49.746385    -890.2429    1781.7351   -8835.5329    2.1430721   0.37645895    0.1289564 
    9600   -935.51804    53.589144    -881.9289    1919.3688     2721.747    2.1560871    0.2387093   0.13091654 
    9700   -936.70663    54.273008   -882.43363    1943.8623    4002.3448    2.1649326  0.051140541   0.14282537 
    9800   -936.81333     47.03485   -889.77848    1684.6177   -11730.523    2.1305318  0.099887519   0.13341051 
    9900   -937.36423    46.236542   -891.12769    1656.0252    4690.5955    2.1693614   0.27767026   0.15634929 
   10000   -940.56409    50.044457   -890.51963     1792.411    14193.242    2.1988136  0.011535068   0.14574341 
   10100   -933.29543     52.56989   -880.72554    1882.8628    -13077.26    2.1066889   0.29025069   0.14915094 
   10200   -939.77788    48.438213   -891.33967    1734.8811    -601.2373    2.1613604   0.16517041   0.14873925 
   10300    -940.7661    51.586657   -889.17944     1847.647    8739.4909     2.178113    3.3251736     0.145034 
   10400    -938.6237     51.73673   -886.88697     1853.022   -5441.5192    2.1434681    12.656297   0.16071612 
   10500   -931.25023    53.242761   -878.00746    1906.9626   -5603.9204    2.1200146    10.611561   0.17326857 
   10600   -940.47874    51.165706   -889.31303    1832.5701    7970.0919    2.1795307    10.022462   0.16356549 
   10700   -938.10914    49.110277   -888.99887     1758.952   -84.076062    2.1585475     8.659243   0.17610845 
   10800   -934.97786    48.070456    -886.9074    1721.7094   -1951.1025    2.1456793    8.7113695    0.1570336 
   10900   -932.48566     53.84751   -878.63815    1928.6225    6268.7179    2.1553662    6.2401813   0.14620195 
   11000   -939.04676    51.227228   -887.81953    1834.7735    939.74089    2.1568608    6.4500632   0.13846044 
   11100   -940.53451    49.907891   -890.62662    1787.5197   -7782.4142    2.1401218    8.4570459   0.13383812 
   11200   -940.10258     51.05419   -889.04839    1828.5759    7604.6193    2.1756508     5.644304   0.12694919 
   11300   -945.25666     48.89573   -896.36094    1751.2677    2697.8457    2.1786126    6.1616446   0.12780756 
   11400   -945.04564    47.324901   -897.72074    1695.0063   -7007.4285    2.1512914    6.0832615   0.12806546 
   11500   -943.17541    52.732374   -890.44304    1888.6824   -612.19894     2.164124    6.9142867   0.13215507 
   11600   -939.92856    51.469909   -888.45865    1843.4655    6537.6042    2.1717307    5.7643638   0.14457877 
   11700   -943.47217    49.392087   -894.08008    1769.0454    -5297.185    2.1502476    6.6612919   0.14651796 
   11800    -946.0742    47.362729   -898.71147    1696.3612   -1827.8113     2.171132    7.2409443   0.12559439 
   11900   -937.79625    49.316499   -888.47975    1766.3381    8201.2067     2.171759    5.9720917   0.12533042 
   12000   -936.59093    46.693541   -889.89739    1672.3933   -4151.3481    2.1412542    9.2917174   0.13024834 
   12100   -944.89782    52.650887   -892.24693    1885.7638   -8202.5184     2.145182    7.4092388   0.12101133 
   12200   -945.68155    47.623981   -898.05757    1705.7183    20941.593    2.2231131    4.6199303   0.12851664 
   12300   -937.50027    50.499241   -887.00103    1808.6997   -7065.3232    2.1317994    5.2426716    0.1351243 
   12400   -938.86265    48.923611   -889.93904    1752.2663   -9889.5161    2.1277189    6.7555324   0.12796589 
   12500   -941.28211    51.578648   -889.70346    1847.3601    11546.286    2.1915289    5.7523585   0.12625995 
   12600   -944.81684    46.986202   -897.83063    1682.8754   -725.01304    2.1691401    6.1211176   0.13871975 
   12700   -941.78812    45.808712   -895.97941     1640.702   -8045.1201    2.1453252    7.2141583   0.12896008 
   12800   -940.24798    50.526796   -889.72118    1809.6866    5302.4505    2.1693067    7.0083624   0.14101715 
   12900   -937.79644    48.134038    -889.6624    1723.9867    4507.4842    2.1621649    6.2224081   0.13350929 
   13000   -943.22292    49.923417   -893.29951    1788.0757   -7649.1306    2.1449517    6.2207364   0.12143626 
   13100   -948.96726    48.237412   -900.72985    1727.6892    3664.6427     2.187576    4.9475031   0.13817448 
   13200   -938.26974    48.438991   -889.83075     1734.909    1325.5975    2.1571329    6.9907089   0.14018605 
Loop time of 7.09557 on 1 procs for 10000 steps with 217 atoms

Performance: 365.298 ns/day, 0.066 hours/ns, 1409.331 timesteps/s
100.0% CPU use with 1 MPI tasks x no OpenMP threads

MPI task timing breakdown:
Section |  min time  |  avg time  |  max time  |%varavg| %total
---------------------------------------------------------------
Pair    | 6.7782     | 6.7782     | 6.7782     |   0.0 | 95.53
Neigh   | 0.15758    | 0.15758    | 0.15758    |   0.0 |  2.22
Comm    | 0.047279   | 0.047279   | 0.047279   |   0.0 |  0.67
Output  | 0.0034736  | 0.0034736  | 0.0034736  |   0.0 |  0.05
Modify  | 0.093421   | 0.093421   | 0.093421   |   0.0 |  1.32
Other   |            | 0.01562    |            |       |  0.22

Nlocal:    217 ave 217 max 217 min
Histogram: 1 0 0 0 0 0 0 0 0 0
Nghost:    957 ave 957 max 957 min
Histogram: 1 0 0 0 0 0 0 0 0 0
Neighs:    4181 ave 4181 max 4181 min
Histogram: 1 0 0 0 0 0 0 0 0 0
FullNghs:  8362 ave 8362 max 8362 min
Histogram: 1 0 0 0 0 0 0 0 0 0

Total # of neighbors = 8362
Ave neighs/atom = 38.5346
Neighbor list builds = 266
Dangerous builds = 1
Total wall time: 0:00:09
