LAMMPS (3 Mar 2020)
Reading data file ...
  orthogonal box = (0 0 0) to (17.469 17.469 17.469)
  1 by 1 by 1 MPI processor grid
  reading atoms ...
  217 atoms
  read_data CPU = 0.000944763 secs
Reading potential file library.meam with DATE: 2012-06-29
Reading potential file LiSi.meam with DATE: 2020-11-07
1 atoms in group Li
Neighbor list info ...
  update every 1 steps, delay 10 steps, check yes
  max neighbors/atom: 2000, page size: 100000
  master list distance cutoff = 6
  ghost atom cutoff = 6
  binsize = 3, bins = 6 6 6
  2 neighbor lists, perpetual/occasional/extra = 2 0 0
  (1) pair meam/c, perpetual
      attributes: full, newton on
      pair build: full/bin/atomonly
      stencil: full/bin/3d
      bin: standard
  (2) pair meam/c, perpetual, half/full from (1)
      attributes: half, newton on
      pair build: halffull/newton
      stencil: none
      bin: none
Setting up Verlet run ...
  Unit style    : metal
  Current step  : 0
  Time step     : 0.005
Per MPI rank memory allocation (min/avg/max) = 9.266 | 9.266 | 9.266 Mbytes
Step PotEng KinEng TotEng Temp Press Density c_msdli[4] 
       0   -951.06911    39.088268   -911.98084         1400   -116419.96    1.8918427            0 
     100   -923.77041    25.770436   -897.99997    923.00355   -88416.374    1.8918427  0.037264847 
     200   -915.44805    37.080657   -878.36739    1328.0947   -79574.415    1.8918427  0.092662342 
     300   -908.99428    41.689363   -867.30492    1493.1618   -72771.991    1.8918427  0.021022443 
     400   -913.17104    36.908006   -876.26304    1321.9109   -79280.673    1.8918427  0.014454473 
     500   -916.10565    39.204103   -876.90154    1404.1488   -79972.397    1.8918427   0.33804602 
     600   -910.44884    41.233446   -869.21539    1476.8325   -73017.676    1.8918427   0.43324102 
     700   -914.38952    40.476796   -873.91272    1449.7321   -78595.743    1.8918427    4.4491566 
     800   -912.12794    36.031703   -876.09624    1290.5249   -77353.054    1.8918427    6.9633279 
     900   -908.76037     39.64625   -869.11412    1419.9849   -75557.364    1.8918427    6.0506481 
    1000   -911.28529    38.498876   -872.78641    1378.8901   -77396.662    1.8918427    7.0998937 
Loop time of 0.552087 on 1 procs for 1000 steps with 217 atoms

Performance: 782.485 ns/day, 0.031 hours/ns, 1811.307 timesteps/s
100.0% CPU use with 1 MPI tasks x no OpenMP threads

MPI task timing breakdown:
Section |  min time  |  avg time  |  max time  |%varavg| %total
---------------------------------------------------------------
Pair    | 0.53096    | 0.53096    | 0.53096    |   0.0 | 96.17
Neigh   | 0.010919   | 0.010919   | 0.010919   |   0.0 |  1.98
Comm    | 0.0044355  | 0.0044355  | 0.0044355  |   0.0 |  0.80
Output  | 0.00027929 | 0.00027929 | 0.00027929 |   0.0 |  0.05
Modify  | 0.0042367  | 0.0042367  | 0.0042367  |   0.0 |  0.77
Other   |            | 0.001258   |            |       |  0.23

Nlocal:    217 ave 217 max 217 min
Histogram: 1 0 0 0 0 0 0 0 0 0
Nghost:    898 ave 898 max 898 min
Histogram: 1 0 0 0 0 0 0 0 0 0
Neighs:    3630 ave 3630 max 3630 min
Histogram: 1 0 0 0 0 0 0 0 0 0
FullNghs:  7260 ave 7260 max 7260 min
Histogram: 1 0 0 0 0 0 0 0 0 0

Total # of neighbors = 7260
Ave neighs/atom = 33.4562
Neighbor list builds = 20
Dangerous builds = 3
Total wall time: 0:00:00
