LAMMPS (3 Mar 2020)

    # ---------- Initialize simulation ---------------------
    units metal
    atom_style atomic
    dimension  3
    boundary   p p p
    read_data /home/modeler/RemLabs/Lab4/Problem2A_size_7/temp_1000/lammps.data
  orthogonal box = (0 0 0) to (28.63 28.63 28.63)
  1 by 1 by 1 MPI processor grid
  reading atoms ...
  1372 atoms
  read_data CPU = 0.00185862 secs

    pair_style eam
    pair_coeff * * /usr/share/lammps-stable/potentials/Ag_u3.eam
Reading potential file /usr/share/lammps-stable/potentials/Ag_u3.eam with DATE: 2007-06-11

    velocity  all create 1000 87287 dist gaussian

    # ---------- Describe computed properties------------------
    compute msdall all msd
    thermo_style custom step pe ke etotal temp press density c_msdall[4]
    thermo 100

    # ---------- Specify ensemble  ---------------------
    #fix  1 all nve
    fix  1 all nvt temp 1000 1000 0.05

    # --------- Compute RDF ---------------
    compute rdfall all rdf 100 1 1
    fix 2 all ave/time 1 2500 2500 c_rdfall[*] file /home/modeler/RemLabs/Lab4/Problem2A_size_7/temp_1000/lammps.rdf mode vector

    # --------- Run -------------
    timestep 0.001
    run 10000
Neighbor list info ...
  update every 1 steps, delay 10 steps, check yes
  max neighbors/atom: 2000, page size: 100000
  master list distance cutoff = 7.55
  ghost atom cutoff = 7.55
  binsize = 3.775, bins = 8 8 8
  2 neighbor lists, perpetual/occasional/extra = 1 1 0
  (1) pair eam, perpetual
      attributes: half, newton on
      pair build: half/bin/atomonly/newton
      stencil: half/bin/3d/newton
      bin: standard
  (2) compute rdf, occasional, copy from (1)
      attributes: half, newton on
      pair build: copy
      stencil: none
      bin: none
Per MPI rank memory allocation (min/avg/max) = 3.83 | 3.83 | 3.83 Mbytes
Step PotEng KinEng TotEng Temp Press Density c_msdall[4] 
       0      -3910.2    177.21566   -3732.9843         1000     8065.922    10.472245            0 
     100   -3803.8603    98.615943   -3705.2444     556.4742    32980.362    10.472245  0.057102858 
     200   -3790.6683     151.6245   -3639.0438    855.59316    39158.541    10.472245  0.064564648 
     300   -3748.9544      179.174   -3569.7804    1011.0506    51598.195    10.472245  0.085670512 
     400   -3724.0699    192.28845   -3531.7814    1085.0534    58823.625    10.472245  0.098785033 
     500   -3732.9216    181.92593   -3550.9956    1026.5793    56085.462    10.472245  0.097066795 
     600   -3745.0783    175.56912   -3569.5091    990.70884     52688.23    10.472245  0.086172872 
     700   -3741.6554    184.39165   -3557.2638     1040.493    54026.768    10.472245  0.080358939 
     800    -3736.435    187.42557   -3549.0094    1057.6129    55447.304    10.472245  0.079781243 
     900   -3738.0252      172.606   -3565.4192    973.98843    54268.588    10.472245   0.08467591 
    1000   -3732.3209    180.92947   -3551.3914    1020.9564    56106.386    10.472245  0.084361514 
    1100   -3731.0389    176.70862   -3554.3303    997.13884    56436.513    10.472245  0.085995567 
    1200    -3738.074    170.46231   -3567.6117    961.89194    54373.956    10.472245   0.08940422 
    1300   -3728.9574    175.93123   -3553.0261    992.75216    56786.988    10.472245   0.09579333 
    1400   -3730.0687     187.2998   -3542.7689    1056.9032    57138.457    10.472245  0.090815897 
    1500   -3739.5905    172.33822   -3567.2523    972.47738    53950.491    10.472245  0.086714457 
    1600   -3737.7839    177.31347   -3560.4704     1000.552    54633.474    10.472245  0.085475767 
    1700   -3725.7369     179.4018   -3546.3351     1012.336    58043.155    10.472245   0.08840245 
    1800   -3732.1744    177.90058   -3554.2738    1003.8649    56180.416    10.472245  0.082154502 
    1900   -3741.4126    174.88761    -3566.525    986.86319    53804.608    10.472245  0.077420807 
    2000   -3734.3419    175.13896    -3559.203    988.28149    55591.602    10.472245  0.081645872 
    2100   -3724.3753    172.74702   -3551.6282    974.78415    58117.435    10.472245  0.088570634 
    2200   -3731.0032    175.15976   -3555.8435    988.39886    56552.962    10.472245  0.088014241 
    2300   -3734.7618     172.2364   -3562.5254    971.90284    55432.511    10.472245  0.086133796 
    2400   -3730.1988    174.84549   -3555.3533    986.62549    57098.538    10.472245  0.084972001 
    2500   -3723.8001    178.57582   -3545.2243    1007.6752    58687.491    10.472245  0.083469039 
    2600   -3735.8612    175.51002   -3560.3511    990.37537    55218.786    10.472245  0.078898611 
    2700   -3737.4046    170.85037   -3566.5542    964.08171    54863.434    10.472245  0.083118709 
    2800     -3724.63    171.80778   -3552.8222    969.48421    57869.076    10.472245  0.090278309 
    2900   -3731.7932    177.85046   -3553.9427    1003.5821    56556.601    10.472245  0.087455755 
    3000   -3734.1888    172.60804   -3561.5807    973.99996    55267.372    10.472245  0.089223049 
    3100   -3730.7624    177.31584   -3553.4466    1000.5653    56674.701    10.472245  0.087130844 
    3200   -3734.7878    174.22681    -3560.561     983.1344    55449.266    10.472245  0.082519781 
    3300   -3735.5824    174.00323   -3561.5792    981.87279     55358.48    10.472245  0.081947311 
    3400   -3729.1622    177.84387   -3551.3183    1003.5449    57184.934    10.472245  0.084262346 
    3500   -3737.1408    174.41768   -3562.7231    984.21147    54818.256    10.472245  0.083842521 
    3600   -3736.9823    178.67498   -3558.3073    1008.2347    54873.267    10.472245   0.08664685 
    3700   -3729.2262    181.89971   -3547.3265    1026.4314    57332.131    10.472245  0.090222139 
    3800   -3733.0004    175.83771   -3557.1627    992.22447    55979.311    10.472245  0.088583854 
    3900   -3744.2137    171.73711   -3572.4766    969.08541     52881.66    10.472245   0.08234979 
    4000   -3739.2025    179.34725   -3559.8553    1012.0283    54558.834    10.472245  0.080296674 
    4100   -3734.0188    182.62484   -3551.3939    1030.5232    56008.351    10.472245   0.08428322 
    4200   -3732.0948    179.23746   -3552.8573    1011.4087    56359.169    10.472245  0.087188793 
    4300   -3736.9504    174.83572   -3562.1147    986.57039    54566.231    10.472245  0.084842881 
    4400   -3736.1776    176.10942   -3560.0681    993.75767    55077.224    10.472245  0.085290879 
    4500   -3727.0699    176.79897    -3550.271    997.64867    57269.431    10.472245   0.09332756 
    4600   -3728.4007    183.88034   -3544.5204    1037.6077     57507.38    10.472245  0.093909698 
    4700   -3733.0979    174.19836   -3558.8995    982.97386    56109.501    10.472245  0.089624325 
    4800   -3736.2161    174.40093   -3561.8152    984.11694    55168.205    10.472245  0.087070739 
    4900    -3729.289    181.24029   -3548.0488    1022.7104    57047.344    10.472245  0.087014747 
    5000   -3731.8133    174.68798   -3557.1253     985.7367    56148.246    10.472245  0.083437543 
    5100   -3742.8775    171.34525   -3571.5322    966.87422    53355.454    10.472245  0.079115446 
    5200   -3735.2159    174.03396   -3561.1819    982.04618    55213.811    10.472245  0.082907233 
    5300   -3732.5527    180.48357   -3552.0691    1018.4403    56547.174    10.472245  0.088327587 
    5400   -3733.0623    180.02918   -3553.0331    1015.8762    56201.117    10.472245  0.090396893 
    5500   -3734.0513    177.62855   -3556.4228    1002.3299     55762.57    10.472245  0.086976806 
    5600   -3736.5678    175.20409   -3561.3637    988.64904    54959.227    10.472245  0.082942699 
    5700   -3736.4267    185.28653   -3551.1402    1045.5426    55432.595    10.472245  0.080457065 
    5800   -3733.0863    173.39596   -3559.6904    978.44604    55813.096    10.472245  0.083761565 
    5900    -3729.434    184.00398     -3545.43    1038.3054    57381.461    10.472245  0.082952703 
    6000   -3726.6121    175.42759   -3551.1845    989.91021    57319.967    10.472245  0.085747201 
    6100   -3730.3449    173.24496      -3557.1    977.59395    56633.229    10.472245    0.0836926 
    6200   -3737.7193    174.57032    -3563.149    985.07277    54715.792    10.472245  0.079942049 
    6300   -3734.6406     171.0367   -3563.6039    965.13313    55143.651    10.472245  0.081633922 
    6400   -3728.3442     171.0849   -3557.2593    965.40511    57050.435    10.472245  0.081745148 
    6500   -3732.1603    180.31181   -3551.8485    1017.4711    56495.953    10.472245  0.076899283 
    6600    -3736.954    173.01064   -3563.9434    976.27175     54964.22    10.472245  0.076651457 
    6700   -3735.0618    176.96144   -3558.1003    998.56546    55773.653    10.472245  0.080891669 
    6800   -3727.0399    181.86457   -3545.1753    1026.2331    57996.289    10.472245  0.087100964 
    6900   -3732.4566    173.98434   -3558.4723    981.76615    56110.955    10.472245  0.086005577 
    7000   -3738.5012    178.34171   -3560.1595    1006.3541    54667.773    10.472245  0.080842706 
    7100   -3735.0204    184.02406   -3550.9964    1038.4188    55696.464    10.472245  0.081565655 
    7200   -3732.5174    181.48489   -3551.0325    1024.0906    56399.435    10.472245  0.083122507 
    7300   -3741.2531    180.06039   -3561.1927    1016.0524    54167.609    10.472245   0.07745519 
    7400   -3740.9885    173.52386   -3567.4646    979.16775    53909.944    10.472245  0.079791035 
    7500   -3729.7706    175.70378   -3554.0668    991.46872    56740.195    10.472245  0.084106107 
    7600   -3732.4215     176.4758   -3555.9457    995.82508    56292.812    10.472245  0.083743401 
    7700   -3739.6647    178.14066    -3561.524    1005.2196        54461    10.472245  0.078535799 
    7800   -3734.7669    177.13652   -3557.6304    999.55343    55514.838    10.472245  0.078746673 
    7900   -3733.4176    184.74025   -3548.6774    1042.4601     56209.74    10.472245   0.07759064 
    8000   -3739.4852    180.36787   -3559.1173    1017.7874    54593.693    10.472245  0.074080929 
    8100   -3739.4938    175.14886   -3564.3449    988.33735    54361.884    10.472245  0.078146758 
    8200   -3729.2212    177.30774   -3551.9135    1000.5196    57208.343    10.472245  0.085308701 
    8300   -3736.8223    178.14563   -3558.6766    1005.2477    55146.397    10.472245  0.081837582 
    8400   -3733.8995    175.52029   -3558.3792    990.43329    55847.478    10.472245  0.081384316 
    8500   -3731.2058    177.44341   -3553.7624    1001.2852    56812.149    10.472245  0.080232467 
    8600   -3738.7121    180.56118    -3558.151    1018.8783    54737.322    10.472245  0.079070888 
    8700   -3733.5017    177.25411   -3556.2476     1000.217    55878.539    10.472245  0.083722754 
    8800   -3727.4967     180.7591   -3546.7376    1019.9951    57926.005    10.472245  0.085999211 
    8900   -3733.3043    180.05073   -3553.2535    1015.9979    56123.867    10.472245  0.085381374 
    9000   -3736.5873    181.25225   -3555.3351    1022.7779    55565.776    10.472245  0.084059163 
    9100   -3736.3551     178.4254   -3557.9297    1006.8264    55293.083    10.472245  0.083095546 
    9200   -3737.7396     178.8543   -3558.8853    1009.2466    55048.871    10.472245  0.078503776 
    9300    -3730.432    175.12643   -3555.3055    988.21081    56954.374    10.472245  0.079003651 
    9400   -3735.1394    169.38736    -3565.752    955.82614    55466.781    10.472245  0.080279636 
    9500   -3730.8878    176.96121   -3553.9266    998.56419    56488.793    10.472245  0.082698974 
    9600    -3731.817    181.47679   -3550.3402    1024.0449    56857.251    10.472245  0.083681398 
    9700   -3738.2583    180.77768   -3557.4806    1020.0999     54785.77    10.472245  0.080265974 
    9800   -3736.4759    173.65764   -3562.8183    979.92267    55060.401    10.472245  0.078456976 
    9900   -3737.9585    178.98689   -3558.9716    1009.9948    54971.062    10.472245  0.075983709 
   10000   -3733.5017    172.08006   -3561.4216    971.02062    55746.952    10.472245  0.080941275 
Loop time of 25.5022 on 1 procs for 10000 steps with 1372 atoms

Performance: 33.879 ns/day, 0.708 hours/ns, 392.124 timesteps/s
100.0% CPU use with 1 MPI tasks x no OpenMP threads

MPI task timing breakdown:
Section |  min time  |  avg time  |  max time  |%varavg| %total
---------------------------------------------------------------
Pair    | 17.348     | 17.348     | 17.348     |   0.0 | 68.03
Neigh   | 0          | 0          | 0          |   0.0 |  0.00
Comm    | 0.17229    | 0.17229    | 0.17229    |   0.0 |  0.68
Output  | 0.0050895  | 0.0050895  | 0.0050895  |   0.0 |  0.02
Modify  | 7.9005     | 7.9005     | 7.9005     |   0.0 | 30.98
Other   |            | 0.07603    |            |       |  0.30

Nlocal:    1372 ave 1372 max 1372 min
Histogram: 1 0 0 0 0 0 0 0 0 0
Nghost:    3258 ave 3258 max 3258 min
Histogram: 1 0 0 0 0 0 0 0 0 0
Neighs:    58996 ave 58996 max 58996 min
Histogram: 1 0 0 0 0 0 0 0 0 0

Total # of neighbors = 58996
Ave neighs/atom = 43
Neighbor list builds = 0
Dangerous builds = 0
    
Total wall time: 0:00:25
