LAMMPS (3 Mar 2020)

    # ---------- Initialize simulation ---------------------
    units metal
    atom_style atomic
    dimension  3
    boundary   p p p
    read_data /home/modeler/RemLabs/Lab4/ProblemEC1_v4_size_4/temp_1237/lammps.data
  orthogonal box = (0 0 0) to (16.36 16.36 16.36)
  1 by 1 by 1 MPI processor grid
  reading atoms ...
  256 atoms
  read_data CPU = 0.000990444 secs

    pair_style eam
    pair_coeff * * /usr/share/lammps-stable/potentials/Ag_u3.eam
Reading potential file /usr/share/lammps-stable/potentials/Ag_u3.eam with DATE: 2007-06-11

    velocity  all create 1237 87287 dist gaussian

    # ---------- Describe computed properties------------------
    compute msdall all msd
    thermo_style custom step pe ke etotal temp press density c_msdall[4]
    thermo 100

    # ---------- Specify ensemble  ---------------------
    #fix  1 all nve
    #fix  1 all nvt temp 1237 1237 0.25
    fix 1 all npt temp 1237 1237 0.25 tchain 2 iso 1.0 1.0 1.0 pchain 2

    # --------- Compute RDF ---------------
    compute rdfall all rdf 100 1 1
    fix 2 all ave/time 1 125000 125000 c_rdfall[*] file /home/modeler/RemLabs/Lab4/ProblemEC1_v4_size_4/temp_1237/lammps.rdf mode vector

    # --------- Run -------------
    timestep 0.005
    run 500000
Neighbor list info ...
  update every 1 steps, delay 10 steps, check yes
  max neighbors/atom: 2000, page size: 100000
  master list distance cutoff = 7.55
  ghost atom cutoff = 7.55
  binsize = 3.775, bins = 5 5 5
  2 neighbor lists, perpetual/occasional/extra = 1 1 0
  (1) pair eam, perpetual
      attributes: half, newton on
      pair build: half/bin/atomonly/newton
      stencil: half/bin/3d/newton
      bin: standard
  (2) compute rdf, occasional, copy from (1)
      attributes: half, newton on
      pair build: copy
      stencil: none
      bin: none
Per MPI rank memory allocation (min/avg/max) = 3.744 | 3.744 | 3.744 Mbytes
Step PotEng KinEng TotEng Temp Press Density c_msdall[4] 
       0       -729.6    40.773174   -688.82683         1237    9945.8334    10.472245            0 
     100   -707.24148    21.979583    -685.2619    666.82923   -5311.3415    10.013943  0.065591653 
     200   -702.92862    21.708762   -681.21986     658.6129   -6943.3989    9.9278427  0.093315761 
     300   -702.85983    25.254898   -677.60494    766.19761    3243.8239    10.023894  0.086835479 
     400   -701.83347    27.714579   -674.11889    840.82085    1992.2396    9.9887695  0.090488485 
     500   -698.22016    27.484609   -670.73555    833.84388   -1222.3517    9.8974439   0.10462668 
     600   -696.85628    29.548446   -667.30784    896.45774   -2033.4982    9.8624988   0.12089946 
     700   -695.33517    31.341416   -663.99376    950.85392    1272.1961    9.8709715   0.12451644 
     800   -690.56846    29.979555   -660.58891    909.53699    11560.402     9.893839   0.13337393 
     900   -691.84032    34.481823    -657.3585    1046.1294   -7879.0663    9.7024279   0.15049851 
    1000   -687.23826    33.291191   -653.94706    1010.0073   -4833.3348    9.6602864   0.17365287 
    1100   -683.41643    32.795367   -650.62106     994.9647     4150.665    9.6982559    0.1818747 
    1200   -684.99805    37.866355   -647.13169    1148.8112    2023.8447    9.6815862   0.17862443 
    1300   -683.19398    39.157483   -644.03649    1187.9822    391.77946     9.622377   0.18441107 
    1400   -678.70933    37.835534    -640.8738    1147.8762   -8582.3323    9.4557441   0.22088129 
    1500   -677.55582    38.581471   -638.97435    1170.5069   -2681.7321    9.4820918   0.23338799 
    1600   -676.93048    43.119275   -633.81121    1308.1774    1627.2685    9.5296174   0.23888133 
    1700   -676.50796    42.925803   -633.58216    1302.3077    3816.9638    9.5353305   0.25082934 
    1800   -682.28748    42.001556   -640.28592    1274.2674    7000.7377    9.6832225    0.2103304 
    1900   -678.47191    39.949033   -638.52288    1211.9968   -146.28401    9.5389034   0.25471809 
    2000    -671.4399    38.926018   -632.51388    1180.9599   -12357.762    9.2662947   0.33022538 
    2100   -677.39344    42.900936   -634.49251    1301.5533   -6984.2174     9.436753   0.24955648 
    2200   -681.66411    41.491814   -640.17229    1258.8025    5575.1135    9.6557475   0.18247454 
    2300   -684.19106     45.24313   -638.94793    1372.6121    192.77161    9.6290037   0.19478491 
    2400   -677.86272     45.29895   -632.56377    1374.3056    4842.8308     9.565128   0.22775675 
    2500     -679.322    42.634383   -636.68761    1293.4664   -6009.1741    9.4679762   0.23896473 
    2600   -678.91897     37.29897   -641.62001    1131.5976    -1191.573    9.5466168   0.23176731 
    2700   -675.95601    39.930398   -636.02561    1211.4314     2820.106    9.5180259   0.25973398 
    2800   -674.13516    36.539735   -637.59543    1108.5635   -6937.8257    9.4071779    0.3056373 
    2900   -680.44886    37.867334   -642.58153     1148.841   -8336.3331    9.4775479    0.2174136 
    3000   -678.88992    36.715078   -642.17484    1113.8832    4833.9311    9.6090779   0.23148282 
    3100   -678.87152    42.786715    -636.0848     1298.088   -421.87289    9.5324254   0.24090318 
    3200   -678.15745    40.964924   -637.19252    1242.8174    4360.8423    9.5754023   0.24573543 
    3300   -680.63817    38.147834   -642.49033    1157.3509    2309.1739    9.5859792   0.21127543 
    3400   -678.62713    39.557848   -639.06928    1200.1288    268.41869    9.5234017   0.22851121 
    3500   -675.28501    40.047612    -635.2374    1214.9875   -3399.6244    9.4425925   0.24973522 
    3600   -678.06834     40.55012   -637.51822    1230.2329   -6584.5852    9.4700698   0.23469753 
    3700    -679.7956    37.248172   -642.54743    1130.0565    4953.5249    9.6286399   0.21081278 
    3800    -681.9254    40.428802    -641.4966    1226.5523    4470.7045    9.6429745   0.20427321 
    3900   -676.66865    41.851996   -634.81666    1269.7299    7456.5531    9.5944192    0.2572615 
    4000   -678.28024    39.624168   -638.65607    1202.1408   -11790.666    9.4111621   0.27095323 
    4100   -679.33128    38.244057   -641.08722    1160.2702   -4681.7467    9.4987954   0.23252464 
    4200   -671.74477    39.129832   -632.61494    1187.1433    95.661048    9.4304179   0.28338959 
    4300   -674.41829    40.141984    -634.2763    1217.8506    -6381.839    9.3957399   0.27226567 
    4400   -678.38052    39.115362   -639.26515    1186.7043    -5197.326    9.4771598   0.24514251 
    4500   -678.33062    39.570606   -638.76002    1200.5158     9366.235    9.6478434    0.2248069 
    4600   -674.31743    43.336152   -630.98128    1314.7571   -10327.095    9.3428768    0.2596477 
    4700   -675.94925    39.963827   -635.98542    1212.4456     -6017.54    9.4164839   0.26322354 
    4800   -679.38346     39.41213   -639.97133    1195.7079    4564.3792    9.6147545    0.2061538 
    4900   -680.49078    43.568733   -636.92205    1321.8133    2147.6369    9.5935103   0.23925289 
    5000   -677.11306    42.429667    -634.6834    1287.2556   -2491.0999    9.4936982   0.26591652 
    5100   -678.16026    39.976441   -638.18382    1212.8283    242.67014    9.5371947   0.23315436 
    5200   -680.33191     37.95569   -642.37622    1151.5216   -2734.7466    9.5543016   0.20330028 
    5300   -676.56752    41.198562   -635.36896    1249.9057    -4385.254    9.4490204    0.2509427 
    5400    -675.0692    40.171695   -634.89751     1218.752   -5648.4552    9.4281483   0.26336489 
    5500   -677.22023    38.442855   -638.77737    1166.3014    10021.728    9.6219627   0.24325981 
    5600   -681.07887    45.154407   -635.92446    1369.9204    5601.3099    9.6296326   0.19390697 
    5700   -677.88291    42.077977   -635.80494    1276.5859    684.10361     9.527391   0.23667622 
    5800    -681.6641    37.124995   -644.53911    1126.3195   -7150.3952    9.5293887   0.20946139 
    5900   -680.34726    39.884372   -640.46288     1210.035   -12184.717    9.4606815   0.26317569 
    6000   -677.17655    40.995582   -636.18096    1243.7475    8070.2407    9.6083361   0.22908952 
    6100   -678.88498    42.081252   -636.80373    1276.6852    478.35533    9.5508253   0.23436231 
    6200   -684.63604    40.718758   -643.91728    1235.3491   -7404.8083    9.5670006    0.1982162 
    6300    -680.7736    40.614788   -640.15881    1232.1948   -2457.9943    9.5529865    0.2212128 
    6400   -678.20672    40.664714   -637.54201    1233.7095    2933.4398    9.5606464   0.22732707 
    6500   -679.47724    42.379697   -637.09754    1285.7396   -4112.2445    9.4928271   0.26718825 
    6600   -669.97847    39.811155   -630.16732    1207.8137    -5858.916    9.3232537   0.33417116 
    6700   -675.67489    40.104252   -635.57064    1216.7059   -3405.4531    9.4472971   0.26107504 
    6800   -678.38338    40.210708   -638.17268    1219.9356    956.66133    9.5490542   0.25018898 
    6900   -678.59899    42.073697   -636.52529     1276.456   -724.81594    9.5285352   0.20868532 
    7000   -683.73506    39.825616   -643.90944    1208.2524   -2576.4572    9.6055267   0.20960702 
    7100   -681.82929    39.810843   -642.01845    1207.8043   -1774.5355    9.5827119   0.21376538 
    7200   -678.94083    41.768626   -637.17221    1267.2006    326.80691    9.5500968   0.22406389 
    7300   -680.28082    41.948812   -638.33201    1272.6672   -3325.8455    9.5381189    0.2227127 
    7400   -684.47691    39.425342   -645.05156    1196.1087   -5728.1141    9.5826488   0.18503836 
    7500   -683.28827     44.85574   -638.43253    1360.8592   -7532.6603    9.5252179   0.20493971 
    7600   -677.79911     40.50284   -637.29627    1228.7985    6319.8478     9.606345   0.20273197 
    7700   -680.84693    42.208678   -638.63825    1280.5511    1756.9657    9.6057092   0.18412879 
    7800   -679.96278    35.107363   -644.85542    1065.1074    337.79913    9.5974532   0.21908007 
    7900    -675.7587    38.118206   -637.64049    1156.4521   -1746.1366    9.4758317   0.26508178 
    8000   -677.71129    41.015182   -636.69611    1244.3422   -1072.1812    9.5156041   0.24372159 
    8100   -679.54859    38.817855   -640.73073    1177.6784   -2285.3706    9.5374427   0.22607128 
    8200   -683.09165    38.958936   -644.13271    1181.9586    4510.6535    9.6691842   0.20306456 
    8300   -680.56228    44.563964   -635.99831    1352.0072    745.73369     9.558597    0.2471294 
    8400   -681.76077    45.008225   -636.75255    1365.4854   -918.70766     9.575716   0.20422851 
    8500   -680.73339    41.893426   -638.83996    1270.9869   -3640.7558    9.5338787   0.19236166 
    8600   -674.94627    42.458858   -632.48741    1288.1413   -781.76631    9.4615965   0.25332667 
    8700   -675.35839    43.918392      -631.44    1332.4214   -3194.0736    9.4565742   0.25393151 
    8800   -678.31514    40.649934    -637.6652    1233.2611      -3015.6    9.5038996   0.25804343 
    8900   -677.20982    41.246474   -635.96335    1251.3592    5436.3158    9.5778941   0.22629939 
    9000   -677.83847    40.055217   -637.78326    1215.2182    4880.2622    9.5935648   0.23973235 
    9100   -685.48087    40.219111   -645.26176    1220.1905    2960.7993    9.6883597   0.18154349 
    9200   -678.85135    39.120571   -639.73077    1186.8624   -6674.8443    9.4819947   0.22259851 
    9300   -677.45352    40.268938   -637.18458    1221.7022   -6463.1338    9.4541118   0.25291901 
    9400   -675.51371    38.865082   -636.64863    1179.1112    9112.5535    9.5983844   0.23211042 
    9500   -683.79559     39.54353   -644.25206    1199.6943   -3693.8927    9.5914402   0.22142049 
    9600   -677.92964      38.9348   -638.99484    1181.2264   -4831.7636    9.4896475    0.2465065 
    9700   -677.75563    41.435681   -636.31995    1257.0995   -6032.0186    9.4571908   0.25774145 
    9800   -679.25548    44.604931   -634.65055      1353.25    4791.1415    9.5974096   0.23173707 
    9900   -685.21365    44.583738   -640.62991    1352.6071    16610.615    9.8292002   0.17416143 
   10000   -680.53315    39.832213   -640.70094    1208.4526    798.49921    9.5897875   0.22321977 
   10100    -675.6288    40.379801     -635.249    1225.0656   -14037.062    9.3485075   0.25325444 
   10200   -681.34089    42.452447   -638.88844    1287.9467   -5361.3594    9.5310181   0.22131162 
   10300   -683.67064    41.278135   -642.39251    1252.3198    4325.0737      9.67409   0.19031373 
   10400    -676.2543    41.553495   -634.70081    1260.6738    4230.3711    9.5446806   0.23472297 
   10500   -675.48386    38.439122   -637.04474    1166.1882   -2307.4898    9.4769264   0.24128079 
   10600   -679.02053    37.438735    -641.5818    1135.8379    1596.2806    9.5686837   0.22562698 
   10700   -680.00084    37.678908   -642.32193    1143.1244   -6573.3431    9.5055204   0.22916681 
   10800    -676.6756    41.621315   -635.05428    1262.7314    4618.9428    9.5476855   0.23617799 
   10900   -680.20298    42.393588   -637.80939    1286.1611   -1079.6163    9.5551212   0.20693334 
   11000    -678.2354    38.126005   -640.10939    1156.6887   -2728.3637    9.5118863   0.26181431 
   11100   -674.08119    40.534968   -633.54622    1229.7732    -1161.538    9.4567326   0.27050337 
   11200     -677.944    40.387859   -637.55614    1225.3101    13688.624    9.6872986   0.20713169 
   11300   -679.92497     39.88679   -640.03818    1210.1084    3810.4175    9.5992775   0.20358017 
   11400   -673.00191    38.239666   -634.76224     1160.137    -4421.125    9.4179448   0.27234495 
   11500   -677.85416    39.700214   -638.15394    1204.4479   -3754.4631     9.479245   0.27624779 
   11600   -682.95274    39.584399   -643.36835    1200.9343    2619.5694    9.6433636   0.20124651 
   11700   -677.85629    41.033761   -636.82253    1244.9058    -2028.218    9.5012683   0.22610423 
   11800    -672.9264    38.192237   -634.73416    1158.6981   -767.48609    9.4526549   0.29187384 
   11900   -676.71767    43.728513   -632.98916    1326.6608    2727.3045    9.5376479   0.23307439 
   12000   -684.21152    42.707844   -641.50367    1295.6951    9596.0153    9.7505969   0.17083862 
   12100   -680.24191    40.794636   -639.44728    1237.6511   -10416.607    9.4503318   0.25487532 
   12200   -675.68652     37.96373   -637.72279    1151.7655   -6685.9562    9.4287819   0.26429259 
   12300   -676.49817    43.535393   -632.96278    1320.8018    4295.7465    9.5421408   0.24686707 
   12400    -670.6503    42.535635   -628.11467    1290.4706    1956.0788    9.4099802   0.29589597 
   12500   -677.64645    40.695222   -636.95123    1234.6351   -4410.4401    9.4742445   0.26387962 
   12600   -677.78234     39.61538   -638.16696    1201.8742   -4026.5273    9.4846036   0.25982822 
   12700   -679.98069    41.670761   -638.30993    1264.2315   -7056.2023    9.4837458   0.25900812 
   12800   -680.50476    36.504829   -643.99994    1107.5045   -2643.4279    9.5590868   0.25309016 
   12900   -678.95704     38.68718   -640.26986    1173.7139    5101.0579    9.5975721   0.23799306 
   13000   -681.67888    45.606317   -636.07256    1383.6307    7273.3572     9.644181   0.19911087 
   13100   -681.94059     45.33141   -636.60918    1375.2904    -3901.784    9.5436438   0.20760936 
   13200   -677.21951     37.21437   -640.00514     1129.031    2536.0423    9.5294254   0.23035405 
   13300   -681.18263    38.608503   -642.57413     1171.327   -16930.584    9.4029582   0.22425195 
   13400   -676.26186    41.768108   -634.49375    1267.1849    3928.9335     9.538833   0.24126981 
   13500   -678.68711    43.746253   -634.94086     1327.199    5731.6288    9.5997706   0.21672517 
   13600   -679.74824    39.168505   -640.57973    1188.3166    6016.5776    9.6487671   0.22472774 
   13700   -677.84369    39.586523   -638.25716    1200.9987   -1053.5242    9.5256637     0.270993 
   13800   -674.49776    41.464965    -633.0328     1257.988   -297.40927    9.4709259   0.26086326 
   13900   -678.99636    41.052197   -637.94416    1245.4652   -5830.7487     9.476288   0.23334863 
   14000   -680.33548    40.257248   -640.07824    1221.3476   -1078.3557    9.5572845   0.23273246 
   14100   -678.19472    41.953017   -636.24171    1272.7948    4996.9744    9.5875008   0.21865196 
   14200   -673.27695    40.484208   -632.79274    1228.2332    306.35734     9.445479   0.28355411 
   14300   -677.72262    39.153469   -638.56915    1187.8605   -5501.8368    9.4728372   0.26289303 
   14400   -679.32576    39.610092   -639.71567    1201.7138   -2086.4433    9.5444017   0.23353872 
   14500    -676.3261    44.133666   -632.19244    1338.9526    8387.9815    9.5885842   0.22901945 
   14600   -679.46026    44.297427   -635.16283    1343.9208   -2320.5986    9.5129225   0.23520401 
   14700    -678.8528     39.14738   -639.70542    1187.6757   -10562.682    9.4250519   0.26298419 
   14800   -678.93491    43.267697   -635.66721    1312.6803   -3048.3939    9.5063451   0.24388823 
   14900   -676.13563     44.02181   -632.11382     1335.559     2654.924    9.5217019   0.27005162 
   15000    -680.1751    39.651968   -640.52313    1202.9842    5585.9682    9.6384601   0.20026944 
   15100   -679.76305    40.493656   -639.26939    1228.5198   -1949.9296    9.5488046   0.21200242 
   15200   -673.24805     39.02985    -634.2182      1184.11   -991.31281    9.4339772    0.2644837 
   15300   -674.79249     40.55968   -634.23281    1230.5229   -4445.6693    9.4185916   0.26031923 
   15400   -679.58863    39.116169   -640.47246    1186.7288   -207.46767    9.5524805   0.22802547 
   15500   -675.93481    39.277037   -636.65777    1191.6093    2454.3337    9.5320205   0.25115531 
   15600   -676.33261    44.679939   -631.65267    1355.5257   -5824.2091    9.4271963   0.28457584 
   15700   -680.01929     40.85896   -639.16033    1239.6026    13661.546    9.7157691   0.21319166 
   15800   -680.07025    40.652241   -639.41801    1233.3311    219.95594    9.5711456    0.2219518 
   15900   -674.09767    41.012443   -633.08523    1244.2591   -11470.059    9.3582319   0.25256915 
   16000   -677.14639    40.306461   -636.83993    1222.8406    1639.5922    9.5286699   0.25254216 
   16100   -683.37181    43.278784   -640.09303    1313.0166    1205.0062    9.6351004   0.20274448 
   16200   -678.88901    43.429805    -635.4592    1317.5984    1194.9892    9.5585388   0.23886481 
   16300   -674.47776    41.149428   -633.32833     1248.415   -3426.8386     9.432639   0.30627747 
   16400   -677.78928    37.808259   -639.98102    1147.0487    50.686593    9.5366322   0.23725729 
   16500   -682.26609    42.524332   -639.74175    1290.1276   -7792.9331     9.515536    0.1910766 
   16600   -677.90593    42.403311   -635.50262     1286.456    5604.0339    9.5877189   0.22934062 
   16700   -676.48432    47.460097   -629.02423    1439.8717    5682.4312    9.5647019   0.26224682 
   16800   -680.62604    44.629479   -635.99656    1353.9948    3280.5497    9.5982343   0.22408214 
   16900   -677.47666    38.275543   -639.20111    1161.2255    2020.9433    9.5550324   0.24021328 
   17000   -677.62056    40.318041   -637.30252    1223.1919   -3119.1332     9.510821   0.24490713 
   17100   -672.68497    43.577337   -629.10763    1322.0743    1306.1196    9.4286457   0.31374732 
   17200   -678.09888    43.560005   -634.53888    1321.5485    -1824.146    9.5099379    0.2374342 
   17300   -677.06599    40.258853   -636.80714    1221.3962   -2757.0171    9.4857857   0.27600211 
   17400   -675.47102    38.034715    -637.4363    1153.9191    1032.9464    9.4973711   0.28717216 
   17500   -681.49307     40.86588   -640.62719    1239.8126   -1722.0521    9.5708082   0.22158424 
   17600   -682.64635    37.869497   -644.77686    1148.9066    3503.8385    9.6480516   0.19726191 
   17700   -678.75696    39.714782   -639.04218    1204.8899   -3833.5343    9.4987241   0.24302202 
   17800   -678.20561    42.001344   -636.20426    1274.2609   -3728.3021    9.4847189   0.22020423 
   17900   -679.06894    36.944305   -642.12463    1120.8376   -9768.8068    9.4538213   0.23833821 
   18000   -678.48376    39.782681   -638.70108    1206.9499   -3426.3257    9.4949967   0.25941898 
   18100   -675.58073     40.37708   -635.20365    1224.9831    -40.38881    9.5065652   0.26130294 
   18200   -682.24899    42.434241   -639.81475    1287.3944    5544.6127    9.6542461   0.18998355 
   18300   -683.32315    41.040352    -642.2828    1245.1058   -4958.0061    9.5684093   0.20502083 
   18400   -676.46559    41.636718   -634.82887    1263.1987   -6560.5785     9.438072   0.25165831 
   18500   -677.66519    40.401002   -637.26419    1225.7088    6554.8784     9.595483   0.21873418 
   18600   -680.81712    39.660566   -641.15655    1203.2451    9886.4015    9.6869131   0.17563005 
   18700   -679.35032      43.5883   -635.76202    1322.4069   -4508.1165    9.4958847   0.22495679 
   18800   -674.73486    40.212871   -634.52199    1220.0012   -6187.2232    9.4108144   0.24204161 
   18900   -679.39383    39.179837     -640.214    1188.6604    2637.4398    9.5787685   0.21450497 
   19000   -681.40333    44.014561   -637.38877    1335.3391   -3701.3504    9.5419302   0.21646507 
   19100   -675.40747    43.277702   -632.12977    1312.9838    1009.8876    9.4725973   0.26432877 
   19200   -680.38299    40.952436   -639.43055    1242.4386   -1918.1692    9.5603717   0.23324068 
   19300   -680.39453    41.183971   -639.21056     1249.463    4874.6778    9.6138619   0.21751919 
   19400   -677.89089    43.810678   -634.08021    1329.1535    12560.842    9.6434383   0.25348604 
   19500   -674.30052    38.829553   -635.47097    1178.0333   -8223.0797    9.3681382   0.29410925 
   19600   -677.91506    35.493878   -642.42118    1076.8337   -7244.6441    9.4626034   0.24957615 
   19700   -680.25961    43.145551   -637.11405    1308.9746   -2110.3838    9.5572137   0.22826578 
   19800   -681.07673    47.447399   -633.62933    1439.4865    8221.8889    9.6657647   0.19853789 
   19900   -680.21514    39.944145   -640.27099    1211.8484    4404.3186    9.6150824   0.21255993 
   20000   -679.46717    38.665603   -640.80157    1173.0593   -6333.0914     9.489874    0.2284298 
   20100   -675.94621    42.059163   -633.88704    1276.0151   -1694.6946     9.463692   0.27851801 
   20200   -676.68054    39.398018   -637.28252    1195.2797    2085.6833    9.5293003   0.27844758 
   20300   -680.62579     37.95158   -642.67421    1151.3969   -2457.6403    9.5623298   0.23724802 
   20400    -678.1061    39.243594    -638.8625    1190.5947   -5669.9635    9.4726588   0.23169225 
   20500   -676.50998    40.566206   -635.94378    1230.7209    2300.6955    9.5130677   0.23707826 
   20600   -678.81186    41.206658   -637.60521    1250.1513    8077.9108    9.6348436    0.2282984 
   20700   -681.42023    37.553428    -643.8668    1139.3175   -6651.8774    9.5199479   0.23162712 
   20800   -676.14111    36.133198   -640.00791    1096.2297   -2120.9223    9.4742473   0.26963256 
   20900   -676.39261    39.941108    -636.4515    1211.7563   -553.79115    9.4969828   0.25459382 
   21000   -678.89834    40.424983   -638.47336    1226.4364    -2517.888    9.5018828   0.25285751 
   21100   -678.89045    41.007078   -637.88337    1244.0963    3359.1663    9.5769532   0.25209305 
   21200   -673.68098    43.580971   -630.10001    1322.1846    6136.1919    9.5085118   0.30461661 
   21300    -677.9341    41.350284   -636.58382    1254.5087   -293.96577    9.5333991   0.24008752 
   21400   -677.41292    38.525282   -638.88764    1168.8022     7005.884     9.604527   0.23692053 
   21500   -675.92993    40.721215   -635.20871    1235.4236    4150.1586     9.545733   0.22286771 
   21600   -674.55771    39.980068   -634.57764    1212.9383   -7862.6403    9.3794863   0.28326382 
   21700    -679.2551    36.810185   -642.44492    1116.7686   -4847.3445    9.5065033   0.24225049 
   21800   -677.41585    39.767528   -637.64832    1206.4901    8796.1877    9.6043142     0.241623 
   21900   -675.08921    41.762951   -633.32626    1267.0284    558.21153    9.4925996   0.26926648 
   22000   -674.30012    41.525949   -632.77417    1259.8381   -305.33795    9.4596223   0.27807022 
   22100   -683.20551    42.510596   -640.69492    1289.7109   -3497.1285    9.5784402   0.18260988 
   22200   -679.83256    41.249949   -638.58261    1251.4647    9236.7731    9.6804032    0.2004413 
   22300   -677.92765    42.296329   -635.63132    1283.2104    13566.721    9.6800948   0.21029298 
   22400   -679.46753    38.415786   -641.05175    1165.4802   -1935.7552    9.5359352   0.24628115 
   22500   -681.33108    39.767187   -641.56389    1206.4798   -9455.5132    9.4750102   0.26643032 
   22600   -675.13254    38.818968   -636.31357    1177.7122    5539.8735    9.5734001   0.26860251 
   22700   -678.55328    42.137275   -636.41601    1278.3849    12379.322    9.6663441   0.22995146 
   22800   -681.07888    38.607085    -642.4718    1171.2839    3134.1118     9.637785   0.20151972 
   22900   -680.04439    39.507504   -640.53689    1198.6014   -827.41163    9.5731457   0.22340196 
   23000   -681.59482    45.527349   -636.06747    1381.2349    501.47263    9.5851098   0.20231592 
   23100   -679.94093    42.875195   -637.06573    1300.7723    367.06189    9.5699182   0.22844466 
   23200   -678.19176    41.337833   -636.85393    1254.1309    2137.7739     9.553991   0.22775705 
   23300   -677.58248    37.255919   -640.32656    1130.2915   -6411.7746    9.4542181   0.24760744 
   23400   -680.60532     36.58593   -644.01939     1109.965   -3724.6153    9.5526158   0.22975794 
   23500   -679.53777    40.160598   -639.37717    1218.4153    5409.4362    9.6188778   0.23024168 
   23600   -676.09393    39.866867   -636.22706    1209.5039    7138.7021    9.5618482   0.24333757 
   23700   -673.98413    41.033128     -632.951    1244.8867     3929.238    9.4968706   0.23945099 
   23800   -679.40145    39.335062   -640.06639    1193.3697   -3593.5955    9.5255645   0.22129672 
   23900   -680.04282    39.044826   -640.99799    1184.5644   -41.802972    9.5763936   0.23724298 
   24000    -673.3296    40.091226   -633.23838    1216.3107    2554.6137    9.4846253   0.28063409 
   24100   -675.94192     39.37632    -636.5656    1194.6214   -2065.8317    9.4686248   0.28118482 
   24200   -679.70181    40.849647   -638.85216    1239.3201   -1250.9699    9.5521084   0.23009525 
   24300   -685.20205    41.193703   -644.00835    1249.7583     8367.545    9.7474423   0.16813809 
   24400   -679.55513    42.122881   -637.43225    1277.9482    5903.1217    9.6172113    0.2130221 
   24500   -681.18546    45.215003   -635.97046    1371.7588   -7747.6781    9.5003113   0.22639757 
   24600    -679.8249    39.490044   -640.33486    1198.0717    5531.5162    9.6268637   0.21704892 
   24700   -683.40455     39.01922   -644.38533    1183.7875    4228.4415    9.6813028   0.15772125 
   24800   -678.23474    40.957336   -637.27741    1242.5872    340.11919    9.5549086   0.20795129 
   24900   -679.49269    41.780472   -637.71222      1267.56   -1132.0555     9.549121   0.23262907 
   25000   -675.62057     37.72561   -637.89496    1144.5413   -2174.2477    9.4729958   0.26919106 
   25100    -675.0078    43.550797   -631.45701    1321.2691    1989.5285    9.4895006   0.27352573 
   25200   -679.24872    41.636154   -637.61257    1263.1816   -4529.7287    9.5085592   0.26347478 
   25300    -679.1252    39.423449   -639.70175    1196.0513   -955.66832    9.5528412   0.23654224 
   25400   -677.86176    42.342754     -635.519    1284.6188    7365.0863     9.618175   0.22827031 
   25500   -676.11599    45.758826   -630.35716    1388.2576   -4224.1083    9.4461736   0.26105106 
   25600   -679.47787    41.137475    -638.3404    1248.0524    9333.3929    9.6490919   0.20248936 
   25700   -682.91792    44.249401   -638.66851    1342.4638   -3944.9921    9.5715281   0.18721861 
   25800   -679.61911    43.567482   -636.05163    1321.7753   -7785.5909    9.4623974   0.21804242 
   25900   -675.42958    39.504595   -635.92499    1198.5131    8001.8391    9.5897188   0.25711687 
   26000   -684.31622    40.886366   -643.42985    1240.4341    7409.2558    9.7151358   0.19503409 
   26100   -679.93151    40.395372   -639.53614     1225.538   -4147.4989    9.5209025   0.23935124 
   26200   -676.61617    40.909097   -635.70707    1241.1237   -6637.2491    9.4439814   0.24665638 
   26300   -679.29339    39.894438   -639.39895    1210.3404   -6003.6624    9.4946521   0.24849976 
   26400   -679.51504    34.966542    -644.5485    1060.8351    2882.8482    9.5910597   0.22691126 
   26500   -677.93047    40.271129   -637.65934    1221.7687   -5832.8663    9.4808698   0.23966432 
   26600    -677.3702    40.953034   -636.41717    1242.4567    618.61614    9.5233283   0.24919587 
   26700   -678.44156    40.060417   -638.38114     1215.376    5863.1844    9.6083479   0.23544398 
   26800   -682.33053    38.764334    -643.5662    1176.0547   -5364.9996    9.5593905   0.18796905 
   26900   -675.14129    39.565246   -635.57604    1200.3532   -9606.3556    9.3764155   0.26145084 
   27000   -678.52476    43.005627   -635.51913    1304.7294    3206.8701    9.5661023   0.21835724 
   27100    -679.5267    40.447397    -639.0793    1227.1164    17588.553    9.7708785   0.20955679 
   27200   -677.63086    40.307231   -637.32363     1222.864    6423.9822    9.5901155   0.23863156 
   27300    -671.9904    42.698739   -629.29166    1295.4189     -5315.17    9.3553619   0.31545539 
   27400   -674.41902      38.8753   -635.54372    1179.4212    287.38837    9.4782824   0.28117802 
   27500   -677.82822    40.052114   -637.77611    1215.1241    2328.5183    9.5446961   0.23768033 
   27600     -677.549    40.664554   -636.88445    1233.7046   -934.52823    9.5003932   0.23264737 
   27700   -673.08536     43.62569   -629.45967    1323.5413   -304.40314    9.4337607   0.27137253 
   27800   -680.46443    43.172887   -637.29154    1309.8039    5030.4331    9.5986019   0.21445523 
   27900   -679.00004    40.900269   -638.09977    1240.8559    8859.3438    9.6560657   0.22978683 
   28000   -675.92077     39.26227    -636.6585    1191.1613    4010.1217    9.5385405   0.23266843 
   28100   -679.26695    39.427895   -639.83906    1196.1862   -12425.313    9.4394415   0.22599706 
   28200   -686.12994    40.871332   -645.25861     1239.978   -3306.2845    9.6348806   0.17050855 
   28300   -681.88645    42.791948    -639.0945    1298.2467    9295.2202     9.694386   0.18559192 
   28400   -678.73146    41.986738   -636.74472    1273.8178   -2065.8203     9.528876   0.25598119 
   28500   -675.65947    41.634903   -634.02456    1263.1436    2349.5332     9.525148   0.22876005 
   28600    -679.1462    38.664761   -640.48144    1173.0338     798.1006    9.5576677   0.24913661 
   28700   -679.33206    40.450277   -638.88178    1227.2038   -1828.5649    9.5132136   0.25715407 
   28800   -675.05722    41.848296   -633.20892    1269.6177    3784.7631    9.5215736   0.24828528 
   28900   -680.71405    42.343932   -638.37011    1284.6546    4233.6211    9.6103797    0.2288162 
   29000   -683.99543    43.152825    -640.8426    1309.1952   -7429.8472    9.5394518   0.19274204 
   29100   -675.81206    41.713206   -634.09885    1265.5192   -5876.8013    9.4372505   0.24169483 
   29200   -676.49321    41.230131   -635.26307    1250.8634    8053.8393    9.5898148   0.22631708 
   29300   -679.51708    40.190167   -639.32691    1219.3124    10413.297    9.6800395   0.19662685 
   29400   -680.11138    41.192397   -638.91898    1249.7186    1725.1514    9.5912652   0.22294038 
   29500   -671.46927    39.375807   -632.09346    1194.6059   -3571.4914    9.3779519     0.311389 
   29600   -677.95615    40.022282   -637.93387     1214.219   -7687.6963    9.4471668   0.24015618 
   29700   -678.67009    39.196419   -639.47367    1189.1635    7537.7069    9.6244606   0.22699205 
   29800   -679.77243    46.292651   -633.47978    1404.4531   -1229.3349    9.5345041   0.21960082 
   29900   -675.98069    43.104812   -632.87588    1307.7386    4080.9649    9.5367647   0.24043692 
   30000   -679.10848    37.450872   -641.65761    1136.2061   -11651.749    9.4320668   0.25455437 
   30100    -677.3684    39.280377   -638.08802    1191.7107   -8400.7059    9.4336233   0.25458086 
   30200   -676.62689    41.657352   -634.96954    1263.8247    7062.2009    9.5899424   0.23164299 
   30300   -680.57275    40.484001   -640.08875    1228.2269    8251.0438    9.6695681   0.19703672 
   30400   -681.31927    36.642704   -644.67656    1111.6874    621.61539     9.611485   0.20053253 
   30500   -675.35364    37.848416   -637.50522     1148.267   -4669.0264    9.4266555    0.2736451 
   30600   -677.87799    41.128117   -636.74987    1247.7685   -5133.4307    9.4484454   0.26762526 
   30700   -681.49459    41.963256   -639.53133    1273.1054    -3689.117    9.5453666   0.22205392 
   30800   -683.44332    39.253392   -644.18992     1190.892    3756.6346    9.6675671   0.17805346 
   30900   -678.19168    42.004892   -636.18679    1274.3686    -5320.732    9.4735238   0.24193453 
   31000   -677.15457    40.020308   -637.13426    1214.1591   -10772.108    9.3899655    0.2605797 
   31100   -678.21434    39.257444    -638.9569    1191.0149    3789.6547    9.5784575    0.2289937 
   31200   -675.80596    44.027769   -631.77819    1335.7398    16364.091     9.666192     0.240287 
   31300   -674.84381    40.863509   -633.98031    1239.7406   -1461.6754    9.4718505    0.2582637 
   31400   -678.17555    38.341071   -639.83448    1163.2135   -1083.4153    9.5246281   0.24189229 
   31500   -675.06086     40.67332   -634.38754    1233.9706    3632.6676    9.5108009   0.29625109 
   31600   -674.53166    40.406215   -634.12545     1225.867     229.4339    9.4830771   0.28234974 
   31700   -680.20079     40.53585   -639.66494    1229.7999   -710.02434     9.575194   0.21962336 
   31800   -681.70822    42.486914   -639.22131    1288.9924   -787.86728    9.5686601   0.19261157 
   31900   -676.46948     45.14781   -631.32167    1369.7202    525.99843    9.4902047   0.28111336 
   32000   -676.10321     39.34976   -636.75346    1193.8156   -6783.0279    9.4379897    0.2676372 
   32100    -677.3966    38.844779   -638.55182    1178.4952    8721.6806     9.633067   0.23561888 
   32200    -677.4107    41.954587   -635.45612    1272.8424    4465.3276      9.55736   0.25004499 
   32300   -673.61044    43.273416   -630.33703    1312.8538   -5505.6749    9.3778146   0.29594311 
   32400   -679.69188    42.108341   -637.58354    1277.5071   -11681.916    9.4263586   0.22111024 
   32500   -678.73798     39.78962   -638.94836    1207.1604    2390.4172    9.5715376   0.23446835 
   32600   -675.39104    39.505398   -635.88564    1198.5375     7247.405    9.5735005   0.24559339 
   32700   -670.72014    39.797046   -630.92309    1207.3857    1286.6438    9.4320109   0.27247897 
   32800   -679.01278    40.978282   -638.03449    1243.2227    -5371.183    9.4950937   0.23236111 
   32900   -681.47149    42.570671   -638.90082    1291.5335   -268.47665    9.5930054   0.19566992 
   33000   -677.47966    44.122165    -633.3575    1338.6036    7815.1965    9.6089886   0.22809166 
   33100    -676.7569    46.619188   -630.13772    1414.3598   -5863.7261    9.4420698    0.2771261 
   33200   -674.88285    36.987783   -637.89507    1122.1566   -2558.5302    9.4571956    0.3000632 
   33300   -674.07777    35.732806   -638.34496    1084.0824    1637.1047    9.4844406   0.29270219 
   33400   -676.74288     41.83142   -634.91146    1269.1057    3779.7407    9.5266031    0.2777519 
   33500    -669.6844    40.999651   -628.68475     1243.871    4436.4849    9.4308353    0.3003358 
   33600   -679.02566    42.081418   -636.94425    1276.6903    -7183.426    9.4621902   0.25882618 
   33700   -680.56631    43.796154   -636.77016    1328.7129   -1892.8984    9.5537763   0.23593915 
   33800   -678.29152    41.439465   -636.85206    1257.2143    12630.502    9.6638347   0.23070595 
   33900    -683.7085     38.96324   -644.74526    1182.0892   -1078.3041    9.6135526   0.20751973 
   34000   -681.63442     41.55817   -640.07625    1260.8157    -6609.422    9.5235307   0.23675825 
   34100   -678.52498    42.083768   -636.44122    1276.7616    4186.5027    9.5819394   0.24054053 
   34200    -679.7159    43.081826   -636.63407    1307.0412    2935.8056      9.59553   0.23388073 
   34300   -684.63756    41.354764    -643.2828    1254.6446   -774.80773    9.6390709   0.18833723 
   34400   -681.58486     42.13111   -639.45375    1278.1978    1669.4405    9.6079278   0.20953802 
   34500   -678.26637    41.379546   -636.88682    1255.3965    6992.9292    9.6016386   0.22878123 
   34600   -677.87934    38.298142    -639.5812    1161.9111   -4570.8487    9.4825052   0.22200894 
   34700   -681.87102    37.549984   -644.32104     1139.213   -10908.506    9.5000204   0.21351392 
   34800   -676.99967    40.618275    -636.3814    1232.3006       1692.1    9.5220625   0.24420244 
   34900    -679.2181    42.375737   -636.84236    1285.6195   -7148.3247    9.4586315   0.24474577 
   35000   -678.29191    39.740801   -638.55111    1205.6793   -618.63235    9.5359351    0.2492571 
   35100     -674.791     42.70313   -632.08787    1295.5521    4442.2617    9.5299086   0.27209549 
   35200   -674.70522    41.151751   -633.55347    1248.4855    5957.0427     9.536748   0.26597928 
   35300   -677.50654    40.846033   -636.66051    1239.2104   -7850.9188      9.43693   0.25451184 
   35400   -678.58766    39.185259    -639.4024    1188.8249    2951.9624     9.578337   0.22677366 
   35500   -684.00637    38.697702   -645.30867    1174.0331   -1064.9117    9.6286503   0.19892172 
   35600   -680.69079    42.792572   -637.89822    1298.2657   -2488.1504    9.5499487   0.21874584 
   35700   -677.96874    40.993377   -636.97537    1243.6806    3542.6513    9.5641008   0.22730243 
   35800   -678.71432    41.624681   -637.08964    1262.8335     3300.059    9.5802517   0.22472707 
   35900   -672.88544    43.855967   -629.02947    1330.5276    7000.1332    9.5194738   0.22997903 
   36000   -673.34899    41.287578   -632.06141    1252.6063        -6939    9.3591712   0.33072726 
   36100   -675.74962     37.95553   -637.79409    1151.5167   -14742.179    9.3353575   0.29271932 
   36200   -679.57292    41.646777   -637.92614    1263.5039    787.68151    9.5681746   0.21764977 
   36300   -680.49795     39.47927   -641.01868    1197.7448    4428.8331    9.6334841   0.22199085 
   36400   -683.18261    38.436934   -644.74568    1166.1218    12059.467    9.7675165   0.16547541 
   36500   -680.09725    43.086466   -637.01079     1307.182   -5809.1978    9.5006579   0.20432159 
   36600   -676.97114    38.762625   -638.20852    1176.0028   -4113.4184    9.4612364   0.25051229 
   36700   -675.97146    36.563591   -639.40787    1109.2873   -3596.4328     9.451807   0.27172907 
   36800   -674.45526    42.814435   -631.64082     1298.929    3282.3324     9.492387   0.25572626 
   36900   -678.75777    43.679143   -635.07862     1325.163   -190.45408    9.5342555   0.22966526 
   37000    -681.0635    41.807855   -639.25565    1268.3908    1392.7194    9.6062657   0.20759562 
   37100   -678.95867    42.768845   -636.18982    1297.5458   -4067.9277    9.4985112   0.21699884 
   37200   -673.65365    43.010445   -630.64321    1304.8756   -2229.5652    9.4223756   0.29135625 
   37300   -679.66868    40.589742   -639.07893    1231.4349    7776.8951    9.6456717    0.2107313 
   37400   -680.73247    42.495736   -638.23673    1289.2601     1800.533    9.6001069   0.22226467 
   37500   -675.92581    41.317078   -634.60874    1253.5013   -8402.4574    9.4213645   0.23863372 
   37600   -674.84529    41.300604   -633.54469    1253.0015   -340.82078    9.4650708   0.26483476 
   37700   -680.22842    38.440458   -641.78796    1166.2287   -2291.9131    9.5504419   0.21250886 
   37800   -676.87579    37.215427   -639.66036     1129.063    4246.9509    9.5665954   0.23889319 
   37900   -676.47554    41.758465   -634.71707    1266.8923    6190.7812    9.5601216   0.23233808 
   38000   -678.61365    41.308634   -637.30501    1253.2451   -10591.009    9.4216584   0.22992637 
   38100   -677.66787    36.552346   -641.11552    1108.9461   -3334.0336    9.5006797   0.22812554 
   38200   -677.62757    41.108365    -636.5192    1247.1692    4884.6714    9.5741743   0.24635385 
   38300   -673.64732    42.065178   -631.58214    1276.1976   -1225.6721    9.4366458   0.28059519 
   38400   -680.07942    40.842699   -639.23672    1239.1093   -4658.2627    9.5148242   0.20709907 
   38500     -681.715    41.829751   -639.88525    1269.0551    1884.2527    9.6035108   0.20411001 
   38600   -678.26134    42.100679   -636.16067    1277.2746   -4095.5505    9.4865726   0.23094785 
   38700   -674.23274     41.09419   -633.13855    1246.7392   -5293.1669    9.4198958    0.2576356 
   38800   -680.76505    41.171074   -639.59397    1249.0717   -967.83759    9.5794188   0.22177686 
   38900   -682.46404    42.746704   -639.71734    1296.8741    8750.4035     9.695208   0.19838496 
   39000   -677.04834    40.762297   -636.28604      1236.67    2125.4502    9.5312867    0.2630012 
   39100   -677.39425    41.668962   -635.72529     1264.177   -13081.666    9.3812138   0.27305374 
   39200   -681.90149      38.9231   -642.97839    1180.8714   -1569.7401    9.5954168   0.19832515 
   39300   -678.52794    39.514858   -639.01308    1198.8245    2766.0242    9.5695739   0.26252626 
   39400   -674.77804    39.130972   -635.64707    1187.1779    51.923334    9.4833012    0.2522628 
   39500   -677.31021    39.719649   -637.59056    1205.0375   -5344.5241    9.4673335   0.23794817 
   39600   -681.19439    37.005684    -644.1887    1122.6997    7652.5517    9.6950918   0.22122544 
   39700   -679.79087    41.930822   -637.86005    1272.1214   -2049.1787    9.5341176   0.22958963 
   39800   -675.91964    41.504867   -634.41477    1259.1985   -788.45437     9.496615   0.27790431 
   39900   -676.93172    41.700051   -635.23166    1265.1201    9713.2903    9.6186215   0.24111317 
   40000   -679.26913    38.056349   -641.21279    1154.5754   -7931.2472    9.4774007   0.23495481 
   40100   -674.76459    38.828337   -635.93625    1177.9964   -1136.6727    9.4589528   0.26728196 
   40200   -676.70228    41.375739   -635.32654     1255.281    6666.8801    9.5797872   0.26123077 
   40300   -681.61716    39.058614   -642.55855    1184.9827    6496.1163      9.66642   0.19585627 
   40400   -682.40888     42.29808    -640.1108    1283.2635   -6008.3864    9.5340504   0.21437903 
   40500   -674.95899    40.194417   -634.76458    1219.4413   -16632.296    9.2956115   0.26649271 
   40600   -679.97685    41.287486   -638.68936    1252.6035   -3236.5711    9.5241823   0.25202397 
   40700   -683.55698    40.455792   -643.10119    1227.3711    8504.9936    9.7178202   0.19967035 
   40800   -676.52459    40.772714   -635.75188    1236.9861    1599.5629    9.5269724   0.29951071 
   40900   -676.03871    40.601493   -635.43722    1231.7915   -4439.4107    9.4309149   0.27167175 
   41000   -676.57801    39.285188   -637.29282    1191.8566    507.82949    9.4997578   0.25863733 
   41100   -684.68667    40.462372   -644.22429    1227.5707    1921.5618    9.6649738   0.19080246 
   41200   -680.14277    41.011444   -639.13132    1244.2288    6235.3078    9.6332628   0.22272134 
   41300   -677.40591    40.590547   -636.81536    1231.4594    1998.9456    9.5368717   0.25721982 
   41400   -677.78068    40.979445   -636.80124     1243.258   -136.16858    9.5214135    0.2577564 
   41500   -683.25031    41.330091   -641.92021    1253.8961    148.37208    9.6269175   0.19751919 
   41600   -683.11523    38.359279   -644.75595    1163.7659    2889.4658    9.6714992   0.18664157 
   41700   -676.54488    38.570223   -637.97466    1170.1656    9654.6979    9.6257212   0.20854214 
   41800   -676.97267     39.51461   -637.45807     1198.817   -8108.1436    9.4250564   0.26451844 
   41900    -673.2067    35.926366   -637.28034    1089.9547    523.19014    9.4567712   0.29945056 
   42000   -681.24634    37.427353   -643.81899    1135.4926    3263.0334    9.6186683   0.21339309 
   42100   -680.09455    40.847083   -639.24747    1239.2423    4398.8756    9.6104537   0.23450884 
   42200   -677.88372    42.121716   -635.76201    1277.9128   -7872.2652    9.4392779   0.25882858 
   42300   -679.61966    40.090633   -639.52902    1216.2927   -11490.694    9.4302359   0.23353612 
   42400   -681.93754    38.268785   -643.66875    1161.0204   -286.66897    9.5947994   0.24967141 
   42500   -676.93596     41.24959   -635.68637    1251.4538   -8627.5916    9.4086594    0.2633356 
   42600   -678.45498    41.921892   -636.53309    1271.8505    765.71592    9.5441143   0.22428475 
   42700   -682.42673    41.608372   -640.81835    1262.3387    9319.0371    9.7101591   0.19238372 
   42800   -680.09278    44.368576    -635.7242    1346.0794   -3082.9481    9.5313718   0.22134504 
   42900    -674.8929    40.110148   -634.78275    1216.8847   -3044.0321    9.4463888   0.26581912 
   43000   -679.36203    37.845995   -641.51604    1148.1936   -2655.4315    9.5386825   0.23515304 
   43100   -679.69526    40.506816   -639.18845    1228.9191    3646.2032    9.6121733   0.20369141 
   43200   -673.36988    40.763279    -632.6066    1236.6998    8529.8992    9.5332395   0.28643823 
   43300   -675.56862    38.885914    -636.6827    1179.7432   -6971.5896     9.420337   0.26963466 
   43400   -677.31187    36.747359   -640.56451    1114.8625   -12481.754    9.3868137   0.24717274 
   43500    -677.4743     41.50979   -635.96451    1259.3479    7828.1405    9.6077133    0.2518869 
   43600   -677.04651    45.168711    -631.8778    1370.3543    -1615.439    9.4679224   0.29255147 
   43700   -679.05479    39.958147   -639.09664    1212.2733   -4613.1916    9.4969763    0.2363522 
   43800   -680.46196    40.942269   -639.51969    1242.1301    1261.8294    9.5768877   0.21799498 
   43900   -678.10659    44.807979   -633.29861    1359.4102    5564.9286     9.592706   0.21259236 
   44000   -676.94515    37.722185   -639.22296    1144.4373    2560.8853    9.5552796   0.25307194 
   44100   -676.98162    38.564323   -638.41729    1169.9866   -458.58212    9.5013553   0.24057186 
   44200   -676.64632    44.527816   -632.11851    1350.9105   -5305.0058    9.4269159   0.25872306 
   44300   -679.97915    41.249506   -638.72965    1251.4512    3711.1228    9.5966155   0.21985696 
   44400   -679.97048    41.029386   -638.94109    1244.7731    1341.7627    9.5747733   0.23956797 
   44500   -674.25184    40.798674   -633.45316    1237.7737    1277.0005    9.4813653   0.26566504 
   44600   -676.54845     38.70308   -637.84537    1174.1963   -1771.9314    9.4866773   0.22692053 
   44700   -679.69526    38.372412   -641.32285    1164.1643   -2546.2223    9.5337349   0.22557815 
   44800    -677.6378    41.067217   -636.57058    1245.9209    10566.877    9.6418407   0.23766917 
   44900   -677.88138    41.459353   -636.42203    1257.8177    5591.0096     9.569771   0.24498189 
   45000   -679.61462    35.417347   -644.19727    1074.5119   -4937.5722     9.512377   0.24438067 
   45100   -678.68636    40.450208   -638.23616    1227.2017   -12566.531    9.4067822   0.24227689 
   45200   -677.27026    41.682934   -635.58733    1264.6008    4855.2333    9.5615023   0.25437508 
   45300   -678.47409    38.413399   -640.06069    1165.4078     205.3597    9.5524916   0.24005956 
   45400   -678.21877     40.09698   -638.12179    1216.4852    8048.7556    9.6245814   0.20981659 
   45500   -674.75157    41.033333   -633.71824    1244.8929    1457.3346    9.4899331   0.23823929 
   45600   -679.37947    39.321645   -640.05783    1192.9627   -3143.5879    9.5226344   0.23229044 
   45700   -682.56693    41.790617   -640.77632    1267.8678   -1306.9792    9.5981544   0.23776244 
   45800    -675.0394    41.594639   -633.44476    1261.9221    4243.7087    9.5332761   0.25600036 
   45900   -678.84595    41.307353    -637.5386    1253.2062    4711.5887    9.5960822   0.23095195 
   46000   -680.47828    38.334084   -642.14419    1163.0015   -1459.1498    9.5629178   0.22043449 
   46100    -674.2246     39.20868   -635.01592    1189.5355   -10343.292    9.3424344   0.26175693 
   46200   -675.12754    39.987199   -635.14034    1213.1547    5800.1627    9.5452648   0.24617624 
   46300   -679.59379    38.389619   -641.20417    1164.6863    15.878275    9.5535941   0.22244513 
   46400   -681.94578    41.166289   -640.77949    1248.9265   -7635.4748     9.508392   0.22210095 
   46500   -674.85583    42.222771   -632.63306    1280.9787     12192.16    9.6135768   0.24509675 
   46600   -678.52865    42.530228   -635.99842    1290.3065    3471.1867    9.5733553   0.23061902 
   46700   -679.02349     40.25073   -638.77275    1221.1498   -309.26662    9.5524837   0.21494984 
   46800   -683.84792    38.467908   -645.38001    1167.0615   -5920.1671    9.5649164   0.20745517 
   46900   -677.33231    39.219341   -638.11297    1189.8589    -2296.798    9.4826904   0.24713407 
   47000   -677.09878    40.591258   -636.50752    1231.4809    570.38174    9.5301483   0.23638409 
   47100   -680.48117     40.73154   -639.74963    1235.7369    5061.0485    9.6223846    0.2131305 
   47200   -683.42839    40.472714   -642.95568    1227.8845     5653.784    9.6884858   0.18781682 
   47300   -685.03073    35.801207   -649.22952    1086.1576   -7727.2582    9.5848993   0.17010221 
   47400   -678.28388     37.41811   -640.86577    1135.2121   -10116.247    9.4204696   0.24142475 
   47500   -679.61639    40.516539   -639.09985    1229.2141    5310.9124    9.6163176   0.18902475 
   47600   -679.32862    41.100817    -638.2278    1246.9402    5672.5594    9.6141056   0.20272681 
   47700   -675.42943    42.398901   -633.03053    1286.3222    5052.2864    9.5409641   0.22683071 
   47800    -674.8983    43.176763   -631.72154    1309.9215   -10139.097    9.3570266   0.31060356 
   47900   -678.22685    38.953859   -639.27299    1181.8046   -971.26853    9.5308073   0.24187117 
   48000   -678.46426    40.890231   -637.57402    1240.5513    2043.8536    9.5525665   0.23111477 
   48100   -675.71153    43.591467   -632.12006     1322.503      -3448.7    9.4515114   0.25197496 
   48200   -676.29298    37.012534   -639.28045    1122.9075     7406.787    9.5930104   0.24765125 
   48300   -681.76216    40.852935   -640.90923    1239.4199    545.37134    9.6115276   0.21301363 
   48400   -676.61672    41.282975   -635.33374    1252.4666    111.72372    9.5072094   0.26504314 
   48500   -674.32002    41.019984   -633.30004    1244.4879   -11675.546    9.3235012   0.30883174 
   48600   -679.51686    38.014284   -641.50258    1153.2992    1769.9802    9.5878574   0.23701786 
   48700   -679.98717    39.966427   -640.02074    1212.5244   -2050.9902    9.5513558   0.22863705 
   48800   -677.12728    42.966068   -634.16121    1303.5293   -8528.6641    9.4136378   0.25961539 
   48900   -676.89122    38.877361   -638.01386    1179.4837   -2679.2808    9.4822498   0.25648292 
   49000   -678.62356    36.828007   -641.79555    1117.3093   -3448.7549    9.5201398    0.2217793 
   49100    -675.6106    41.424874   -634.18572    1256.7716    5599.9359    9.5441601   0.26503455 
   49200   -675.74345    39.881604   -635.86185    1209.9511    8720.6124    9.5840082   0.26790642 
   49300   -678.10166    39.880781   -638.22088    1209.9261   -9483.7165    9.4395569   0.23957697 
   49400   -679.93911    36.372514    -643.5666    1103.4902    5102.0093    9.6279375   0.19724917 
   49500   -677.04919     40.91387   -636.13533    1241.2685    5807.3436    9.5877349   0.23554375 
   49600    -678.4098    41.833005   -636.57679    1269.1538   -4359.1054    9.4875309   0.27402246 
   49700   -679.91093    39.644105   -640.26683    1202.7457   -12171.704    9.4457447   0.28150808 
   49800   -678.91939    43.184106   -635.73528    1310.1442   -1643.9332    9.5242965   0.24151993 
   49900   -673.46423    41.759959   -631.70427    1266.9376    2066.5469    9.4645828   0.24600182 
   50000   -676.31635    39.009842   -637.30651     1183.503    -375.4133    9.5027668   0.21191679 
   50100   -681.59473    40.050708   -641.54402    1215.0814    5729.1245     9.646247   0.21795229 
   50200   -678.76807    43.412676    -635.3554    1317.0787    -811.8014    9.5246548   0.25693442 
   50300   -676.28531    41.822677   -634.46263    1268.8404   -5040.0381    9.4351716    0.2809625 
   50400   -680.31929    39.714518   -640.60477    1204.8819    4379.2532    9.6282818   0.20364463 
   50500   -682.57743    43.192221    -639.3852    1310.3905    2179.6691    9.6306211   0.19715511 
   50600   -675.78815    43.176549   -632.61161     1309.915    2813.7795     9.532185   0.23849944 
   50700    -679.8858    42.964937   -636.92086     1303.495    478.30493    9.5657481   0.21235307 
   50800   -679.33013    38.109379   -641.22075    1156.1843   -3735.9718    9.5108502   0.21979738 
   50900   -674.39979    39.003673   -635.39611    1183.3159    -8192.416    9.3807523   0.26550023 
   51000   -673.26477    39.609486   -633.65529    1201.6954    4833.9128    9.5087947   0.28052937 
   51100   -681.03116    40.018466   -641.01269    1214.1032     42.56281    9.5887536   0.21589032 
   51200   -679.42286    40.733547   -638.68931    1235.7978   -4785.8818    9.5022666   0.23493577 
   51300    -676.0925    43.482755   -632.60974    1319.2048   -9319.5638     9.385031   0.27680361 
   51400    -678.2545    41.620242   -636.63426    1262.6988    2981.3948    9.5673937   0.22672977 
   51500   -678.13323    37.448526    -640.6847    1136.1349    10924.727    9.6567232   0.22131964 
   51600   -678.98262    42.813878   -636.16875    1298.9121   -3377.3816    9.5152309   0.22957607 
   51700    -677.8973    39.784417   -638.11289    1207.0025   -4543.7802    9.4964161    0.2413875 
   51800   -682.12118    37.303772   -644.81741    1131.7433    4584.4223    9.6496027    0.1947583 
   51900   -676.25593    37.833698   -638.42223    1147.8205   -1291.8259    9.5000292   0.25852653 
   52000   -675.18498    38.501069   -636.68391    1168.0676   -2663.5311    9.4533826   0.25510172 
   52100   -679.21002    39.228676   -639.98134    1190.1421   -7008.3105    9.4843604   0.25327895 
   52200   -681.16867    35.240567    -645.9281    1069.1486     6341.631    9.6613838   0.21459357 
   52300   -679.17795    41.331133   -637.84682    1253.9277   -2401.5245    9.5197679   0.23018818 
   52400   -678.44212    41.536957   -636.90516    1260.1721   -4190.4859    9.4916669   0.23252217 
   52500   -680.03737    44.717177    -635.3202    1356.6554    5488.8518    9.6211426   0.21316485 
   52600   -683.89428    39.913972   -643.98031     1210.933   -2964.1189     9.598643   0.19832946 
   52700    -678.2509    36.568106   -641.68279    1109.4242   -8044.4911     9.451135    0.2445604 
   52800   -676.79827    40.698801   -636.09947    1234.7436   -7331.8874    9.4275342   0.23332264 
   52900   -679.05798    40.432797   -638.62518    1226.6735    7419.7689    9.6248123   0.23371042 
   53000   -679.98733    44.372586   -635.61474     1346.201   -3347.4907    9.5267041    0.2073338 
   53100   -673.63552    41.176659   -632.45886    1249.2412   -1177.2085    9.4387813   0.26509223 
   53200   -678.43465    38.633217   -639.80143    1172.0768    1854.4343    9.5563413   0.23957714 
   53300   -680.15648    41.342244   -638.81423    1254.2648   -6134.7534    9.5155919   0.23995658 
   53400   -676.07366    42.623914   -633.44975    1293.1488   -3079.1722    9.4493592   0.28702003 
   53500   -672.26036    42.881468   -629.37889    1300.9627   -1873.6691    9.3933988   0.32186509 
   53600   -674.82797    44.056414   -630.77156    1336.6088    10922.295    9.5771982   0.26733594 
   53700   -679.93749    43.280334   -636.65715    1313.0637    650.27396    9.5611827   0.21411876 
   53800   -678.21044    40.391787   -637.81865    1225.4293   -4354.5023    9.5040744   0.21061206 
   53900   -679.08447    40.161946   -638.92253    1218.4562     931.0613    9.5647259   0.22021341 
   54000   -672.76614    42.382001   -630.38414    1285.8095    5237.8231    9.4798424   0.29562462 
   54100   -673.58218     38.86942   -634.71276    1179.2428   -5701.5214    9.3918769   0.28440687 
   54200   -675.67165    38.525421   -637.14623    1168.8064   -7113.9281    9.4197547   0.25376741 
   54300   -677.54952    38.740318   -638.80921    1175.3261    6108.2072    9.5885367   0.23610218 
   54400   -678.43346    44.353372   -634.08009    1345.6181    3328.4116    9.5569988   0.24306632 
   54500   -674.48529    45.538986    -628.9463     1381.588   -5077.3533    9.4036517   0.27423568 
   54600   -677.53389    41.514842   -636.01905    1259.5011   -7619.7867    9.4432646   0.22536756 
   54700   -679.10456    39.331028   -639.77353    1193.2473   -6048.6775    9.4916543   0.24897169 
   54800   -679.29291    42.435281   -636.85763     1287.426     10591.35    9.6668823    0.1974386 
   54900   -674.83189      44.7888   -630.04309    1358.8284    7724.9158     9.528912   0.24167305 
   55000   -674.15384     38.63508   -635.51876    1172.1333   -5282.4072    9.4189549   0.24502927 
   55100   -678.16474    38.348739     -639.816    1163.4461   -3905.3871    9.5057143   0.23033813 
   55200   -679.51439    42.215908   -637.29849    1280.7705    3795.5415    9.5936605   0.20207435 
   55300   -677.98409    42.781407   -635.20268    1297.9269    3819.0767     9.552358   0.21808582 
   55400    -669.2016    38.983084   -630.21852    1182.6912    1333.4754    9.3885063   0.36028632 
   55500   -677.01674    38.401926   -638.61482    1165.0597   -13160.807    9.3812768   0.26766848 
   55600   -679.88409    41.786313   -638.09777    1267.7372   -1271.3438    9.5575652   0.21690871 
   55700   -680.70938    42.454509   -638.25487    1288.0093    4194.4209    9.6138391   0.21991254 
   55800   -674.78325    43.647434   -631.13582     1324.201    1756.6659    9.4784758   0.26454501 
   55900   -676.74884    40.201706   -636.54714    1219.6625   -6515.9958    9.4367983   0.26082146 
   56000   -681.28411    41.514188   -639.76992    1259.4813   -5460.8708    9.5229685   0.24681414 
   56100   -676.30088     40.12316   -636.17772    1217.2795     6415.187    9.5922449   0.23090959 
   56200   -672.12922    41.326694   -630.80253     1253.793    2125.8111    9.4545116    0.2888258 
   56300   -678.44609    38.695793   -639.75029    1173.9752    1693.4612    9.5798653   0.25874268 
   56400    -679.3514    40.666356   -638.68505    1233.7593   -6114.3837    9.4788862   0.26194755 
   56500   -677.16034    40.038255   -637.12209    1214.7036   -291.77421    9.5123953   0.26215577 
   56600   -673.78443     40.65238   -633.13205    1233.3353    4524.6373     9.492977   0.28331522 
   56700   -671.58618    42.672648   -628.91353    1294.6273   -10443.503    9.2955531   0.27850912 
   56800   -676.28479    40.046023   -636.23877    1214.9393   -10295.351    9.3953636   0.23112321 
   56900   -677.55272    38.776222    -638.7765    1176.4153    4482.8937    9.5656873   0.21341163 
   57000   -679.59699    43.647052   -635.94994    1324.1894    2322.7119    9.5764139   0.21748343 
   57100   -673.42735    43.248159   -630.17919    1312.0875    2596.1692    9.4808378   0.26502714 
   57200   -678.08934    39.885186   -638.20415    1210.0597    8542.2174    9.6123407   0.23345675 
   57300   -677.40119    36.737244   -640.66394    1114.5556   -5709.7679    9.4664598   0.26732298 
   57400   -676.03739    40.922497   -635.11489    1241.5303   -4308.8071    9.4500254   0.24991264 
   57500   -679.03385    42.059004   -636.97484    1276.0103    1185.4495    9.5524755   0.23391704 
   57600   -684.73574    42.154924   -642.58081    1278.9203   -2349.2463    9.6175835   0.17676361 
   57700   -678.17725    41.856594   -636.32066    1269.8694   -1231.8724    9.5115649    0.2210564 
   57800   -676.31115    40.991649    -635.3195    1243.6282   -1234.0283    9.4868176   0.27876447 
   57900   -680.05129    37.588981   -642.46231    1140.3961    5020.4847    9.6275181    0.2257037 
   58000   -680.14975    40.412503   -639.73725    1226.0578    1699.6262    9.5815203   0.21114972 
   58100   -676.47764    39.968683   -636.50896    1212.5929     2589.335    9.5381015   0.22386996 
   58200   -678.38876    39.322143   -639.06662    1192.9778   -5115.7371    9.4921536   0.21546528 
   58300   -684.73985    39.809768   -644.93008    1207.7716   -3227.7504    9.6149909   0.20699617 
   58400   -679.36421    41.920333   -637.44388    1271.8032    246.71186    9.5572239   0.23679057 
   58500   -676.20396    39.731447   -636.47252    1205.3955    5998.4663    9.5683871   0.24180303 
   58600   -676.91844    38.983352   -637.93509    1182.6994   -1292.6987    9.4952102   0.24275827 
   58700   -678.75226    34.379529   -644.37273    1043.0259   -5461.5205    9.5084156   0.26001212 
   58800   -678.10338    39.689364   -638.41401    1204.1188   -1286.9624    9.5160586   0.23755027 
   58900    -677.0198    41.747092   -635.27271    1266.5473    2522.6615    9.5433036   0.22854696 
   59000   -680.03496    41.263011   -638.77195     1251.861   -2175.8218    9.5309823   0.20545307 
   59100   -679.91806    37.683662    -642.2344    1143.2686    5198.8886    9.6267491   0.18332573 
   59200   -679.91514    43.768269   -636.14687    1327.8669     904.4159    9.5576815   0.22248966 
   59300   -679.77551     43.71975   -636.05576    1326.3949    3283.2855    9.5947792   0.22077422 
   59400   -680.41787    38.161774    -642.2561    1157.7738    6474.2251    9.6672048   0.20672938 
   59500   -680.32031    43.085237   -637.23507    1307.1447   -11753.654    9.4394589   0.23664218 
   59600   -677.24351    41.631622   -635.61188    1263.0441   -2765.9744    9.4822963   0.25750867 
   59700   -677.67164     38.55589   -639.11575    1169.7308    2299.4665    9.5647431   0.23994662 
   59800   -684.45926    38.405475   -646.05379    1165.1674    4037.4141    9.6992571   0.18875721 
   59900   -683.44538    42.724557   -640.72082    1296.2022   -4246.1201    9.5860873   0.19557134 
   60000   -676.56022    38.602757   -637.95747    1171.1526    4500.3608    9.5764808   0.23392882 
   60100   -676.15524    42.011434   -634.14381     1274.567    2985.2215    9.5118556   0.24954481 
   60200   -677.55539    39.081521   -638.47387    1185.6777   -7051.2597    9.4455284     0.262365 
   60300   -679.68414    38.819943   -640.86419    1177.7417   -9292.4216    9.4689615   0.25906249 
   60400   -677.43077    41.572117   -635.85866    1261.2388    7375.0042    9.6050609   0.23715933 
   60500   -675.25693    40.495924   -634.76101    1228.5886    12097.695    9.6231464   0.24178109 
   60600   -681.69573    38.037501   -643.65823    1154.0036   -650.03126    9.6009311   0.20871437 
   60700   -678.61099    38.670226   -639.94076    1173.1996   -3669.0721     9.507221   0.22995582 
   60800   -676.78877    40.803638   -635.98514    1237.9242   -4325.9527    9.4734178   0.28499927 
   60900   -671.34048    39.778497   -631.56199    1206.8229    5339.9268    9.4678216   0.27749214 
   61000   -678.85631    39.136277   -639.72004    1187.3389   -622.15243     9.548012   0.20532245 
   61100   -679.63243    40.087862   -639.54457    1216.2086    -527.7801    9.5614154   0.24993727 
   61200   -675.89427    41.496322   -634.39795    1258.9393    7710.8418    9.5772633   0.25972508 
   61300   -676.92603    39.233249   -637.69278    1190.2809    666.16696    9.5228396   0.26400587 
   61400   -681.83638    38.840488   -642.99589    1178.3651    238.69195    9.6045259   0.20485382 
   61500    -683.1623    42.012963   -641.14934    1274.6134   -5554.5622    9.5561944   0.19776414 
   61600   -677.80903    41.880654   -635.92837    1270.5994    -1334.048    9.5267399   0.21159963 
   61700   -682.42631    43.675686   -638.75062    1325.0581   -329.48921    9.6022813   0.19932689 
   61800   -678.53949    37.744616   -640.79488    1145.1179    6093.1985    9.6218292   0.20029716 
   61900   -674.12177    41.449431   -632.67234    1257.5167    -7197.349    9.3823784   0.28006149 
   62000   -677.98238    41.917688   -636.06469    1271.7229    4241.9346    9.5765996   0.22017616 
   62100   -682.90423    42.895595   -640.00863    1301.3912    5136.4479    9.6725536   0.18931691 
   62200   -682.04565    45.316557    -636.7291    1374.8398   -2884.3319    9.5564187   0.20122456 
   62300   -675.42347    41.937144   -633.48632    1272.3132   -9534.3279    9.3709362   0.24635129 
   62400    -681.9629    40.959766   -641.00314    1242.6609   -4940.2906    9.5486304   0.22150124 
   62500   -680.50143    43.111478   -637.38995    1307.9408    2340.9284    9.5940574   0.23343691 
   62600   -675.59216    42.133856    -633.4583    1278.2811   -2918.4866    9.4581176   0.28686161 
   62700   -678.23923    41.598823   -636.64041     1262.049   -1135.1786    9.5319693   0.26218688 
   62800   -679.75724    40.210644    -639.5466    1219.9336    -1272.867    9.5317466   0.23487646 
   62900   -678.16505    42.191586   -635.97346    1280.0326   -12087.799    9.3903367   0.26951642 
   63000   -676.60212    43.490173   -633.11194    1319.4299    2584.4789    9.5181416   0.26852922 
   63100   -681.10522     41.71606   -639.38916    1265.6058    5287.7438    9.6290822   0.20903203 
   63200   -681.14734    42.627222   -638.52012    1293.2492    1082.9365    9.5819036   0.22886098 
   63300   -676.07039    44.303427   -631.76696    1344.1028   -5273.2496    9.4328555    0.2991163 
   63400   -673.27835    40.300125   -632.97823    1222.6484   -206.68143    9.4403648   0.28226295 
   63500   -676.87691     38.88903   -637.98788    1179.8378   -3914.2941    9.4692307   0.26216538 
   63600   -676.12312     39.07267   -637.05046    1185.4091    4085.9692    9.5437337   0.23640937 
   63700   -680.25382    37.337764   -642.91606    1132.7746    787.93368    9.5861085    0.2058228 
   63800   -679.25836    36.752269   -642.50609    1115.0115   -534.68937    9.5493618   0.22716277 
   63900   -678.57168    41.015259   -637.55642    1244.3445    -3136.671    9.5095905   0.24179345 
   64000   -673.60773    37.111573   -636.49616    1125.9122    10286.699    9.5847546   0.24532688 
   64100   -680.22838    37.668485   -642.55989    1142.8082   -4354.7407    9.5291734   0.21534991 
   64200   -681.39839    39.397343   -642.00105    1195.2592   -7511.9822    9.5094257   0.22128138 
   64300   -677.98787    40.486471    -637.5014    1228.3018    1755.3093    9.5585306    0.2206757 
   64400   -680.76932    42.844911   -637.92441    1299.8536   -564.55614    9.5824189   0.22477549 
   64500   -679.55401    39.577127   -639.97688    1200.7136    4508.6836    9.6095643   0.22857955 
   64600   -685.06714    40.258004   -644.80914    1221.3705   -9534.8989    9.5457292   0.19264096 
   64700   -674.85561    36.941074   -637.91453    1120.7396   -4036.4364    9.4274719   0.30920662 
   64800    -676.4627    40.808389   -635.65431    1238.0684    2921.8218    9.5436217    0.2608406 
   64900   -680.87748    41.384193   -639.49329    1255.5375   -4064.2427    9.5347854   0.24229752 
   65000   -683.08395    38.191034   -644.89292    1158.6615   -879.92064    9.6185594   0.21364306 
   65100   -679.25924    41.846006   -637.41323    1269.5482   -2509.6894    9.5325573    0.2322876 
   65200   -677.17103    40.467179   -636.70385    1227.7166    2974.1749    9.5448555   0.23259053 
   65300   -677.75154    36.156514   -641.59502    1096.9371    1199.3597     9.558069   0.22954355 
   65400   -679.12245    36.310896   -642.81156    1101.6209    2744.5257    9.5843212   0.20950447 
   65500   -673.74167    39.010093   -634.73158    1183.5106     9761.484    9.5638611    0.2447551 
   65600   -679.99819    42.712701   -637.28549    1295.8425    237.65921    9.5506205   0.21812139 
   65700   -679.98103    39.466936   -640.51409    1197.3706   -3445.4043    9.5261362   0.22594173 
   65800   -673.17381    39.841892   -633.33192    1208.7462   -5326.1107    9.4071178   0.29407514 
   65900   -677.83036     44.00882   -633.82154    1335.1649   -10956.807    9.3991976   0.28206907 
   66000   -679.30154     40.10099   -639.20055    1216.6069    5770.2464    9.6177341    0.2203735 
   66100   -679.11107    42.773284   -636.33778    1297.6805    9441.5229    9.6521522   0.21375552 
   66200   -675.00295    43.343051    -631.6599    1314.9664   -2088.4648    9.4610475   0.25727373 
   66300   -678.43372    38.598899   -639.83483    1171.0356    3473.2371    9.5848843   0.21078342 
   66400   -678.81898    39.075334   -639.74365    1185.4899   -3203.9674    9.5121135   0.23967703 
   66500   -675.65879    37.919407   -637.73939    1150.4208   -4871.8669    9.4500773   0.27620254 
   66600   -674.90177    42.124791   -632.77698    1278.0061    -796.4259    9.4559692   0.26548063 
   66700   -672.85166    44.582089   -628.26957     1352.557    6984.1352    9.5023921   0.27333842 
   66800    -679.3871    42.868169   -636.51893    1300.5592     4143.305    9.5971546   0.24802447 
   66900   -677.57402    40.658606   -636.91541    1233.5242   -924.68873    9.5240671   0.23287222 
   67000   -677.70042    39.461801   -638.23862    1197.2148    -817.0408    9.5220298   0.22974999 
   67100    -682.3752    37.624557   -644.75064    1141.4755   -1317.3878    9.6016548   0.17249092 
   67200   -678.50905    40.895234   -637.61381    1240.7031   -3647.7124    9.5109691   0.26123567 
   67300   -680.37551    43.565649   -636.80986    1321.7197   -375.28857     9.558299   0.23235955 
   67400   -680.64095    41.410902   -639.23004    1256.3478    5981.8993    9.6314466   0.22707886 
   67500   -676.89811     38.31526   -638.58285    1162.4304   -3031.8712    9.4851802   0.26706547 
   67600   -674.32071    41.825838   -632.49487    1268.9363   -1195.0576    9.4482721   0.27553204 
   67700   -675.93607    39.981471   -635.95459    1212.9809    5427.4648    9.5540642   0.19937967 
   67800    -677.8895    37.064172   -640.82533    1124.4742    9406.3441     9.642726   0.20573488 
   67900   -677.95952    40.435921    -637.5236    1226.7682   -4727.3394     9.479081   0.23875553 
   68000   -673.39325    41.126836   -632.26642    1247.7296   -2456.1635    9.4308367   0.28825955 
   68100   -682.15395    44.085818   -638.06813    1337.5009   -2061.8229    9.5782708    0.2200195 
   68200   -682.82317    42.599657   -640.22352    1292.4129    -1141.158    9.5891423   0.19340367 
   68300   -674.72376    41.804226   -632.91953    1268.2807   -3953.4111    9.4210479   0.25984619 
   68400   -674.42742    39.843616   -634.58381    1208.7985    2643.1143    9.4912508   0.25340045 
   68500   -680.74713    41.343891   -639.40324    1254.3148   -4731.1249    9.5119939   0.23097049 
   68600   -679.85578    40.367225   -639.48856    1224.6841    2185.4083     9.582881   0.22886611 
   68700   -673.81863    41.399037    -632.4196    1255.9878   -612.81516     9.437636   0.26735166 
   68800   -674.81841    38.078192   -636.74022    1155.2381   -6975.8737    9.4070576   0.27079752 
   68900   -679.38629    38.891506   -640.49478    1179.9129   -6113.4778    9.5029703   0.21544673 
   69000   -678.33188    38.645831   -639.68605    1172.4594    8197.7395    9.6370593   0.21815709 
   69100   -674.52759    42.697462   -631.83012    1295.3802     5995.278    9.5284872   0.25924673 
   69200   -679.24873    40.830242   -638.41849    1238.7314    415.87224    9.5490035   0.22635295 
   69300   -678.62207    39.349781   -639.27229    1193.8163    1668.8606    9.5782231   0.21994339 
   69400   -676.04158    42.606149   -633.43543    1292.6098   -4340.7799    9.4246971   0.26139993 
   69500   -673.49474    40.869282   -632.62546    1239.9158   -1494.9725      9.43487   0.30185966 
   69600   -680.79036    41.477187   -639.31317    1258.3587   -1355.4739    9.5651291   0.23344768 
   69700   -681.23597    41.219016   -640.01696    1250.5262   -7465.9839    9.5072223   0.21260519 
   69800   -675.62615    42.884359   -632.74179    1301.0504     1396.738    9.4979711   0.26197057 
   69900   -680.22954    44.758821   -635.47072    1357.9189   -7.8170761    9.5520754   0.22414679 
   70000   -677.92128    38.767221   -639.15406    1176.1422   -160.83207    9.5388811   0.25957648 
   70100    -678.9714    42.070045   -636.90135    1276.3452   -14674.473    9.3793042   0.26236889 
   70200   -673.18689    40.930086   -632.25681    1241.7605   -5243.7467    9.3730035   0.29342993 
   70300    -674.2045    41.661956   -632.54254    1263.9644   -4298.8167    9.3982152   0.26013178 
   70400   -677.52433    39.281888   -638.24244    1191.7565    6469.8943    9.5917402   0.24704404 
   70500   -675.84324    41.006351   -634.83689    1244.0743    3091.2762    9.5393123   0.26666204 
   70600   -677.12838    39.657882    -637.4705    1203.1636   -1940.8572     9.493243   0.26586766 
   70700   -680.51712    38.844332   -641.67279    1178.4817    3212.7136    9.6254663   0.21675363 
   70800   -675.41978    40.606314   -634.81347    1231.9377    2465.1275     9.504608   0.26585068 
   70900   -674.83539    39.518889    -635.3165    1198.9468    2207.1235    9.4886595   0.29294239 
   71000   -676.57641    35.703513   -640.87289    1083.1937    261.87546     9.508313   0.25784561 
   71100   -680.37432    38.594265   -641.78005     1170.895    -14676.53    9.4267542   0.25149507 
   71200   -677.81581    42.406317   -635.40949    1286.5472     4065.869    9.5684711   0.25496178 
   71300   -678.82373    40.941438   -637.88229    1242.1049    8930.2076    9.6489157   0.23377751 
   71400   -679.98868     39.89816   -640.09052    1210.4533    5550.6554    9.6231928    0.2016768 
   71500   -677.13174    44.466632   -632.66511    1349.0543    -9309.054    9.3922658   0.26617237 
   71600   -676.81793    43.071949   -633.74598    1306.7416   -133.28729      9.50982   0.26660775 
   71700   -681.33228    40.427688   -640.90459    1226.5184    3891.3915    9.6271275   0.22534634 
   71800   -680.20052    43.606552   -636.59396    1322.9607   -6970.2641    9.4887475   0.20950226 
   71900   -677.61154    42.612078   -634.99946    1292.7897    5713.9369    9.5734245   0.22966413 
   72000   -681.03847    38.845965    -642.1925    1178.5312    709.50407    9.6005572   0.22225338 
   72100   -679.40533    41.414275   -637.99105    1256.4501   -2195.4597    9.5359147   0.23187387 
   72200   -677.19491    41.696669   -635.49824    1265.0175   -5009.4061    9.4579743   0.24758534 
   72300   -679.80784    39.499137    -640.3087    1198.3475    2693.4034    9.5841351   0.24634233 
   72400   -682.98831    40.923778   -642.06453    1241.5691    870.22014    9.6322449   0.20479944 
   72500   -677.00762    42.970307   -634.03731    1303.6579    776.85401    9.5120752   0.26925258 
   72600   -677.40019    41.263324   -636.13687    1251.8704    6862.8003     9.602119   0.25176168 
   72700   -681.11315    42.217685   -638.89547    1280.8244   -1729.2844    9.5754109   0.20892485 
   72800   -678.02051    40.386573   -637.63394    1225.2711   -336.15395    9.5304904   0.21847383 
   72900   -672.72063    41.813351   -630.90728    1268.5575    4331.8933    9.4833988   0.28151983 
   73000   -673.78561    36.791999   -636.99361    1116.2168     3608.209    9.5091372    0.2594517 
   73100   -679.38585    39.789614   -639.59624    1207.1602   -290.33596    9.5703646     0.224927 
   73200   -681.71282    41.345865   -640.36695    1254.3746    8254.7428    9.6851339   0.19848441 
   73300   -678.30628    46.303731   -632.00255    1404.7892    2654.6934    9.5527793   0.23807924 
   73400   -678.24346    41.411193   -636.83227    1256.3566   -1855.3083    9.5250593   0.22415079 
   73500   -679.25232    39.272696   -639.97963    1191.4776   -5543.5504    9.4964877   0.22251991 
   73600   -675.58524    40.621441    -634.9638    1232.3967    5066.8325    9.5431779    0.2506909 
   73700   -675.04826    41.087717   -633.96055    1246.5428    93.561508    9.4619178   0.28568458 
   73800    -677.5378    39.562619   -637.97518    1200.2735   -211.19475    9.5191757     0.218367 
   73900   -680.49762    37.819178   -642.67845      1147.38   -5267.2085    9.5261208   0.21940378 
   74000   -673.89397    38.645138   -635.24883    1172.4384    -3331.034    9.4139721   0.30422706 
   74100   -673.40248    39.706983   -633.69549    1204.6533   -1597.3789    9.4252435   0.28572787 
   74200   -678.97344    40.809223   -638.16422    1238.0937   -1105.0388    9.5369931   0.24409955 
   74300   -682.71663    43.386963   -639.32967    1316.2986     2643.301     9.622121   0.21311622 
   74400   -674.57076    42.888524   -631.68224    1301.1767   -5824.7002    9.4208531    0.2664142 
   74500   -676.97159    40.164151   -636.80744    1218.5231   -668.80864    9.4990697   0.25323841 
   74600   -679.35529    40.754057   -638.60123      1236.42    3164.3772    9.5972444   0.22822943 
   74700   -675.03463    43.075514   -631.95911    1306.8497    11076.587    9.6070911   0.22693733 
   74800   -680.68111    43.220995   -637.46012    1311.2634   -735.26335     9.554858    0.2299685 
   74900   -679.89774    40.334844    -639.5629    1223.7017   -3325.0422    9.5351329   0.22210048 
   75000    -675.2522    40.284439   -634.96776    1222.1725   -8030.1186      9.37775   0.26677604 
   75100   -673.64027    40.182575    -633.4577    1219.0821   -9599.3119    9.3327345   0.28635683 
   75200   -679.14377    40.439348   -638.70443    1226.8722    883.22574    9.5628469   0.24897868 
   75300   -680.16344    42.421519   -637.74192    1287.0084    13427.187    9.6962147   0.20936427 
   75400   -674.78682    42.431374   -632.35545    1287.3074    10051.039    9.5813829   0.26119932 
   75500   -679.05285    39.902449    -639.1504    1210.5835   -10477.132    9.4444666   0.24374863 
   75600   -677.64661    37.718317   -639.92829      1144.32   -6719.6381    9.4564546   0.23483701 
   75700   -677.44164    40.845168   -636.59647    1239.1842    3208.3333    9.5388896   0.22881712 
   75800   -678.68606    43.352736   -635.33332    1315.2602   -1807.8276    9.4984581   0.23629049 
   75900   -681.89385    39.324152    -642.5697    1193.0387    9705.7589    9.7137363   0.18974713 
   76000   -677.74803    39.951958   -637.79607    1212.0855   -496.08228    9.5252041   0.22509483 
   76100   -674.84425    39.115931   -635.72832    1186.7216   -3004.7266    9.4516209    0.2689869 
   76200   -681.72361    39.656591   -642.06701    1203.1245   -2955.0772    9.5735691   0.20392869 
   76300   -681.90882    42.201448   -639.70737    1280.3318    2568.2843    9.6227564   0.21868516 
   76400   -678.71618    43.056185      -635.66    1306.2633   -2326.8122    9.5142354   0.24286804 
   76500   -678.52531    40.886597   -637.63872    1240.4411    158.89537    9.5459215   0.22380958 
   76600   -683.26688    38.483908   -644.78297    1167.5469   -8777.9367     9.532528   0.19287394 
   76700   -679.52542    40.856417     -638.669    1239.5255    886.02632    9.5693096    0.2072041 
   76800   -678.21763    42.085166   -636.13247     1276.804    3567.2411    9.5778452   0.24727212 
   76900   -675.70063    41.993884   -633.70674    1274.0346   -5088.7559    9.4358903   0.25670813 
   77000     -669.674    42.726736   -626.94726    1296.2683    1610.2652    9.3853749   0.31028517 
   77100   -676.78764    41.284273   -635.50336     1252.506   -418.80036    9.5060669   0.22741957 
[...]
  481400   -668.78856    37.793396   -630.99516    1146.5978   -2281.0672    9.3371088   0.34167006 
  481500   -671.65524    44.318598   -627.33664    1344.5631   -5462.9171    9.3478429   0.32373476 
  481600   -676.02979    42.064335   -633.96545     1276.172    6443.9447    9.5615689   0.25110507 
  481700   -680.16821    42.556732   -637.61148    1291.1106    5981.4633     9.635509   0.19556944 
  481800   -676.44907    37.591892   -638.85718    1140.4844   -10477.127    9.3976044   0.25913806 
  481900   -672.18379    38.407472   -633.77632     1165.228   -3033.5792     9.399745    0.3302134 
  482000   -673.22622      41.0027   -632.22352    1243.9635    3738.1975    9.4794771   0.30957627 
  482100    -683.0728    44.033132   -639.03967    1335.9025   -4256.2241    9.5653067   0.20213626 
  482200   -683.77358    43.360601   -640.41298    1315.4989   -7983.1133     9.542416   0.19793056 
  482300   -674.96827     42.41597    -632.5523    1286.8401   -283.84298    9.4706917   0.24717991 
  482400   -678.96223     43.26677   -635.69546    1312.6522   -193.43967    9.5414755   0.23139292 
  482500   -682.87814    42.419787   -640.45836    1286.9559    5490.1688    9.6741356   0.19346925 
  482600   -680.71954    43.674856   -637.04468    1325.0329   -2984.0213    9.5340985   0.21859645 
  482700   -676.77271    44.012234   -632.76047    1335.2685   -1818.9333    9.4891884    0.2425817 
  482800   -678.60431    39.076879   -639.52743    1185.5368    11789.735    9.6752425   0.21363214 
  482900    -677.7735    39.991636   -637.78187    1213.2892     1032.765     9.539059    0.2242829 
  483000   -673.67367    40.600571    -633.0731    1231.7635   -12568.883    9.3127492   0.30648591 
  483100   -674.53339    36.890378   -637.64301    1119.2015   -5116.3239    9.4182106   0.26829848 
  483200   -680.00514    38.942455   -641.06268    1181.4586    550.00224    9.5838467   0.22963419 
  483300   -677.23239    41.541276   -635.69112    1260.3031    4045.5126    9.5667905   0.23098165 
  483400   -675.87419    42.087535   -633.78665    1276.8759    1180.3896    9.4989382    0.2597802 
  483500   -682.38789     40.13554   -642.25235    1217.6551   -2267.4851    9.5826518   0.19511231 
  483600   -681.09957    40.975976    -640.1236    1243.1527   -1984.9446    9.5769436   0.19241949 
  483700   -679.78057    44.347774   -635.43279    1345.4483    1762.8945    9.5814784   0.22760615 
  483800   -677.15851     42.28662   -634.87189    1282.9158    6980.6043    9.5798846   0.22578878 
  483900   -679.78164    38.868283   -640.91336    1179.2083    7516.2393    9.6415464    0.2021476 
  484000   -678.75786    41.093897   -637.66396    1246.7303   -4651.3184    9.4829134   0.22909429 
  484100   -674.70166    40.053713   -634.64795    1215.1726   -5766.6125    9.4050214   0.27562526 
  484200   -676.33535    37.415025   -638.92033    1135.1186   -4682.9373    9.4594174    0.2781902 
  484300   -676.73475     41.21361   -635.52114    1250.3622    2506.5233    9.5253665   0.25178663 
  484400   -674.65978    43.531401   -631.12838    1320.6807    8153.4336    9.5610166   0.25243805 
  484500   -680.93295    42.339058   -638.59389    1284.5067   -6979.2307     9.509687   0.22457587 
  484600   -678.33145     40.33068   -638.00077    1223.5754   -1224.1362    9.5273445   0.21689846 
  484700   -674.80966    42.758086   -632.05157    1297.2194     -1896.53    9.4496892   0.25893412 
  484800   -674.50916    43.421073   -631.08809    1317.3335    3350.2391    9.4933658   0.26812352 
  484900   -681.55151    43.819404   -637.73211    1329.4183    1046.8255    9.5819572   0.21425918 
  485000   -677.44249    39.657653   -637.78484    1203.1567    721.12685    9.5415612   0.22539773 
  485100     -678.685    43.172041   -635.51296    1309.7782   -1085.9171    9.5251164   0.23880249 
  485200   -672.47009    44.622056   -627.84804    1353.7696   -6325.4982    9.3632781   0.28539355 
  485300   -678.16445    42.830164   -635.33428    1299.4061    4714.5398    9.5907374   0.23969294 
  485400   -679.37947    41.596737   -637.78273    1261.9857   -1130.6741    9.5482687   0.24890006 
  485500   -677.35523     39.54821   -637.80703    1199.8363   -5815.0735    9.4533058   0.25208933 
  485600   -668.04304    38.799242    -629.2438    1177.1137    3804.5941    9.3708497   0.28869182 
  485700   -677.29298    43.455712   -633.83726    1318.3844   -7620.7439    9.4227936   0.23713609 
  485800   -679.93685    43.039693   -636.89716     1305.763    4064.3585    9.5922798   0.22268636 
  485900   -678.07174    41.785001   -636.28674    1267.6974    7569.1867    9.6140651   0.22606251 
  486000    -678.6059    39.013266   -639.59263    1183.6069   -1034.9155    9.5457013    0.2413153 
  486100   -680.81748    37.097819   -643.71967     1125.495   -6639.6864    9.5151598   0.22474929 
  486200    -678.4838    42.146537   -636.33726    1278.6659   -9401.7669    9.4298938   0.26178475 
  486300   -679.22775    43.651801   -635.57595    1324.3335    6934.3265     9.613298   0.24026835 
  486400   -679.89158    39.861015   -640.03056    1209.3264   -3206.0778    9.5304935   0.24266102 
  486500   -682.63838    37.910521   -644.72785    1150.1512   -8731.8345    9.5217622   0.22901076 
  486600   -677.51046    40.095354    -637.4151    1216.4359    5200.5941    9.5744922   0.27818819 
  486700   -678.00962    42.692956   -635.31667    1295.2434    667.56715    9.5297692   0.22733151 
  486800   -679.79781    40.512762   -639.28505    1229.0995    132.39323    9.5566121   0.22021677 
  486900   -679.89543    37.095298   -642.80014    1125.4185    5356.4737    9.6225566   0.19686435 
  487000   -676.48887    41.540797   -634.94807    1260.2886   -6722.7642     9.413747   0.23499265 
  487100   -679.65833    43.196128    -636.4622     1310.509   -5937.6952    9.4869664   0.24447455 
  487200   -683.27932    42.281761   -640.99755    1282.7684    4371.8032    9.6625286   0.19819245 
  487300    -677.5779    42.972909     -634.605    1303.7368   -514.33952    9.5152657   0.21997447 
  487400   -676.36238    42.285304   -634.07707    1282.8759    -1721.819    9.4759335   0.23989008 
  487500   -680.97956     40.54305   -640.43651    1230.0184    -5530.322    9.5260364   0.21319985 
  487600   -682.55727    44.095567   -638.46171    1337.7967    5179.7607    9.6639884   0.20479061 
  487700   -676.17281     44.09165   -632.08117    1337.6778    11659.953     9.615534   0.28017172 
  487800   -674.36889    39.667383    -634.7015    1203.4519   -4997.0797    9.3994468   0.30475442 
  487900   -677.69487    37.812029   -639.88284    1147.1631   -11761.521    9.3756835   0.25655553 
  488000   -677.02543    39.671326    -637.3541    1203.5715    115.36152    9.5267066    0.2491721 
  488100   -674.37746    43.440981   -630.93648    1317.9375    8951.9556    9.5714173   0.23769184 
  488200   -679.27264    43.856686   -635.41596    1330.5494    1251.7435     9.540018   0.21660643 
  488300   -677.14032    38.067104   -639.07322    1154.9017    835.09663    9.5193024   0.24217159 
  488400   -676.25247     37.98266   -638.26981    1152.3398   -909.83129     9.493052   0.23303917 
  488500     -676.058    42.329374   -633.72862    1284.2129    -1782.087    9.4679255    0.2292336 
  488600   -673.39833    41.239922    -632.1584    1251.1605    12248.256    9.5775043   0.26368262 
  488700   -676.35434    38.382153   -637.97219    1164.4598    1636.0209    9.5307766   0.26462925 
  488800   -674.05944    39.234086   -634.82536    1190.3063    1029.7583    9.4846552   0.25390411 
  488900   -676.67229    42.171516   -634.50077    1279.4237   -1387.8671    9.4869111   0.23906086 
  489000   -679.15161    37.022895   -642.12871    1123.2219    11516.584    9.6864221   0.20515535 
  489100   -676.37584    38.223637    -638.1522    1159.6507   -574.56502    9.4975061   0.23576979 
  489200   -678.69116    42.593389   -636.09777    1292.2227   -1820.9977    9.5170647    0.2588973 
  489300   -679.58264    42.484669   -637.09798    1288.9243   -1623.2211    9.5343987   0.22130478 
  489400   -681.89841    38.433628   -643.46478    1166.0215   -4840.7013    9.5602645   0.22830962 
  489500   -675.57941    37.327852   -638.25156    1132.4738    3962.0843    9.5342066    0.2396246 
  489600   -676.96851    40.154885   -636.81362     1218.242   -3191.6914     9.477187   0.23829279 
  489700   -679.76256    37.085194   -642.67736     1125.112    2035.7816    9.5865941   0.22577909 
  489800    -680.9517    40.733136   -640.21856    1235.7853    8107.8237    9.6664752    0.2095233 
  489900   -676.74073    41.990408   -634.75033    1273.9291   -4336.2601    9.4564689   0.26007677 
  490000   -674.70997    37.678544   -637.03143    1143.1134   -2903.1619     9.439233   0.29581566 
  490100   -675.70919    35.111512   -640.59768    1065.2332   -3184.7503    9.4690181   0.27521704 
  490200   -683.18315    38.928137   -644.25501    1181.0242    -487.2878     9.609806   0.22273635 
  490300   -677.22542    40.965854   -636.25957    1242.8456     3390.739    9.5480123   0.26496455 
  490400     -677.594    40.355541   -637.23846    1224.3296    332.59579    9.5135256   0.23691891 
  490500   -679.62789    38.224119   -641.40377    1159.6653    3690.3925    9.6047162   0.19984701 
  490600   -684.57121    39.065655   -645.50556    1185.1963    545.51762    9.6497038   0.18118172 
  490700   -677.34099    39.674119   -637.66687    1203.6562   -1862.7394    9.4968558   0.24919863 
  490800   -678.97816    42.539791   -636.43837    1290.5966    3354.5293     9.589657   0.22122339 
  490900   -678.93083     40.97651   -637.95432    1243.1689    8975.5335    9.6587291   0.20741494 
  491000   -683.69693    39.486831    -644.2101    1197.9742   -779.79652    9.6068573   0.20813963 
  491100   -678.97212    40.892771   -638.07935    1240.6284   -6100.9963    9.4900233   0.22301238 
  491200   -676.08921    40.389888   -635.69932    1225.3716   -1530.8676    9.4946073    0.2434152 
  491300   -677.55168    39.566248   -637.98543    1200.3836    367.07101    9.5230329   0.25362073 
  491400   -682.01982    39.012355   -643.00746    1183.5793   -6850.0839    9.5357731   0.22811871 
  491500    -678.0217    40.877612   -637.14409    1240.1685   -575.43742    9.5145705   0.25833856 
  491600   -676.88776    41.967125   -634.92063    1273.2228    864.76853     9.519872   0.29497012 
  491700   -674.71863    38.724978   -635.99365    1174.8607    39.464068    9.4815007   0.26850345 
  491800   -679.14291    35.188284   -643.95463    1067.5624   -3395.0264    9.5300141   0.23200362 
  491900   -676.65316    36.823881   -639.82928    1117.1841    5285.9423    9.5634147    0.2249605 
  492000    -680.4442    44.765583   -635.67861     1358.124   -1438.8046    9.5648542   0.23690128 
  492100   -675.54324      41.1039   -634.43934    1247.0338   -349.04683    9.4763512    0.2517413 
  492200   -680.66427    37.886523   -642.77774    1149.4231   -9946.3705    9.4855427   0.23006011 
  492300   -677.79317    39.267041   -638.52613    1191.3061     2405.416    9.5603287   0.25470495 
  492400   -676.62608    40.240423   -636.38565    1220.8371    7636.5064    9.5888336   0.23601376 
  492500   -677.83984    38.459421   -639.38042     1166.804   -826.09684    9.5268667   0.25249975 
  492600   -683.58914    36.474426   -647.11471    1106.5821   -6448.4213    9.5617738   0.23742834 
  492700   -677.12588    36.559642   -640.56624    1109.1674    110.65186    9.5267495   0.26606933 
  492800   -677.50192    40.505932   -636.99599    1228.8923    437.91323    9.5242152   0.26482502 
  492900   -679.46566    41.802956    -637.6627    1268.2421    1961.2333    9.5632794   0.23036792 
  493000   -683.23129    39.777689    -643.4536    1206.7984   -4865.0805     9.582437   0.22870822 
  493100   -674.90954    38.539662   -636.36988    1169.2384   -9767.9795    9.3707438   0.28781845 
  493200   -677.17709    40.929874   -636.24721     1241.754    -3746.441    9.4619108    0.2611139 
  493300   -681.05786    41.122263   -639.93559    1247.5909    5881.2451    9.6582268   0.20640599 
  493400   -679.33853    39.732183   -639.60635    1205.4178    9936.4847     9.673106   0.22103363 
  493500   -675.60107    41.547559   -634.05351    1260.4937   -2052.2243    9.4650454   0.27417895 
  493600   -677.93853    39.993031    -637.9455    1213.3316   -5848.4177    9.4775608   0.27215512 
  493700   -682.06734    40.549458   -641.51788    1230.2128    82.526449    9.6010795   0.22432151 
  493800   -680.75792    40.006471   -640.75145    1213.7393      7466.34    9.6682881   0.20373336 
  493900   -675.26323    40.717763   -634.54547    1235.3189    1120.2318    9.5010228   0.26794068 
  494000   -678.26943    39.696663   -638.57277    1204.3402    989.24021    9.5634206   0.23599706 
  494100   -682.50429    41.639358   -640.86494    1263.2788   -3601.9678    9.5723507   0.20323488 
  494200   -672.51277    39.420217   -633.09256    1195.9532    6836.4292    9.4961185    0.2513861 
  494300   -676.30777    40.912363   -635.39541    1241.2228   -3763.5497      9.46951   0.23502481 
  494400   -680.45947    39.993952   -640.46551    1213.3595    -4580.156    9.5253323   0.22585084 
  494500   -677.34792    40.769271   -636.57864    1236.8816    2849.3734    9.5451138    0.2486686 
  494600   -675.24773    41.612978   -633.63475    1262.4785   -229.23772    9.4855054   0.23501474 
  494700   -677.22342    36.958423     -640.265    1121.2659   -7264.4878    9.4515485   0.24669693 
  494800   -676.64671    36.939094   -639.70762    1120.6795   -9796.0834    9.3839172   0.31499782 
  494900   -674.68098    40.375241   -634.30573    1224.9273   -8101.4465    9.3812923   0.31783659 
  495000   -675.47842    38.941065   -636.53736    1181.4164    7231.5025    9.5764905   0.25598909 
  495100   -682.34272     40.62192    -641.7208    1232.4112    5572.9303    9.6673896   0.20266282 
  495200   -679.98328    40.684202   -639.29908    1234.3007    2006.4767    9.5787121   0.22236617 
  495300   -675.87643    40.525305   -635.35113      1229.48    2062.3037    9.5067899   0.25522264 
  495400   -678.32282    40.949513   -637.37331    1242.3499   -2864.8251    9.4921029   0.26310102 
  495500   -673.67592    42.303527   -631.37239    1283.4287    6162.4943    9.5324734   0.25096397 
  495600   -679.28039    42.574287    -636.7061    1291.6432    1233.9855    9.5786576     0.213514 
  495700   -677.74386    38.616622   -639.12724    1171.5733    2754.0934    9.5704231   0.22987699 
  495800   -677.95076    42.035827   -635.91494    1275.3071   -1241.2007    9.5273774   0.24340123 
  495900   -673.42626    40.639323   -632.78694    1232.9391   -328.30304     9.453173   0.27923388 
  496000   -671.09434    41.416814   -629.67753    1256.5271   -10678.946    9.2881294   0.31255954 
  496100   -678.82662    41.762505   -637.06411    1267.0149   -7663.2931    9.4494991   0.25193024 
  496200   -679.40891    41.687987   -637.72092    1264.7541     -2499.52    9.5159751   0.25380599 
  496300   -678.84874    42.641408   -636.20733    1293.6796    4393.9424    9.5955153   0.21612809 
  496400   -682.23075    39.610576   -642.62018    1201.7285   -4232.4631    9.5620003   0.20360656 
  496500   -678.38595    40.988455   -637.39749    1243.5313   -1816.8751    9.5270699    0.2009814 
  496600   -679.07425     44.05903   -635.01522    1336.6882    8605.8473    9.6362243   0.20222281 
  496700   -680.68656    38.594358   -642.09221    1170.8978    12614.323    9.7301177   0.19262135 
  496800   -680.30059    38.866457   -641.43413    1179.1529   -10509.043    9.4802464   0.21326244 
  496900   -674.07067    38.662307   -635.40837    1172.9593    3267.8352    9.4978771   0.26059671 
  497000   -677.07355    39.393095   -637.68045    1195.1304   -4021.7375    9.4762545   0.26680106 
  497100   -680.29192    40.561494   -639.73043    1230.5779    1253.6956    9.5816833    0.2302514 
  497200   -672.33745    40.539481   -631.79797    1229.9101   -6969.5119    9.3640867   0.31410598 
  497300   -673.04122    39.510639   -633.53058    1198.6965    -1990.027    9.4205678    0.2723116 
  497400   -677.88713    39.249719   -638.63741    1190.7806    547.23113    9.5412042   0.23123917 
  497500   -681.33915     41.34322   -639.99593    1254.2944    1455.0416    9.6032258   0.21462296 
  497600   -676.92692    43.083999   -633.84292    1307.1071    3032.9696    9.5374449   0.24451261 
  497700   -676.74323    43.770768   -632.97246    1327.9427   -7207.8009    9.4187092   0.24695525 
  497800   -680.67845    42.380352    -638.2981    1285.7595   -7146.3511    9.4959409   0.22083234 
  497900   -677.99495    40.657953   -637.33699    1233.5044    2088.2669    9.5551437   0.23044452 
  498000   -674.16617    43.226932   -630.93924    1311.4435   -983.29825    9.4503931    0.2458899 
  498100   -677.95707    43.638391   -634.31868    1323.9266     1234.003    9.5382777   0.27091168 
  498200   -679.52667    42.168172    -637.3585    1279.3223   -42.116198    9.5561795   0.23222839 
  498300   -677.52366    39.120342   -638.40332    1186.8554    2299.6031    9.5600182   0.23673402 
  498400   -677.27532    40.207341   -637.06798    1219.8334    7492.9069    9.5943654   0.23522939 
  498500   -675.05885    45.344908   -629.71394    1375.6999   -6703.6753    9.3726758   0.29705155 
  498600   -676.41925    40.326521   -636.09272    1223.4492   -17080.711    9.3170009   0.27581603 
  498700   -679.60016    40.931008   -638.66915    1241.7885   -3289.1994      9.51014   0.22915381 
  498800   -679.00248    41.232131   -637.77034    1250.9241     7477.591      9.63045   0.21589433 
  498900   -675.40136    45.911486   -629.48988    1392.8891   -867.53278    9.4640915     0.275919 
  499000   -674.18827    39.613061   -634.57521    1201.8038   -242.40838    9.4653064   0.27422414 
  499100   -677.92694    39.136573   -638.79037    1187.3479     2213.735    9.5729443   0.23419126 
  499200   -679.50887    41.934702   -637.57416    1272.2391    8770.4383    9.6594249   0.20035121 
  499300   -673.26421    42.608293   -630.65592    1292.6749    1687.2059    9.4552122   0.26482951 
  499400   -676.74821    40.846858   -635.90135    1239.2355   -9093.3247    9.4026752   0.26783173 
  499500   -681.94959    41.745031   -640.20456    1266.4848    2500.8784    9.6156228   0.24174547 
  499600   -676.76163      42.3522   -634.40943    1284.9054   -2517.3228    9.4764755   0.26389459 
  499700   -675.40312    40.973429   -634.42969    1243.0755   -3232.9526    9.4430176   0.24035218 
  499800   -681.12409    42.534859   -638.58923     1290.447    3638.8552    9.6359729   0.19415086 
  499900   -678.24654    40.596024   -637.65051    1231.6255    10783.764    9.6558094   0.21479173 
  500000   -671.22364    37.601139    -633.6225     1140.765   -1184.2007    9.4232906   0.31563093 
Loop time of 351.957 on 1 procs for 500000 steps with 256 atoms

Performance: 613.712 ns/day, 0.039 hours/ns, 1420.630 timesteps/s
100.0% CPU use with 1 MPI tasks x no OpenMP threads

MPI task timing breakdown:
Section |  min time  |  avg time  |  max time  |%varavg| %total
---------------------------------------------------------------
Pair    | 211.12     | 211.12     | 211.12     |   0.0 | 59.98
Neigh   | 13.791     | 13.791     | 13.791     |   0.0 |  3.92
Comm    | 3.9229     | 3.9229     | 3.9229     |   0.0 |  1.11
Output  | 0.15481    | 0.15481    | 0.15481    |   0.0 |  0.04
Modify  | 122.15     | 122.15     | 122.15     |   0.0 | 34.70
Other   |            | 0.8261     |            |       |  0.23

Nlocal:    256 ave 256 max 256 min
Histogram: 1 0 0 0 0 0 0 0 0 0
Nghost:    1431 ave 1431 max 1431 min
Histogram: 1 0 0 0 0 0 0 0 0 0
Neighs:    11591 ave 11591 max 11591 min
Histogram: 1 0 0 0 0 0 0 0 0 0

Total # of neighbors = 11591
Ave neighs/atom = 45.2773
Neighbor list builds = 25028
Dangerous builds = 0
    
Total wall time: 0:05:51
