LAMMPS (3 Mar 2020)
Reading data file ...
  orthogonal box = (0 0 0) to (17.469 17.469 17.469)
  1 by 1 by 1 MPI processor grid
  reading atoms ...
  217 atoms
  read_data CPU = 0.00101974 secs
Reading potential file library.meam with DATE: 2012-06-29
Reading potential file LiSi.meam with DATE: 2020-11-07
1 atoms in group Li
Neighbor list info ...
  update every 1 steps, delay 10 steps, check yes
  max neighbors/atom: 2000, page size: 100000
  master list distance cutoff = 6
  ghost atom cutoff = 6
  binsize = 3, bins = 6 6 6
  2 neighbor lists, perpetual/occasional/extra = 2 0 0
  (1) pair meam/c, perpetual
      attributes: full, newton on
      pair build: full/bin/atomonly
      stencil: full/bin/3d
      bin: standard
  (2) pair meam/c, perpetual, half/full from (1)
      attributes: half, newton on
      pair build: halffull/newton
      stencil: none
      bin: none
Setting up Verlet run ...
  Unit style    : metal
  Current step  : 0
  Time step     : 0.0039238
Per MPI rank memory allocation (min/avg/max) = 9.27 | 9.27 | 9.27 Mbytes
Step PotEng KinEng TotEng Temp Press Density c_msdli[4] 
       0   -951.04357    50.256344   -900.78722         1800   -114161.75    1.8918427            0 
     100   -950.91827    36.613326   -914.30495    1311.3566   -26601.878    2.1186075   0.15412759 
     200   -947.06622    37.699476   -909.36674    1350.2585   -9800.8773    2.1520273   0.14733248 
     300   -949.99756    45.304603   -904.69295    1622.6466    2909.6249    2.1863731   0.12301006 
     400   -946.56793    46.992908   -899.57502    1683.1155    15937.262    2.2115607    0.4675056 
     500   -943.37701    49.046862   -894.33014    1756.6807    19277.764    2.2145546   0.70854012 
     600   -937.16338    47.706084    -889.4573    1708.6589    22430.666    2.2049473   0.62915768 
     700   -934.62477    48.363565    -886.2612    1732.2075    11381.961    2.1794422   0.29797371 
     800   -937.30911    52.651304   -884.65781    1885.7788    2272.9096     2.151752     4.624135 
     900   -944.97232    50.595764   -894.37656    1812.1568   -9869.2653    2.1445839    11.597815 
    1000   -936.97502     47.79763   -889.17739    1711.9378   -14623.277    2.1147802    12.458255 
    1100    -932.8288    47.433556   -885.39525     1698.898   -9812.3826    2.1117009    11.010072 
    1200   -939.70833     50.88605   -888.82228    1822.5538   -11023.769    2.1314169    11.092465 
    1300   -941.59499    45.543369   -896.05162    1631.1983    148.36911    2.1610826    15.138019 
    1400   -937.13923    49.851631   -887.28759    1785.5046    5958.3734    2.1697215    14.984203 
    1500    -940.0865    52.331183   -887.75531    1874.3132    11053.164      2.18897    12.814514 
    1600   -943.74972    48.581959   -895.16776    1740.0296    16098.739    2.2063028    13.181331 
    1700   -941.14208    54.943173   -886.19891    1967.8652    8955.5236    2.1805669    11.998003 
    1800    -939.7286     52.94865   -886.77995    1896.4286    4577.1793     2.167503    16.250843 
    1900   -943.20188    50.372816   -892.82907    1804.1716   -1657.3088    2.1617506    12.756193 
    2000   -941.87431    53.136705   -888.73761    1903.1641   -8389.5562    2.1431009    13.385597 
    2100   -932.35362     48.36738   -883.98624    1732.3441   -6459.6959    2.1282891    13.063874 
    2200   -940.45714    49.152263   -891.30488    1760.4558   -10680.541    2.1382564    17.713696 
    2300   -934.82512     44.59179   -890.23333    1597.1162   -4266.8394    2.1436814    14.292496 
    2400   -934.22036    52.915508   -881.30485    1895.2416   -1604.9081    2.1397978    14.853235 
    2500    -938.4799    47.739602    -890.7403    1709.8594    5127.3047    2.1732806    13.105572 
    2600   -939.53862    49.284484   -890.25413    1765.1915    10324.208     2.184205    10.689343 
    2700   -937.50067    56.076804   -881.42387    2008.4678      8269.16    2.1742043    9.6390943 
    2800   -939.67015    49.562456   -890.10769    1775.1474     10350.29    2.1832426    13.119738 
    2900   -944.21412    52.780128     -891.434    1890.3928    180.27627    2.1643764     16.68154 
    3000   -934.80741    52.056034   -882.75137    1864.4584   -4025.0365    2.1417568    18.344925 
    3100   -934.51344    47.188462   -887.32498    1690.1196   -7878.9616    2.1279887    14.611413 
    3200   -941.98398    49.773828   -892.21015     1782.718    -14957.35    2.1266874    15.452811 
    3300   -936.73021    52.293455   -884.43676    1872.9619   -12443.937    2.1223712     16.80329 
    3400   -940.53593    51.160111   -889.37582    1832.3696    -4266.953    2.1495456    13.683548 
    3500   -942.44308    49.530363   -892.91272     1773.998    1851.3329    2.1717284    11.743686 
    3600   -936.39632    51.541212    -884.8551    1846.0193    9068.6885    2.1739172    14.409102 
    3700   -941.21748    51.948164   -889.26932    1860.5948    12828.346    2.1880361    13.981905 
    3800   -940.88396     47.49583   -893.38813    1701.1284    12600.394    2.1932697    11.042966 
    3823   -935.97854    43.830941    -892.1476    1569.8654    7188.7168    2.1740597    11.149967 
Loop time of 2.73343 on 1 procs for 3823 steps with 217 atoms

Performance: 474.152 ns/day, 0.051 hours/ns, 1398.611 timesteps/s
100.0% CPU use with 1 MPI tasks x no OpenMP threads

MPI task timing breakdown:
Section |  min time  |  avg time  |  max time  |%varavg| %total
---------------------------------------------------------------
Pair    | 2.5537     | 2.5537     | 2.5537     |   0.0 | 93.42
Neigh   | 0.11854    | 0.11854    | 0.11854    |   0.0 |  4.34
Comm    | 0.019323   | 0.019323   | 0.019323   |   0.0 |  0.71
Output  | 0.001158   | 0.001158   | 0.001158   |   0.0 |  0.04
Modify  | 0.034916   | 0.034916   | 0.034916   |   0.0 |  1.28
Other   |            | 0.005801   |            |       |  0.21

Nlocal:    217 ave 217 max 217 min
Histogram: 1 0 0 0 0 0 0 0 0 0
Nghost:    957 ave 957 max 957 min
Histogram: 1 0 0 0 0 0 0 0 0 0
Neighs:    4238 ave 4238 max 4238 min
Histogram: 1 0 0 0 0 0 0 0 0 0
FullNghs:  8476 ave 8476 max 8476 min
Histogram: 1 0 0 0 0 0 0 0 0 0

Total # of neighbors = 8476
Ave neighs/atom = 39.0599
Neighbor list builds = 201
Dangerous builds = 5
Total wall time: 0:00:02
