LAMMPS (3 Mar 2020)

    # ---------- Initialize simulation ---------------------
    units metal
    atom_style atomic
    dimension  3
    boundary   p p p
    read_data /home/modeler/RemLabs/Lab4/Problem2A_v1_size_4/temp_2300/lammps.data
  orthogonal box = (0 0 0) to (16.36 16.36 16.36)
  1 by 1 by 1 MPI processor grid
  reading atoms ...
  256 atoms
  read_data CPU = 0.000975629 secs

    pair_style eam
    pair_coeff * * /usr/share/lammps-stable/potentials/Ag_u3.eam
Reading potential file /usr/share/lammps-stable/potentials/Ag_u3.eam with DATE: 2007-06-11

    velocity  all create 2300 87287 dist gaussian

    # ---------- Describe computed properties------------------
    compute msdall all msd
    thermo_style custom step pe ke etotal temp press density c_msdall[4]
    thermo 100

    # ---------- Specify ensemble  ---------------------
    #fix  1 all nve
    fix  1 all nvt temp 2300 2300 0.25

    # --------- Compute RDF ---------------
    compute rdfall all rdf 100 1 1
    fix 2 all ave/time 1 125000 125000 c_rdfall[*] file /home/modeler/RemLabs/Lab4/Problem2A_v1_size_4/temp_2300/lammps.rdf mode vector

    # --------- Run -------------
    timestep 0.005
    run 500000
Neighbor list info ...
  update every 1 steps, delay 10 steps, check yes
  max neighbors/atom: 2000, page size: 100000
  master list distance cutoff = 7.55
  ghost atom cutoff = 7.55
  binsize = 3.775, bins = 5 5 5
  2 neighbor lists, perpetual/occasional/extra = 1 1 0
  (1) pair eam, perpetual
      attributes: half, newton on
      pair build: half/bin/atomonly/newton
      stencil: half/bin/3d/newton
      bin: standard
  (2) compute rdf, occasional, copy from (1)
      attributes: half, newton on
      pair build: copy
      stencil: none
      bin: none
Per MPI rank memory allocation (min/avg/max) = 3.744 | 3.744 | 3.744 Mbytes
Step PotEng KinEng TotEng Temp Press Density c_msdall[4] 
       0       -729.6    75.811075   -653.78893         2300    18492.707    10.472245            0 
     100   -679.32765    49.643099   -629.68455    1506.1009    83165.444    10.472245   0.11715632 
     200   -658.94278    66.829958   -592.11282    2027.5257    115963.36    10.472245   0.20992426 
     300   -650.50759    86.863713   -563.64387    2635.3213    131154.26    10.472245   0.25048784 
     400   -647.61618    73.221144   -574.39503    2221.4252    131388.66    10.472245   0.25623286 
     500   -660.25695    75.159358   -585.09759    2280.2278    116108.04    10.472245   0.21378088 
     600   -653.90979    81.852037   -572.05775    2483.2742    128723.38    10.472245   0.20102012 
     700   -653.12071    78.343388   -574.77732    2376.8268    125625.25    10.472245   0.22143608 
     800   -654.02928    72.531896   -581.49738    2200.5144    122864.24    10.472245   0.20564715 
     900   -649.00656    78.536722   -570.46984    2382.6922    131833.78    10.472245   0.27862261 
    1000    -647.6773    74.211851   -573.46545    2251.4818     131781.6    10.472245   0.24326993 
    1100    -653.4603    73.289588   -580.17071    2223.5017    124672.06    10.472245   0.20448902 
    1200   -648.26602    73.934287   -574.33174    2243.0609    131774.13    10.472245   0.25414618 
    1300   -645.62763    83.753063   -561.87457    2540.9486    135713.98    10.472245   0.26486295 
    1400   -650.06725    78.087995   -571.97926    2369.0785    128128.56    10.472245   0.25828524 
    1500   -647.17899    70.163522   -577.01546    2128.6613    130771.22    10.472245   0.22433576 
    1600   -660.14948    73.981972   -586.16751    2244.5076    115691.23    10.472245   0.18805236 
    1700   -648.83089     77.37149    -571.4594    2347.3408    131262.29    10.472245   0.23462392 
    1800   -653.36449    77.458921   -575.90557    2349.9933    125350.74    10.472245   0.24706912 
    1900   -658.80117    76.173229   -582.62794    2310.9872    117242.51    10.472245   0.19625818 
    2000   -649.11447    79.937475     -569.177    2425.1891    129490.05    10.472245   0.23739865 
    2100   -646.89055    72.663532   -574.22702     2204.508       131674    10.472245   0.27753682 
    2200   -659.60154    74.041965   -585.55958    2246.3277    116663.02    10.472245   0.23933846 
    2300   -647.85658    77.083342   -570.77324    2338.5988    131273.89    10.472245   0.23547956 
    2400   -656.88465    79.605125   -577.27953    2415.1061    121097.13    10.472245   0.18921441 
    2500   -657.74523    76.070066   -581.67517    2307.8574    119059.29    10.472245   0.16937297 
    2600   -641.80559    76.561756   -565.24383    2322.7746    140587.09    10.472245   0.24008601 
    2700   -654.29724    82.850465   -571.44678     2513.565    125295.63    10.472245   0.19928591 
    2800   -657.22135    77.992175   -579.22917    2366.1715    119998.48    10.472245   0.19764999 
    2900   -649.10124    79.348572   -569.75267    2407.3226    130679.85    10.472245   0.24826116 
    3000   -644.87775    74.203194   -570.67455    2251.2192    135937.75    10.472245   0.28051566 
    3100   -649.58755    73.621889   -575.96566    2233.5832    129147.14    10.472245   0.23638076 
    3200   -654.55732    79.580743   -574.97658    2414.3663    123069.12    10.472245   0.21778228 
    3300   -650.47471    72.991401   -577.48331    2214.4551    126386.47    10.472245   0.19560932 
    3400   -656.75536    71.979927   -584.77544    2183.7684    119543.46    10.472245   0.18730606 
    3500   -647.62135    76.858606   -570.76274    2331.7806     130079.7    10.472245   0.26682995 
    3600   -650.01608    77.466568   -572.54952    2350.2253    129327.17    10.472245   0.25983708 
    3700   -656.84273     71.13841   -585.70432     2158.238    119335.55    10.472245   0.20690335 
    3800    -658.3303    80.621899    -577.7084    2445.9536    119150.01    10.472245   0.18154682 
    3900   -654.45569    78.240029   -576.21566     2373.691    124166.48    10.472245     0.204439 
    4000   -656.34752    74.266544   -582.08098    2253.1411    121420.58    10.472245   0.20698998 
    4100   -653.61457    71.663372   -581.95119    2174.1646    123167.47    10.472245   0.21077829 
    4200   -649.62104    78.489941    -571.1311     2381.273    131122.87    10.472245   0.24629121 
    4300   -648.71765    68.512933   -580.20472    2078.5848    129997.54    10.472245   0.21647678 
    4400   -652.77114    67.786695   -584.98444    2056.5517    123912.68    10.472245   0.21288322 
    4500   -649.61477    74.619617   -574.99515    2263.8529    128182.56    10.472245   0.22980361 
    4600    -648.9705    74.960739   -574.00976     2274.202    131893.01    10.472245   0.27554388 
    4700   -655.58971    76.324719     -579.265    2315.5832    120567.71    10.472245     0.252748 
    4800    -649.4704    77.073381   -572.39702    2338.2966    129571.67    10.472245   0.19654135 
    4900   -656.15014    81.251905   -574.89824     2465.067     122535.9    10.472245     0.178373 
    5000   -652.94962    71.098609   -581.85101    2157.0305    124561.15    10.472245   0.20340246 
    5100   -647.47497    74.729396   -572.74558    2267.1834    134709.03    10.472245   0.22207959 
    5200   -651.76721    76.919582   -574.84763    2333.6305    127599.09    10.472245   0.23238762 
    5300   -654.60597    77.325773   -577.28019    2345.9538    124158.94    10.472245   0.19302956 
    5400   -653.10701    71.528473   -581.57854     2170.072    124797.89    10.472245   0.20586862 
    5500   -651.22276    72.329477   -578.89328    2194.3733     126723.4    10.472245   0.18932121 
    5600   -645.06425     75.30755    -569.7567    2284.7238    135152.68    10.472245   0.24765054 
    5700   -656.19294    73.206998   -582.98594     2220.996    120953.94    10.472245   0.21837105 
    5800   -655.49606    78.575838   -576.92022     2383.879    122263.45    10.472245   0.18036708 
    5900   -656.06637    83.447662   -572.61871    2531.6832    122231.68    10.472245    0.1937962 
    6000   -655.13826    76.593016   -578.54525     2323.723    122285.53    10.472245    0.1972479 
    6100   -653.48161    76.307867   -577.17374    2315.0719    123373.83    10.472245    0.2134242 
    6200   -644.19181    75.980902   -568.21091    2305.1523    134734.98    10.472245   0.31323783 
    6300   -644.49842    79.498748   -564.99967    2411.8788     137660.8    10.472245   0.24716343 
    6400   -652.98906    74.382381   -578.60668    2256.6555    124943.22    10.472245   0.17691529 
    6500   -654.00185    73.694777   -580.30707    2235.7945     124435.9    10.472245   0.21021499 
    6600   -648.61328    81.339128   -567.27416    2467.7133    131210.09    10.472245   0.23013665 
    6700   -656.67952     78.32407   -578.35545    2376.2407    121172.46    10.472245   0.21156041 
    6800   -655.49679    78.254077   -577.24271    2374.1172    123025.39    10.472245   0.19164801 
    6900    -650.5746    77.941585   -572.63302    2364.6366     128066.7    10.472245    0.2027506 
    7000   -649.07553    77.935693   -571.13984    2364.4579    130794.71    10.472245   0.23500324 
    7100   -650.40083    68.406358   -581.99447    2075.3514    129030.71    10.472245   0.22559052 
    7200   -650.68838    77.258097   -573.43028    2343.9006    128851.67    10.472245   0.20421194 
    7300   -644.07324    81.684669   -562.38857    2478.1965    138329.97    10.472245   0.29344954 
    7400   -648.44607    76.568099   -571.87797     2322.967    131307.78    10.472245   0.22912712 
    7500   -649.46372    69.755626   -579.70809    2116.2863    127434.93    10.472245   0.25180991 
    7600   -650.67586    84.420934   -566.25492    2561.2109    129978.81    10.472245   0.26387983 
    7700   -644.21967     77.34669   -566.87298    2346.5884     135385.5    10.472245   0.31156117 
    7800   -652.56651    77.212396   -575.35412    2342.5141    124540.68    10.472245   0.21880739 
    7900   -653.66795    72.965452   -580.70249    2213.6678    122470.74    10.472245   0.20218034 
    8000   -647.59605    81.685266   -565.91078    2478.2146    133529.32    10.472245     0.272926 
    8100   -653.23691    77.551437   -575.68547    2352.8001    124845.49    10.472245   0.22961252 
    8200   -654.17074    76.057425   -578.11332    2307.4739    123687.83    10.472245   0.21609761 
    8300   -642.58054    80.456587   -562.12395    2440.9382    139861.87    10.472245   0.26788812 
    8400   -645.98411    73.861501    -572.1226    2240.8527    133921.56    10.472245    0.3022452 
    8500   -650.21769    70.489261   -579.72843    2138.5437    126990.57    10.472245   0.22877923 
    8600   -653.15046    63.436888   -589.71358    1924.5848    122652.26    10.472245   0.21282297 
    8700   -658.52612    82.917202   -575.60892    2515.5898    120631.17    10.472245   0.18311086 
    8800   -648.45153    77.042218   -571.40931    2337.3511    133005.38    10.472245   0.26680568 
    8900   -654.27053    73.154678   -581.11585    2219.4087     122486.3    10.472245   0.21319293 
    9000    -651.3269    71.435665   -579.89124    2167.2563    126854.56    10.472245   0.22389392 
    9100   -651.78521     79.02624   -572.75897    2397.5435    127596.02    10.472245   0.23052301 
    9200   -651.36377    75.117432   -576.24634    2278.9558    126086.45    10.472245   0.24577097 
    9300   -651.03187     75.06098   -575.97089    2277.2432     127072.9    10.472245   0.23485146 
    9400   -650.17848    77.648811   -572.52967    2355.7543    129387.44    10.472245   0.24034572 
    9500   -655.95897    78.949168   -577.00981    2395.2053    121789.71    10.472245   0.22496507 
    9600   -657.41095     74.69139   -582.71956    2266.0303    120132.62    10.472245    0.1847663 
    9700   -644.85217     76.65006   -568.20211    2325.4536    135282.08    10.472245   0.22234421 
    9800     -657.729    82.009843   -575.71916    2488.0618    119858.33    10.472245   0.21108293 
    9900   -654.07303    75.722392   -578.35064    2297.3095    122167.55    10.472245   0.20800885 
   10000   -654.75452    80.951421    -573.8031    2455.9508    123195.59    10.472245   0.21994013 
   10100     -649.877    76.606264   -573.27074    2324.1249    130368.19    10.472245   0.22772028 
   10200   -655.36379    78.905557   -576.45823    2393.8822    122482.07    10.472245   0.22467496 
   10300   -645.58675    75.029792   -570.55696     2276.297     134769.8    10.472245   0.25327325 
   10400   -642.83267    74.037199   -568.79547    2246.1831    136624.14    10.472245   0.26450239 
   10500    -653.8196    70.650578   -583.16902    2143.4379    123035.28    10.472245   0.24398633 
   10600   -645.84278     71.91796   -573.92482    2181.8884    134408.42    10.472245   0.26066556 
   10700   -648.80306    74.108483   -574.69458    2248.3458    129818.38    10.472245   0.25666795 
   10800   -659.07363     71.43625   -587.63738    2167.2741    115209.58    10.472245   0.21908489 
   10900    -651.9224    72.214839   -579.70756    2190.8953    126675.87    10.472245   0.24325225 
   11000   -643.62786    69.770837   -573.85702    2116.7478    137963.41    10.472245   0.29085939 
   11100     -648.367       75.399     -572.968    2287.4982    130099.12    10.472245   0.26504604 
   11200   -652.25422    69.417805   -582.83641    2106.0373    124737.59    10.472245   0.20579547 
   11300   -651.68821    83.932142   -567.75607    2546.3816    128995.27    10.472245   0.21581749 
   11400   -652.61845    75.282492   -577.33595    2283.9635    125079.91    10.472245   0.21572416 
   11500   -655.11161    75.666829   -579.44478    2295.6238    122715.37    10.472245   0.20306842 
   11600    -647.1765    85.359281   -561.81722     2589.679    134168.63    10.472245   0.22942859 
   11700   -646.13479    75.370183   -570.76461     2286.624    132884.39    10.472245   0.28689081 
   11800   -655.98679    76.406615   -579.58018    2318.0678    121332.28    10.472245   0.21129616 
   11900   -649.90418    72.244394   -577.65979     2191.792    128479.35    10.472245   0.22049759 
   12000   -651.35252    75.145667   -576.20685    2279.8125     127544.4    10.472245   0.21704826 
   12100   -656.02612    75.759647   -580.26647    2298.4398    123037.19    10.472245   0.20189604 
   12200   -657.84553    75.482675   -582.36285    2290.0368       117293    10.472245   0.22513928 
   12300   -648.52509    78.952974   -569.57212    2395.3207    130909.36    10.472245   0.27319892 
   12400   -647.96327    72.878265     -575.085    2211.0227    130710.48    10.472245   0.26730004 
   12500   -655.67842    68.947694   -586.73073    2091.7748    120551.02    10.472245   0.21411436 
   12600   -651.05369    74.236794   -576.81689    2252.2386    128430.52    10.472245   0.21033001 
   12700   -650.95011    76.258241   -574.69187    2313.5664    127627.19    10.472245   0.23901695 
   12800   -653.90836    72.902946   -581.00542    2211.7715    123771.88    10.472245   0.21255924 
   12900   -659.87166     81.85497   -578.01669    2483.3632    117150.99    10.472245   0.18083261 
   13000   -643.12766    74.415746   -568.71192    2257.6677    137919.98    10.472245   0.25740805 
   13100   -651.13347    77.090523   -574.04295    2338.8166    127087.36    10.472245   0.26381944 
   13200   -649.31851    71.804539   -577.51397    2178.4474    129274.49    10.472245   0.21505779 
   13300   -663.61501    77.812801   -585.80221    2360.7295    111473.45    10.472245   0.19428401 
   13400   -652.14766    77.332356   -574.81531    2346.1535    127869.94    10.472245   0.20497683 
   13500   -649.37253    75.749855   -573.62267    2298.1427     128913.9    10.472245   0.27180672 
   13600    -658.9568    73.871993   -585.08481     2241.171     116636.5    10.472245   0.21313173 
   13700   -653.48313    76.556462   -576.92666     2322.614    124840.33    10.472245    0.2227642 
   13800   -650.67589    76.583474   -574.09242    2323.4335    128173.03    10.472245   0.23595916 
   13900   -655.05624    70.777391   -584.27885    2147.2852    122175.56    10.472245   0.22862957 
   14000   -655.45848    77.098679   -578.35981    2339.0641    122098.93    10.472245   0.21927946 
   14100   -649.87134    79.061949   -570.80939    2398.6269    130384.09    10.472245    0.2118483 
   14200   -655.77488    76.155335   -579.61954    2310.4443    122020.57    10.472245   0.18277947 
   14300   -653.50124    71.989276   -581.51196    2184.0521    122605.08    10.472245   0.22535422 
   14400   -648.78955    73.906232   -574.88332    2242.2098    129986.42    10.472245   0.23741779 
   14500   -649.33344    76.358996   -572.97444    2316.6231     130622.9    10.472245   0.22919903 
   14600   -653.71299     74.54939    -579.1636    2261.7223    122532.54    10.472245   0.19476412 
   14700   -656.69777    75.229204   -581.46857    2282.3469    119985.85    10.472245   0.21439389 
   14800   -646.45804    75.786616   -570.67143    2299.2579    133453.56    10.472245    0.2716652 
   14900   -651.05404    71.457862   -579.59618    2167.9297    126317.99    10.472245   0.23565762 
   15000   -650.13558    73.408484   -576.72709    2227.1088    128466.17    10.472245   0.22820685 
   15100   -648.01122    79.121832   -568.88939    2400.4437    132940.43    10.472245   0.27069006 
   15200   -655.97155    75.201038   -580.77051    2281.4923    121984.06    10.472245   0.21530893 
   15300   -650.72622    78.592825    -572.1334    2384.3943    128325.62    10.472245    0.2059562 
   15400   -649.43473    79.884683   -569.55005    2423.5875    132066.99    10.472245   0.25168035 
   15500   -656.04561     73.42361     -582.622    2227.5677    120495.37    10.472245   0.19908674 
   15600   -643.80495    71.704253    -572.1007    2175.4049    133314.82    10.472245   0.24364589 
   15700   -652.17174    75.606168   -576.56557    2293.7834    126144.14    10.472245   0.25329462 
   15800   -658.61911    77.441415   -581.17769    2349.4622    118601.24    10.472245   0.16764228 
   15900   -653.06713    75.012712   -578.05441    2275.7788    123676.79    10.472245   0.21706522 
   16000   -650.23546    75.932145   -574.30332    2303.6731     130090.2    10.472245   0.22823935 
   16100   -648.93048    70.553796   -578.37669    2140.5017    129896.89    10.472245   0.27917058 
   16200   -647.92697    75.646014   -572.28096    2294.9923    132502.43    10.472245   0.24153015 
   16300   -648.93201    77.618062   -571.31395    2354.8214    131522.53    10.472245   0.25336566 
   16400   -654.54283    75.208872   -579.33396      2281.73    124338.75    10.472245   0.24107282 
   16500    -653.8246    81.430362   -572.39424    2470.4812    125032.47    10.472245   0.21467464 
   16600   -648.48798    73.438079    -575.0499    2228.0067    129916.87    10.472245    0.2528259 
   16700   -654.51188     68.80592   -585.70596    2087.4736    121374.65    10.472245   0.23799355 
   16800   -646.65806    74.033584   -572.62447    2246.0735    132861.89    10.472245    0.2433994 
   16900   -648.31301    76.433756   -571.87926    2318.8913    130602.41    10.472245   0.25983937 
   17000   -654.37883    74.343286   -580.03554    2255.4694    121586.33    10.472245   0.21636024 
   17100   -657.09306     75.09479   -581.99827    2278.2689    119840.66    10.472245   0.22080125 
   17200   -649.92064      79.1607   -570.75993    2401.6229    130115.12    10.472245   0.25218526 
   17300    -651.8423    70.718241   -581.12406    2145.4907    127068.65    10.472245   0.21978164 
   17400   -655.55074    82.972853   -572.57789    2517.2781    122492.34    10.472245   0.19371142 
   17500   -647.32603    77.046102   -570.27993     2337.469    132601.81    10.472245   0.23987609 
   17600    -652.9557    73.477871   -579.47783    2229.2139    124916.38    10.472245   0.23015767 
   17700   -648.84058    74.857501   -573.98308    2271.0699    130473.18    10.472245   0.24035314 
   17800   -643.98582     73.62525   -570.36057    2233.6852    137036.55    10.472245   0.27855686 
   17900   -652.39644    70.885885   -581.51055    2150.5768    125055.19    10.472245   0.23330004 
   18000   -651.28215    72.655203   -578.62695    2204.2553    126864.61    10.472245   0.21235585 
   18100   -645.99646    69.832801   -576.16366    2118.6277    131990.04    10.472245   0.22503471 
   18200   -649.67197    83.975615   -565.69636    2547.7005    132728.24    10.472245   0.21693443 
   18300   -654.67464     77.17106   -577.50358      2341.26    121175.29    10.472245   0.21276668 
   18400   -660.23805    81.671296   -578.56676    2477.7908     117469.1    10.472245   0.22169811 
   18500   -646.00125    79.450673   -566.55057    2410.4202    134486.83    10.472245   0.23101508 
   18600   -654.28563    74.674094   -579.61154    2265.5056    123075.53    10.472245   0.19750057 
   18700   -654.83506    73.583887   -581.25118    2232.4303    123046.33    10.472245   0.17672294 
   18800   -646.81176     75.20038   -571.61138    2281.4724     134072.6    10.472245   0.22922908 
   18900   -656.82897    76.730661   -580.09831    2327.8989    119656.54    10.472245     0.196762 
   19000   -653.56489    73.787613   -579.77728     2238.611    122905.79    10.472245   0.21041103 
   19100   -651.07484    78.755226   -572.31961    2389.3214    128820.37    10.472245     0.211932 
   19200   -653.09487    74.628244   -578.46663    2264.1146    123095.26    10.472245   0.23749926 
   19300    -655.8212    69.898151   -585.92305    2120.6103    119333.66    10.472245   0.24415147 
   19400   -655.81452    83.475378   -572.33915     2532.524    123300.51    10.472245   0.20175571 
   19500   -655.64204    76.329493   -579.31255    2315.7281    122743.18    10.472245   0.20386004 
   19600    -652.5902    71.902873   -580.68732    2181.4307    124411.63    10.472245   0.20166762 
   19700   -651.62884    77.106852   -574.52199     2339.312    126673.99    10.472245    0.1923722 
   19800   -649.31314    68.649653   -580.66348    2082.7326    127850.09    10.472245   0.27277173 
   19900   -651.37117    81.104015   -570.26716    2460.5803    127780.75    10.472245   0.23953491 
   20000   -654.89182    74.686294   -580.20553    2265.8757    121909.71    10.472245   0.25618419 
   20100   -657.97379     76.10629    -581.8675    2308.9564    118069.82    10.472245   0.21624603 
   20200   -647.40805    74.195491   -573.21256    2250.9855    133804.15    10.472245   0.23720803 
   20300   -658.94567     81.52786   -577.41781    2473.4391    118765.35    10.472245   0.19669417 
   20400   -653.70616    64.348091   -589.35807    1952.2294    123047.91    10.472245   0.18280992 
   20500   -651.79034    76.284879   -575.50546    2314.3745    126303.87    10.472245   0.25029548 
   20600   -652.06149    78.553425   -573.50806     2383.199    125681.85    10.472245   0.23195087 
   20700   -652.87484    71.202843   -581.67199    2160.1928    122623.15    10.472245   0.20758306 
   20800   -654.90813    78.131189   -576.77694    2370.3889    121528.74    10.472245   0.21667891 
   20900   -649.96345    81.340412   -568.62304    2467.7522    130755.94    10.472245   0.23346641 
   21000   -659.17677    77.143155   -582.03362    2340.4134    117398.43    10.472245   0.20679604 
   21100   -656.28958     77.95179   -578.33779    2364.9462    120714.23    10.472245   0.20608724 
   21200   -647.00759    75.192793    -571.8148    2281.2422    133668.11    10.472245   0.23818464 
   21300   -651.83465    79.013666   -572.82099    2397.1621    125260.13    10.472245   0.23859438 
   21400    -655.8012    72.059126   -583.74208    2186.1712    120821.75    10.472245   0.18444974 
   21500   -649.21807     76.43499   -572.78308    2318.9287    131191.75    10.472245   0.26446325 
   21600   -650.51956    78.936316   -571.58324    2394.8153    129569.71    10.472245   0.20971186 
   21700   -661.41587    79.745856   -581.67001    2419.3756    114455.72    10.472245   0.18541163 
   21800   -648.16512    73.973806   -574.19131    2244.2599    131171.42    10.472245   0.23641643 
   21900   -643.23777    69.497648   -573.74012    2108.4596    135976.81    10.472245   0.30770962 
   22000   -644.50073    73.431445   -571.06929    2227.8054     135334.9    10.472245   0.27979087 
   22100   -653.77024    71.164029   -582.60621    2159.0152    121601.68    10.472245   0.22306274 
   22200   -650.96617    76.419533   -574.54664    2318.4597    128132.12    10.472245   0.22633594 
   22300   -649.99845    76.786642   -573.21181    2329.5973    129251.72    10.472245   0.23725778 
   22400   -658.87774    76.184786   -582.69295    2311.3379    117045.89    10.472245   0.17907945 
   22500   -656.87278    66.306168   -590.56661    2011.6347    118341.58    10.472245   0.17905805 
   22600   -647.99008    73.025083     -574.965     2215.477    130669.06    10.472245    0.2863171 
   22700   -646.10299    77.130086   -568.97291    2340.0169    134555.88    10.472245   0.25874569 
   22800   -657.99322    75.898289   -582.09493    2302.6459    117603.27    10.472245   0.19222943 
   22900   -653.78906    76.783563   -577.00549    2329.5039    123934.56    10.472245   0.19291593 
   23000   -649.50856    79.889121   -569.61944    2423.7221    130181.22    10.472245   0.22197552 
   23100   -640.31706    73.497782   -566.81928     2229.818    141949.07    10.472245   0.29856729 
   23200   -654.27801    79.430043   -574.84797    2409.7943    124828.43    10.472245   0.19062692 
   23300   -656.01496    75.196326   -580.81863    2281.3494    121280.43    10.472245   0.21821878 
   23400   -650.85932    85.621766   -565.23756    2597.6424    130496.54    10.472245   0.22197617 
   23500   -656.71273    78.524269   -578.18846    2382.3144     120880.6    10.472245    0.2093468 
   23600   -654.66652    80.629187   -574.03734    2446.1746    122726.27    10.472245   0.24327896 
   23700   -637.61185    77.458975   -560.15287     2349.995    145469.85    10.472245   0.35243345 
   23800   -645.70472    81.554273   -564.15045    2474.2404    133603.05    10.472245      0.24849 
   23900   -653.83338    77.701409   -576.13197      2357.35    124307.17    10.472245   0.20910036 
   24000   -650.75787    70.122224   -580.63565    2127.4084    126983.51    10.472245   0.22275164 
   24100   -652.47243    84.918505   -567.55392    2576.3064    128717.62    10.472245   0.21648153 
   24200   -649.10392    69.733897   -579.37002    2115.6271    129028.03    10.472245   0.27173425 
   24300   -659.13671    71.552471   -587.58424       2170.8    116246.11    10.472245   0.18122762 
   24400   -647.42536    72.702707   -574.72265    2205.6965    130772.79    10.472245   0.25306873 
   24500   -650.91146    75.832428   -575.07904    2300.6478    128271.46    10.472245   0.21104923 
   24600   -655.04472    73.064602   -581.98012    2216.6759    122470.89    10.472245   0.19477214 
   24700   -648.81546    72.330415   -576.48505    2194.4017    129589.32    10.472245   0.24583866 
   24800   -645.11629    74.250407   -570.86588    2252.6516    136173.37    10.472245    0.2245709 
   24900   -657.90631    72.746294   -585.16001    2207.0189    119349.96    10.472245   0.19955132 
   25000   -653.58027    80.892311   -572.68796    2454.1575    125253.93    10.472245   0.23371501 
   25100   -652.53803    79.016658   -573.52137    2397.2528    127175.49    10.472245   0.21413919 
   25200   -655.42316    69.633898   -585.78927    2112.5933    119952.09    10.472245    0.2125857 
   25300   -651.13169    74.357963   -576.77372    2255.9147    126690.66    10.472245   0.20602501 
   25400   -651.97092     81.53017   -570.44075    2473.5092    126950.56    10.472245   0.24220015 
   25500   -651.87812      75.2594   -576.61872     2283.263    126140.49    10.472245   0.24722632 
   25600   -658.23785    76.755992   -581.48186    2328.6674    117834.85    10.472245   0.23479004 
   25700   -649.21911    78.751609    -570.4675    2389.2116    130621.03    10.472245   0.21639672 
   25800   -650.52634    71.913158   -578.61318    2181.7427    126820.04    10.472245   0.19855316 
   25900   -652.34442    66.290141   -586.05428    2011.1484    124428.55    10.472245   0.20884836 
   26000    -655.4998    82.017695   -573.48211       2488.3    123407.56    10.472245    0.1939052 
   26100   -647.86089    71.159372   -576.70152     2158.874    131069.94    10.472245   0.24402113 
   26200   -660.15975     75.19125    -584.9685    2281.1954    116150.62    10.472245   0.18838466 
   26300   -647.88413    75.969294   -571.91484    2304.8001     132148.1    10.472245   0.25205716 
   26400   -646.29306     71.86844   -574.42462    2180.3861    134287.87    10.472245    0.2346852 
   26500   -655.82656    72.476273   -583.35029    2198.8269    119469.25    10.472245   0.25151064 
   26600   -645.50673    76.630522    -568.8762    2324.8609    134543.46    10.472245   0.26094935 
   26700   -649.25415    73.226501   -576.02765    2221.5877     130739.2    10.472245   0.22339994 
   26800   -652.03651    73.067469   -578.96904    2216.7629    124429.36    10.472245   0.19752493 
   26900   -641.24379    78.422048   -562.82174    2379.2132    139439.57    10.472245   0.22776099 
   27000   -646.15584    77.509897   -568.64594    2351.5399    134201.39    10.472245   0.28386261 
   27100   -650.31749    73.723921   -576.59357    2236.6787    126415.78    10.472245   0.26042186 
   27200   -652.20981    76.643056   -575.56676    2325.2411    125567.32    10.472245   0.21815007 
   27300   -649.26523    82.964931    -566.3003    2517.0378    131021.52    10.472245   0.27075173 
   27400   -651.03507    75.726433   -575.30864    2297.4321    127402.65    10.472245   0.23347871 
   27500   -649.42243    72.149244   -577.27318    2188.9053    127776.42    10.472245   0.27536731 
   27600   -647.35067    74.451234   -572.89944    2258.7444    131752.66    10.472245   0.27573597 
   27700   -652.68883    79.927673   -572.76116    2424.8917    127843.92    10.472245   0.24158945 
   27800   -649.65056    76.960937   -572.68962    2334.8852    129017.14    10.472245   0.23293217 
   27900   -650.60976    75.325756     -575.284    2285.2761    129109.79    10.472245    0.2487324 
   28000    -650.8251    68.048935   -582.77617    2064.5077    125330.11    10.472245   0.23275711 
   28100   -644.34529    74.323515   -570.02178    2254.8696    136384.44    10.472245   0.24231724 
   28200   -656.18768    82.222177    -573.9655    2494.5037    123379.54    10.472245   0.18361675 
   28300   -649.06261    72.196391   -576.86622    2190.3356    130490.41    10.472245   0.24547533 
   28400   -652.07508    75.624908   -576.45018     2294.352    127212.21    10.472245    0.2275521 
   28500   -652.26464    69.748347   -582.51629    2116.0655    125536.15    10.472245   0.26952188 
   28600   -642.39314    71.767847   -570.62529    2177.3342    136314.68    10.472245    0.2809134 
   28700   -644.71109    75.598806   -569.11229    2293.5601    136182.37    10.472245   0.26330612 
   28800   -651.65541    72.919988   -578.73542    2212.2885    124249.37    10.472245   0.24456938 
   28900   -651.70376    72.686642   -579.01712    2205.2092    126640.23    10.472245   0.22577754 
   29000   -646.44315    76.687908   -569.75524    2326.6019    133949.45    10.472245   0.23058256 
   29100   -648.50739     72.51575   -575.99164    2200.0245     129610.3    10.472245   0.18718991 
   29200    -649.4385    73.309032   -576.12947    2224.0916     127862.5    10.472245   0.23467909 
   29300   -650.15524    73.569978   -576.58526    2232.0083    128103.04    10.472245   0.24406857 
   29400   -654.01834    78.001638    -576.0167    2366.4586    124472.97    10.472245   0.20991548 
   29500   -650.16159    73.458616   -576.70298    2228.6297    127906.58    10.472245    0.2722233 
   29600   -646.61895     82.02717   -564.59178    2488.5875    134733.54    10.472245   0.25671888 
   29700   -656.21623    77.301108   -578.91513    2345.2055    120592.27    10.472245   0.23294417 
   29800   -650.74775    71.582313   -579.16544    2171.7054    127243.64    10.472245   0.20566052 
   29900   -649.69255    76.503089   -573.18946    2320.9947    130741.96    10.472245   0.26609353 
   30000   -649.81371    83.976104    -565.8376    2547.7153    130744.28    10.472245   0.25594784 
   30100   -652.69326    73.192121   -579.50114    2220.5447    124815.86    10.472245   0.24118896 
   30200   -649.17729    75.208443   -573.96885     2281.717    129011.97    10.472245   0.25079006 
   30300   -647.82386     87.16029   -560.66357     2644.319    135139.95    10.472245   0.22161485 
   30400   -654.17122    78.125483   -576.04574    2370.2158    124512.28    10.472245   0.20478142 
   30500   -653.56251    72.331122   -581.23139    2194.4232     123410.6    10.472245   0.22976248 
   30600   -648.18749     78.16129    -570.0262    2371.3022    131091.38    10.472245   0.26177864 
   30700   -646.16415    73.891944   -572.27221    2241.7763       131637    10.472245   0.30207434 
   30800   -651.95435    69.299403   -582.65495    2102.4452    123587.52    10.472245   0.21585266 
   30900   -646.79004    74.968292   -571.82175    2274.4312    131723.62    10.472245   0.25948486 
   31000   -652.41303    79.807206   -572.60582    2421.2369    127066.33    10.472245   0.22834673 
   31100   -654.64172    72.040837   -582.60089    2185.6163    123255.54    10.472245   0.20904971 
   31200   -653.15304    74.298813   -578.85422    2254.1201    126117.79    10.472245   0.22835487 
   31300      -655.52    84.189597    -571.3304    2554.1924    121746.76    10.472245    0.2025388 
   31400   -653.35049    66.998144   -586.35235    2032.6282    122828.62    10.472245   0.23713229 
   31500   -652.80357    76.382804   -576.42077    2317.3455     126378.2    10.472245   0.23701821 
   31600    -649.5904    75.381528   -574.20888    2286.9682    129201.45    10.472245   0.21842383 
   31700   -658.15761    70.029113    -588.1285    2124.5835    117024.12    10.472245   0.19407706 
   31800   -653.43996    74.198046   -579.24191     2251.063    123121.21    10.472245   0.21647696 
   31900   -655.44019    80.444249   -574.99594    2440.5639     123057.7    10.472245   0.20105528 
   32000   -658.91065    75.255399   -583.65525    2283.1416    117070.13    10.472245   0.22625545 
   32100    -653.5915    78.125921   -575.46558    2370.2291     125224.4    10.472245   0.20188265 
   32200   -651.72134    79.826206   -571.89514    2421.8133    128194.35    10.472245   0.21911107 
   32300   -652.13437    70.193036   -581.94133    2129.5567    125586.96    10.472245   0.25239234 
   32400   -647.20963     80.42217   -566.78746     2439.894    135572.73    10.472245    0.2241748 
   32500   -656.99097    80.427792   -576.56318    2440.0646    122130.77    10.472245   0.19868959 
   32600   -652.88777    72.012964    -580.8748    2184.7707     124814.3    10.472245   0.22427832 
   32700   -652.96257    80.119147   -572.84343    2430.7008    126306.29    10.472245   0.23894449 
   32800   -652.99327    79.085051   -573.90822    2399.3278    124859.29    10.472245   0.21330067 
   32900   -660.93023    75.207854   -585.72238    2281.6991    115563.21    10.472245   0.22153638 
   33000   -650.97651    77.613565   -573.36295     2354.685    127109.34    10.472245   0.21621315 
   33100   -650.15905    73.959062   -576.19999    2243.8126    130485.42    10.472245   0.23441337 
   33200   -652.98233    68.638955   -584.34337    2082.4081    123949.73    10.472245   0.23534511 
   33300    -647.5539    77.596595    -569.9573    2354.1701    132890.05    10.472245   0.25591245 
   33400   -646.72293    74.681096   -572.04183     2265.718    131623.28    10.472245   0.30650217 
   33500   -655.04872    71.726878   -583.32184    2176.0913    120511.56    10.472245    0.2494773 
   33600   -651.64269    81.014931   -570.62776    2457.8776    126792.56    10.472245   0.20694761 
   33700   -647.97882     71.39844   -576.58038    2166.1269    129667.41    10.472245   0.25247108 
   33800   -652.09682    74.085898   -578.01092    2247.6606    126879.58    10.472245   0.24486446 
   33900    -649.0146    80.218929   -568.79567     2433.728    130697.84    10.472245   0.24945931 
   34000    -653.7555    74.694164   -579.06133    2266.1145    124172.46    10.472245   0.22885801 
   34100   -649.37031    77.995491   -571.37482    2366.2721    130484.43    10.472245   0.21961606 
   34200   -645.34603    77.013758   -568.33227    2336.4877    133856.92    10.472245   0.28876214 
   34300   -651.52475    72.626734   -578.89802    2203.3916    126223.41    10.472245   0.23411655 
   34400   -651.36488    77.783406   -573.58147    2359.8377    128085.13    10.472245   0.23672409 
   34500   -642.22784    76.740936    -565.4869    2328.2107    139664.04    10.472245   0.27041498 
   34600   -650.02446    73.085504   -576.93896    2217.3101    129350.95    10.472245   0.22472776 
   34700   -654.07587    78.110744   -575.96513    2369.7687    122871.37    10.472245   0.21789037 
   34800   -644.60143    82.116243   -562.48519    2491.2898    136509.57    10.472245    0.2893844 
   34900   -651.31306    75.809601   -575.50346    2299.9553    126219.86    10.472245   0.21905455 
   35000   -653.97682    77.173307   -576.80351    2341.3282    121553.73    10.472245   0.25583237 
   35100   -649.15897    81.553136   -567.60583    2474.2059    131411.59    10.472245   0.23999785 
   35200   -651.87369    73.155747   -578.71794    2219.4411    126444.86    10.472245   0.25181587 
   35300   -657.27398    78.734844   -578.53914     2388.703    118172.61    10.472245   0.19017443 
   35400   -650.58219     84.74153   -565.84066    2570.9373    132025.61    10.472245   0.24829133 
   35500   -646.98383     73.25662   -573.72721    2222.5015    131299.04    10.472245    0.2587256 
   35600   -652.40207    72.707986   -579.69408    2205.8567    126019.45    10.472245   0.22752295 
   35700   -648.81388    80.429506   -568.38437    2440.1166    132116.03    10.472245   0.23157293 
   35800   -650.94633    76.838127    -574.1082    2331.1593    128979.16    10.472245   0.25038957 
   35900   -653.20409    73.459877   -579.74422     2228.668    124552.51    10.472245   0.25733916 
   36000   -651.61191      76.7248   -574.88711    2327.7211    126280.42    10.472245   0.24479758 
   36100   -651.51973    82.354275   -569.16545    2498.5114    127828.64    10.472245   0.23068211 
   36200   -651.67487    71.976521   -579.69835    2183.6651    126873.38    10.472245   0.24758241 
   36300   -645.53974    79.249285   -566.29046    2404.3104    135232.28    10.472245   0.23292549 
   36400   -653.72426    78.868836   -574.85542    2392.7681    124148.99    10.472245   0.23762236 
   36500   -648.16975    70.869154   -577.30059    2150.0691     132798.7    10.472245   0.25974695 
   36600    -649.6817    74.502282   -575.17942    2260.2931    129431.56    10.472245   0.21840626 
   36700   -653.90522     75.28873   -578.61649    2284.1528    123764.56    10.472245   0.21760074 
   36800   -658.53999    79.253259   -579.28673    2404.4309     119064.6    10.472245   0.20238411 
   36900   -646.57689    75.711602   -570.86528    2296.9821    133964.81    10.472245   0.23376651 
   37000   -650.06665      75.6381   -574.42855    2294.7522    127846.41    10.472245    0.2144434 
   37100   -654.55938    72.597045   -581.96234    2202.4909    122363.87    10.472245    0.2031701 
   37200   -645.35895    74.012503   -571.34645    2245.4339    136247.92    10.472245   0.23172652 
   37300   -661.75082    79.031831   -582.71899    2397.7132    114421.38    10.472245   0.18849905 
   37400   -651.14447    72.722049   -578.42242    2206.2833     126648.2    10.472245   0.18404395 
   37500   -653.21246    81.672943   -571.53952    2477.8407    125688.73    10.472245   0.21941707 
   37600   -653.68002    68.394094   -585.28593    2074.9793    122715.55    10.472245   0.22211571 
   37700   -653.29635    77.440015   -575.85634    2349.4197    123882.97    10.472245   0.18555178 
   37800   -651.63784    77.859205   -573.77864    2362.1374    126698.94    10.472245   0.22632045 
   37900   -653.08398    74.655343   -578.42864    2264.9368    123850.62    10.472245   0.23640306 
   38000   -655.36139    74.406508   -580.95488    2257.3874    121342.83    10.472245   0.20701931 
   38100   -647.65796    76.789632   -570.86833     2329.688    131375.79    10.472245    0.2142238 
   38200   -652.79569    68.421264   -584.37442    2075.8037    124037.09    10.472245   0.22831873 
   38300    -653.0125    74.798904    -578.2136    2269.2922    123870.04    10.472245   0.26146975 
   38400   -646.90572    75.585045   -571.32068    2293.1426    130145.93    10.472245   0.25587319 
   38500    -644.7904    77.058221   -567.73217    2337.8366    135477.55    10.472245   0.30584896 
   38600   -651.17232    73.977462   -577.19485    2244.3708    127047.39    10.472245   0.23702168 
   38700   -656.62497    75.821165    -580.8038    2300.3061    119434.48    10.472245   0.18965997 
   38800   -642.30984    75.815063   -566.49477     2300.121    138922.21    10.472245   0.28187081 
   38900   -647.41376    76.937417   -570.47634    2334.1716     132998.2    10.472245   0.27234121 
   39000   -651.82089    72.602992    -579.2179    2202.6713    124554.75    10.472245   0.22563811 
   39100   -651.14183    74.824802   -576.31703    2270.0779    130005.03    10.472245   0.25915104 
   39200   -648.20286    76.800873   -571.40199    2330.0291    132565.19    10.472245   0.21844281 
   39300   -659.64587    76.108893   -583.53697    2309.0354    116357.83    10.472245   0.19705407 
   39400   -646.99528    72.363622   -574.63165    2195.4092    130751.49    10.472245   0.28446046 
   39500   -651.86118    80.665578    -571.1956    2447.2787    127755.64    10.472245   0.27043115 
   39600   -651.64555    73.785711   -577.85984    2238.5533    125835.63    10.472245   0.26349303 
   39700   -653.87749    66.912496   -586.96499    2030.0298    121135.75    10.472245   0.24014509 
   39800   -658.25693    82.897022    -575.3599    2514.9775    120098.83    10.472245   0.17928223 
   39900   -646.50842    76.973277   -569.53514    2335.2596    135131.73    10.472245   0.27377951 
   40000   -648.77863    75.026746   -573.75188    2276.2046    129693.64    10.472245   0.24828938 
   40100   -658.46191    75.991954   -582.46996    2305.4876    118303.01    10.472245    0.2023715 
   40200   -648.45227    77.945277   -570.50699    2364.7486    132232.02    10.472245   0.23292246 
   40300   -653.70054    80.998627   -572.70191    2457.3829    125857.44    10.472245   0.22586558 
   40400    -659.2227    79.532067   -579.69063    2412.8896     117047.6    10.472245   0.19183024 
   40500   -657.00757    66.148636   -590.85893    2006.8554    119362.91    10.472245   0.21766776 
   40600   -653.99791    74.540951   -579.45696    2261.4662    122782.19    10.472245   0.21549329 
   40700   -646.86423    74.467738   -572.39649    2259.2451    133277.47    10.472245   0.26435057 
   40800   -648.58332     77.81867   -570.76465    2360.9076    130487.92    10.472245   0.22724094 
   40900   -660.16391    77.798592   -582.36532    2360.2984       115893    10.472245   0.18179497 
   41000   -651.79396    75.799294   -575.99467    2299.6426    127375.81    10.472245   0.19439803 
   41100   -652.38081    82.851244   -569.52957    2513.5887     127715.1    10.472245   0.20744947 
   41200   -657.32777    76.053025   -581.27475    2307.3404    116865.26    10.472245   0.18394448 
   41300   -649.49505    71.517636   -577.97742    2169.7432    128284.57    10.472245   0.22100878 
   41400    -648.3493    83.873929   -564.47537    2544.6155    133379.91    10.472245   0.25222023 
   41500   -650.09653    85.430692   -564.66584    2591.8455    133928.06    10.472245   0.23847221 
   41600   -650.42498    73.946556   -576.47842    2243.4332    127900.89    10.472245   0.22323871 
   41700   -657.10825    74.619932   -582.48832    2263.8624    119243.13    10.472245   0.18865236 
   41800   -649.39472    77.151457   -572.24326    2340.6653    131643.44    10.472245   0.24003904 
   41900   -646.86663    77.004986   -569.86164    2336.2216    133988.65    10.472245   0.26817275 
   42000   -651.66044    70.641587   -581.01885    2143.1651    125573.85    10.472245   0.23538445 
   42100   -654.64736    80.322478   -574.32488    2436.8695    125243.89    10.472245   0.21473988 
   42200   -653.53649    76.488002   -577.04849     2320.537    124936.11    10.472245   0.22641166 
   42300   -657.75322    74.365506   -583.38772    2256.1435    116126.39    10.472245   0.23342933 
   42400   -646.91374    74.762165   -572.15157    2268.1776    132708.52    10.472245   0.24094259 
   42500   -653.65705    75.488827   -578.16823    2290.2235     123835.9    10.472245   0.23664594 
   42600   -658.80733    67.656669   -591.15066    2052.6069    114356.03    10.472245   0.20000425 
   42700   -654.06414    73.518479   -580.54566    2230.4459    124845.57    10.472245   0.20832218 
   42800   -649.27171    78.868099   -570.40361    2392.7457    130804.47    10.472245   0.27479195 
   42900   -647.65532    79.162333   -568.49299    2401.6724    131519.31    10.472245   0.23612233 
   43000   -652.40487    72.906122   -579.49875    2211.8679    123331.33    10.472245   0.26365794 
   43100   -652.25357    82.543276   -569.71029    2504.2454    129175.31    10.472245   0.21990666 
   43200   -661.19555    78.174448   -583.02111    2371.7014    114999.67    10.472245   0.21507828 
   43300   -647.83018    71.645218   -576.18496    2173.6138    128168.08    10.472245   0.25085107 
   43400   -654.16626    80.045638   -574.12062    2428.4706     123860.5    10.472245   0.21095622 
   43500   -653.26367    75.424036   -577.83964    2288.2578    123887.41    10.472245   0.24581554 
   43600   -649.27576    82.673387   -566.60237    2508.1928    130594.54    10.472245    0.2528925 
   43700   -652.08495    74.379574   -577.70538    2256.5703    125473.01    10.472245   0.23825701 
   43800   -648.53651    71.013529   -577.52298    2154.4493     129950.5    10.472245   0.21761713 
   43900   -648.67962    84.622235   -564.05739     2567.318    133487.53    10.472245   0.24341493 
   44000   -647.50016    78.748902   -568.75126    2389.1295    133468.95    10.472245   0.26520807 
   44100   -650.89921    73.872022   -577.02719    2241.1719    129899.82    10.472245    0.2279451 
   44200   -647.40338    66.774158   -580.62923    2025.8328     129170.6    10.472245   0.22704294 
   44300   -652.40514     79.28256   -573.12258    2405.3199    125735.59    10.472245   0.19987932 
   44400    -658.0636    84.496171   -573.56743    2563.4934    121585.37    10.472245   0.20181573 
   44500   -655.47377    71.467175    -584.0066    2168.2123    120796.71    10.472245   0.22569163 
   44600   -646.52818    71.974925   -574.55326    2183.6167    134079.16    10.472245   0.25405896 
   44700   -650.40423    74.022811   -576.38142    2245.7466    127004.33    10.472245   0.22752668 
   44800   -656.08516    64.552203   -591.53296    1958.4219    117967.81    10.472245   0.21971366 
   44900   -655.22429    74.385502   -580.83879    2256.7501     123149.8    10.472245   0.20628941 
   45000   -645.54719    72.462419   -573.08477    2198.4065    132951.75    10.472245   0.23530828 
   45100   -647.79917    72.039005   -575.76017    2185.5608    132310.15    10.472245    0.2177851 
   45200   -659.87254    75.904836   -583.96771    2302.8446    116082.87    10.472245   0.19495915 
   45300   -648.90589    71.868185    -577.0377    2180.3783    131686.69    10.472245    0.2501019 
   45400   -644.78329    71.172592    -573.6107     2159.275    134546.07    10.472245   0.25179197 
   45500   -653.39359    75.606162   -577.78743    2293.7832    123838.07    10.472245   0.24038816 
   45600    -658.1946    75.299367   -582.89523    2284.4755    117673.91    10.472245   0.20212138 
   45700   -648.86657     77.84967    -571.0169    2361.8481    131224.55    10.472245   0.24113585 
   45800   -652.01994    76.321424   -575.69851    2315.4833    126951.75    10.472245   0.19160453 
   45900   -659.66504    67.393108   -592.27193    2044.6109    114453.84    10.472245   0.16894792 
   46000   -657.27113    74.735567   -582.53556    2267.3706     119917.3    10.472245   0.18957328 
   46100    -650.7062    78.749371   -571.95683    2389.1437    130051.49    10.472245   0.19005788 
   46200   -652.97774     70.70159   -582.27615    2144.9855    122979.66    10.472245   0.23097407 
   46300   -654.86832     74.34542    -580.5229    2255.5341     122034.7    10.472245   0.23189594 
   46400     -654.509    80.214492   -574.29451    2433.5934    124406.83    10.472245   0.23744612 
   46500   -651.95408    75.600985    -576.3531    2293.6262    127776.91    10.472245   0.22138353 
   46600    -654.6236    70.362983   -584.26061    2134.7126    122141.99    10.472245   0.22899193 
   46700   -656.62294    82.880074   -573.74287    2514.4634    121938.87    10.472245   0.16824178 
   46800   -654.43593    75.826432    -578.6095    2300.4659    123589.22    10.472245   0.18961361 
   46900   -655.73391    67.636414   -588.09749    2051.9924     120042.7    10.472245   0.18713591 
   47000   -646.14519    71.891312   -574.25388      2181.08    131783.39    10.472245   0.23142671 
   47100    -648.2171    77.849384   -570.36772    2361.8394    132488.29    10.472245   0.24904596 
   47200   -654.93544    70.753791   -584.18165    2146.5692    120458.23    10.472245   0.19928862 
   47300   -653.26778    75.132303   -578.13547     2279.407    123329.84    10.472245   0.20710487 
   47400   -645.92145    72.267587   -573.65387    2192.4956    135265.84    10.472245    0.2771251 
   47500   -650.37383    76.183953   -574.18988    2311.3126    126176.92    10.472245   0.23182951 
   47600   -657.71854    71.116591   -586.60195     2157.576    118587.91    10.472245   0.18568844 
   47700    -653.8338    80.516421   -573.31738    2442.7535    124447.29    10.472245   0.18630558 
   47800   -652.41385    78.645986   -573.76786    2386.0071    127285.58    10.472245   0.20420116 
   47900   -657.39645    75.060028   -582.33642    2277.2143    119152.09    10.472245   0.19230968 
   48000   -652.37557    74.196486   -578.17908    2251.0157    127264.69    10.472245    0.1959796 
   48100   -647.96865    77.526149    -570.4425    2352.0329     131833.8    10.472245    0.2201719 
   48200     -656.477    73.490024   -582.98698    2229.5826    121325.66    10.472245   0.19316764 
   48300   -653.18175    73.100312   -580.08144    2217.7593    124892.36    10.472245   0.21253128 
   48400   -649.20605    78.028595   -571.17745    2367.2764    129842.68    10.472245   0.21882123 
   48500   -649.16525    76.063289   -573.10196    2307.6518    129373.75    10.472245   0.26120619 
   48600   -661.45349    80.139283   -581.31421    2431.3117    113893.86    10.472245   0.21642143 
   48700   -649.14228    80.894731   -568.24755    2454.2309    129240.24    10.472245   0.26258756 
   48800   -648.96629    74.653101   -574.31319    2264.8687    129143.95    10.472245   0.24096167 
   48900   -653.71103    76.429311   -577.28172    2318.7564    124592.59    10.472245   0.21985199 
   49000    -646.4328    75.257677   -571.17512    2283.2107    132325.86    10.472245   0.26646896 
   49100   -651.16638    72.186897   -578.97948    2190.0476    125280.34    10.472245    0.2274995 
   49200    -654.3776    73.658265   -580.71934    2234.6868    123750.16    10.472245   0.19113814 
   49300   -648.83411    80.054929   -568.77918    2428.7525    130676.71    10.472245   0.18499051 
   49400   -654.10015    78.741278   -575.35887    2388.8982    125382.38    10.472245    0.1890363 
   49500   -657.14153    73.838519   -583.30301    2240.1555    119010.82    10.472245   0.19199918 
   49600   -647.19284    78.011726   -569.18111    2366.7646    133576.64    10.472245   0.24809321 
   49700   -647.66575    73.429692   -574.23605    2227.7522    129839.42    10.472245   0.25939136 
   49800    -656.3338    75.091917   -581.24188    2278.1818    119702.88    10.472245     0.220226 
   49900    -652.9655    75.485875   -577.47962    2290.1339    123407.02    10.472245   0.19510082 
   50000   -654.73159    82.387643   -572.34395    2499.5237    123377.86    10.472245   0.18984058 
   50100   -641.27028    72.904869   -568.36541    2211.8299    138444.95    10.472245    0.2789846 
   50200   -649.11988    72.078707   -577.04117    2186.7653    128004.88    10.472245   0.36553981 
   50300   -654.94544    80.112148   -574.83329    2430.4884    122230.53    10.472245   0.46415281 
   50400    -650.8812    82.898928   -567.98227    2515.0354    130244.62    10.472245   0.52119216 
   50500   -655.01714     76.75808   -578.25906    2328.7308    122609.97    10.472245    0.4680548 
   50600    -652.8113    73.516639   -579.29466    2230.3901     124139.8    10.472245   0.52028263 
   50700    -647.2563    78.956278   -568.30002     2395.421    134141.91    10.472245   0.50069314 
   50800   -641.69184    84.260861   -557.43098    2556.3545     141597.3    10.472245   0.50991393 
   50900   -651.43572    76.691436   -574.74428    2326.7089    127294.74    10.472245   0.46729735 
   51000   -655.38015    73.061707   -582.31845    2216.5881    120971.55    10.472245   0.45189621 
   51100   -643.37079    74.935263   -568.43552    2273.4291    137975.83    10.472245   0.49070245 
   51200   -651.77984    79.461201   -572.31864    2410.7396     126028.1    10.472245   0.47093675 
   51300   -657.06176    77.297947   -579.76381    2345.1096    117872.61    10.472245   0.46342292 
   51400   -647.20161    80.240128   -566.96148    2434.3712    133270.55    10.472245    0.4737632 
   51500   -651.23429    81.519643   -569.71465    2473.1898    127742.48    10.472245   0.43308926 
   51600   -651.29928    73.214471    -578.0848    2221.2227    127342.69    10.472245   0.52932286 
   51700   -650.02663    82.202398   -567.82423    2493.9036    129876.34    10.472245   0.48548285 
   51800   -638.22834    73.848491   -564.37985     2240.458    143914.69    10.472245   0.51926015 
   51900   -655.51796    76.488333   -579.02963     2320.547    121184.21    10.472245   0.45652876 
   52000   -652.94823    78.352401   -574.59583    2377.1002    125442.48    10.472245   0.50124601 
   52100   -648.31416    80.525645   -567.78851    2443.0333    131347.37    10.472245   0.50051842 
   52200   -651.61129    76.290734   -575.32055    2314.5522    126345.14    10.472245   0.51087757 
   52300   -650.30628    72.765204   -577.54107    2207.5926    128232.71    10.472245   0.43087157 
   52400   -654.69905    73.549428   -581.14962    2231.3849    122799.77    10.472245   0.51757913 
   52500   -647.66748    78.715565   -568.95191    2388.1181    133810.75    10.472245   0.44054873 
   52600   -654.31642    76.506736   -577.80968    2321.1054    123389.46    10.472245   0.51121633 
   52700   -656.41733    79.635747   -576.78158    2416.0351    122611.91    10.472245   0.41327651 
   52800   -650.11331    76.698544   -573.41477    2326.9245    128776.69    10.472245   0.48595205 
   52900   -647.17376    83.709761     -563.464    2539.6349    132797.74    10.472245   0.51160237 
   53000   -657.11638    80.174414   -576.94197    2432.3775    121025.28    10.472245   0.45122971 
   53100   -654.76929    77.286338   -577.48295    2344.7574     123406.9    10.472245    0.4967132 
   53200   -644.27791    81.166794   -563.11111    2462.4849    137370.79    10.472245   0.52966305 
   53300   -653.55929     79.73003   -573.82926    2418.8955    124965.42    10.472245   0.50117878 
   53400   -650.19417    73.456857   -576.73732    2228.5764    126914.65    10.472245   0.49023519 
   53500   -653.18809    80.157875   -573.03022    2431.8757    125358.63    10.472245    0.4531295 
   53600   -654.99504     80.49075   -574.50429    2441.9747    123658.64    10.472245   0.50957217 
   53700   -660.76243    76.948523   -583.81391    2334.5086    115046.08    10.472245   0.48214191 
   53800   -648.11224    75.213149   -572.89909    2281.8598    132966.64    10.472245   0.47909224 
   53900   -653.38518    75.748583    -577.6366    2298.1041    122189.87    10.472245   0.46954727 
   54000   -655.09843    72.622415   -582.47601    2203.2606    120065.29    10.472245    0.4335812 
   54100   -648.49815    79.583939   -568.91421    2414.4633    131145.11    10.472245    0.5609717 
   54200   -648.69333     72.50804   -576.18529    2199.7906    130689.97    10.472245   0.52238172 
   54300   -654.30742    66.620845   -587.68657    2021.1815    119375.31    10.472245   0.46572722 
   54400   -660.22608    75.837304   -584.38878    2300.7957    115344.78    10.472245   0.42669845 
   54500   -650.91562    76.728464   -574.18716    2327.8323     127880.9    10.472245   0.50012152 
   54600   -654.15622    76.979222   -577.17699    2335.4399    123070.45    10.472245   0.47381481 
   54700   -656.07009    72.936196   -583.13389    2212.7803    119827.95    10.472245   0.48719463 
   54800   -648.70333    77.380333     -571.323    2347.6091    131424.18    10.472245    0.5412043 
   54900   -650.18825    77.448139   -572.74011    2349.6662    128959.76    10.472245   0.52470435 
   55000   -656.70914    73.082375   -583.62677    2217.2151    120003.96    10.472245   0.52842904 
   55100   -647.81036    76.997839   -570.81252    2336.0047    131250.99    10.472245   0.49628063 
   55200   -649.20088    76.690013   -572.51086    2326.6657    131677.46    10.472245   0.53800876 
   55300    -656.3219    73.733781   -582.58812    2236.9779    121162.73    10.472245   0.45288446 
   55400   -663.66997    65.603426   -598.06655    1990.3145    108867.84    10.472245    0.4290172 
   55500   -654.51639    70.897697   -583.61869    2150.9351    121611.26    10.472245   0.45194471 
   55600   -648.32513    76.927153   -571.39798    2333.8602    131933.56    10.472245   0.47185758 
   55700   -643.15055    64.248846    -578.9017    1949.2184     137016.5    10.472245   0.56741914 
   55800   -656.31613    71.912385   -584.40374    2181.7193    120491.88    10.472245   0.43436044 
   55900   -649.41573    79.215731       -570.2    2403.2924    130657.78    10.472245   0.49031098 
   56000   -649.28176    74.424312   -574.85745    2257.9276     128734.3    10.472245   0.55493793 
   56100   -652.66951    68.750299   -583.91921    2085.7861    124039.38    10.472245    0.4639971 
   56200   -647.23302      78.5955   -568.63752    2384.4755    134134.57    10.472245   0.50106789 
   56300   -653.94609    74.319524   -579.62657    2254.7485    122471.98    10.472245     0.470041 
   56400   -650.02934    72.825285   -577.20406    2209.4154       129680    10.472245   0.48884994 
   56500   -647.52011    80.670468   -566.84965    2447.4271    134535.01    10.472245    0.5247002 
   56600   -652.00909     73.72155   -578.28754    2236.6068    125842.36    10.472245   0.42892598 
   56700   -649.48308    75.510157   -573.97292    2290.8706     128918.7    10.472245   0.49432308 
   56800   -646.93284    78.339765   -568.59308    2376.7169    132365.16    10.472245   0.55169442 
   56900   -653.07661     73.80083   -579.27578     2239.012    124703.76    10.472245   0.50271403 
   57000   -650.31872    74.767493   -575.55123    2268.3392    128285.02    10.472245   0.50137704 
   57100   -645.59206    82.725283   -562.86678    2509.7672    136508.28    10.472245   0.49207912 
   57200   -650.81739    78.909912   -571.90748    2394.0143    128085.44    10.472245    0.5034501 
   57300    -655.2825    77.223376   -578.05912    2342.8472    122457.75    10.472245   0.47459208 
   57400   -651.03153    81.508956   -569.52257    2472.8656    128639.01    10.472245    0.4494699 
   57500   -642.57281    73.040735   -569.53208    2215.9518    138429.24    10.472245   0.50321954 
   57600   -648.78177    69.549921   -579.23185    2110.0455    129359.07    10.472245   0.52561654 
   57700   -646.54982    74.535872   -572.01395    2261.3121    134419.58    10.472245   0.52632052 
   57800   -643.73525    82.776259   -560.95899    2511.3137    138717.81    10.472245   0.50569312 
   57900   -649.60424    73.142677   -576.46156    2219.0446     128072.7    10.472245   0.53248445 
   58000   -651.92976    78.163084   -573.76667    2371.3566    127832.16    10.472245   0.45135843 
   58100   -650.54355    69.121832   -581.42172    2097.0579    126349.57    10.472245   0.50263034 
   58200   -657.81803     73.03914   -584.77889    2215.9035    117265.59    10.472245   0.49221948 
   58300   -650.87213    81.163014   -569.70912    2462.3702    129661.91    10.472245   0.47028314 
   58400   -650.71089    72.428533   -578.28236    2197.3785    126887.39    10.472245   0.49698741 
   58500   -649.24247    75.364336   -573.87813    2286.4466    130838.46    10.472245   0.45999916 
   58600   -645.55892    78.758297   -566.80062    2389.4145    135670.73    10.472245   0.59494293 
   58700   -649.53772    70.764025    -578.7737    2146.8797    130392.01    10.472245   0.47571796 
   58800   -656.14853    77.512953   -578.63557    2351.6325    122765.16    10.472245    0.4751053 
   58900   -654.47535    79.709202   -574.76615    2418.2636    123589.87    10.472245   0.45671585 
   59000   -654.34832    78.663027   -575.68529    2386.5242    123637.15    10.472245   0.47247251 
   59100   -653.41297    70.259503   -583.15347    2131.5732    122320.14    10.472245   0.52499104 
   59200   -649.27488    77.786435   -571.48845    2359.9296    130619.36    10.472245   0.51678662 
   59300   -654.98826    77.912417   -577.07584    2363.7517    123855.85    10.472245   0.47308133 
   59400   -662.61452    69.414821    -593.1997    2105.9468    111626.47    10.472245   0.43527061 
   59500   -655.23607    73.060042   -582.17603    2216.5376    119668.57    10.472245    0.4422811 
   59600   -647.90305     74.65533   -573.24772    2264.9363    132911.32    10.472245   0.51572856 
   59700    -655.7979    83.043981   -572.75392    2519.4361    123446.91    10.472245   0.43757618 
   59800   -652.68065    69.974973   -582.70568     2122.941    123344.92    10.472245   0.48840125 
   59900   -645.41786    74.655848   -570.76202     2264.952    134877.39    10.472245   0.50278832 
   60000   -650.36904    77.311912   -573.05713    2345.5333     127911.9    10.472245   0.45709692 
   60100   -653.84842    70.391919   -583.45651    2135.5905    119991.95    10.472245   0.45974026 
   60200   -653.45345    82.065133   -571.38832    2489.7392    127918.81    10.472245    0.5118966 
   60300   -657.86949    80.829188    -577.0403    2452.2424    121100.51    10.472245   0.47453229 
   60400   -655.73069    74.599352   -581.13134     2263.238    123352.49    10.472245   0.42269544 
   60500    -652.0485    78.756777   -573.29172    2389.3684    128277.07    10.472245   0.47802637 
   60600   -643.27209    83.408766   -559.86333    2530.5031       139842    10.472245    0.5479258 
   60700   -649.28075    73.535113   -575.74564    2230.9506    128328.96    10.472245   0.48948501 
   60800   -656.93353    77.835575   -579.09796    2361.4204    120338.42    10.472245   0.46643867 
   60900   -647.14136    76.553086   -570.58827    2322.5116       133371    10.472245    0.5537798 
   61000   -648.83546    77.673455     -571.162     2356.502    130696.87    10.472245    0.4879247 
   61100   -651.62685     72.54173   -579.08512    2200.8127    126122.94    10.472245   0.43923777 
   61200   -647.74468    74.387919   -573.35676    2256.8235    129652.25    10.472245   0.49302591 
   61300   -645.15426    83.645674   -561.50858    2537.6906    136994.52    10.472245   0.47080616 
   61400   -649.76528    71.270251   -578.49503    2162.2379    129706.76    10.472245    0.5151188 
   61500   -650.15764    76.573409   -573.58423    2323.1281    129264.68    10.472245   0.44525779 
   61600   -641.14865    77.616805   -563.53184    2354.7833    141404.02    10.472245   0.53478685 
   61700   -651.53006    78.290924   -573.23914    2375.2351    127419.13    10.472245   0.45371448 
   61800   -655.18387    75.115687   -580.06818    2278.9029    121370.64    10.472245    0.4561301 
   61900   -644.23651     75.08006   -569.15645     2277.822    138509.42    10.472245   0.56419762 
   62000   -652.83135    77.207563   -575.62379    2342.3675    126873.83    10.472245   0.46331284 
   62100   -655.01426    72.727405   -582.28686    2206.4458    120892.73    10.472245   0.50030963 
   62200   -651.43226    80.222979   -571.20928    2433.8509    128008.83    10.472245   0.45290233 
   62300    -655.1058    78.639051   -576.46674    2385.7968    123219.43    10.472245    0.4486624 
   62400   -652.52522    76.341509   -576.18371    2316.0926    125936.61    10.472245   0.49373332 
   62500   -648.75044    84.850197   -563.90025    2574.2341     132144.6    10.472245   0.47859075 
   62600   -647.61518    69.689062   -577.92612    2114.2668    129371.55    10.472245   0.49597373 
   62700   -653.29664     80.06847   -573.22817    2429.1633    125353.96    10.472245   0.44229978 
   62800     -637.779    77.452508   -560.32649    2349.7987    144256.97    10.472245   0.52981225 
   62900   -647.92857    73.005327   -574.92324    2214.8776    130274.19    10.472245   0.48267067 
   63000   -654.88065    74.156952    -580.7237    2249.8163    122102.33    10.472245   0.41981531 
   63100   -644.53251    76.441729   -568.09078    2319.1332    134834.22    10.472245    0.5291675 
   63200   -650.70519     77.15453   -573.55066    2340.7585    128985.04    10.472245   0.46087871 
   63300   -653.79588      74.8327   -578.96318    2270.3175    124107.36    10.472245   0.48603238 
   63400   -644.72578    70.963616   -573.76216     2152.935    133826.43    10.472245   0.51427841 
   63500    -640.9011     77.29282   -563.60828     2344.954     141235.8    10.472245   0.55614207 
   63600   -650.73944    75.692707   -575.04673    2296.4089    128051.75    10.472245   0.49744279 
   63700   -654.35695    76.242278   -578.11467    2313.0821    123297.03    10.472245   0.43900054 
   63800    -647.4271    68.028499    -579.3986    2063.8877    128720.42    10.472245   0.53307433 
   63900   -652.10038    81.814658   -570.28572    2482.1401    129341.07    10.472245   0.46598954 
   64000   -652.24719    69.290042   -582.95714    2102.1611    124379.43    10.472245   0.48388012 
   64100   -653.51896     73.62676    -579.8922     2233.731     124036.4    10.472245   0.46301799 
   64200   -654.38391    79.579697   -574.80422    2414.3346    124569.63    10.472245   0.45851255 
   64300   -648.07007    77.596852   -570.47322    2354.1779    131468.37    10.472245   0.52173064 
   64400   -645.38547    79.074846   -566.31062    2399.0182    135655.82    10.472245   0.54323107 
   64500   -656.11488    77.340356   -578.77453    2346.3962    120898.91    10.472245   0.45630881 
   64600   -657.70239    84.369276   -573.33311    2559.6436    120316.73    10.472245   0.44661952 
   64700   -642.53668     78.64966   -563.88702    2386.1186     136771.1    10.472245   0.50533343 
   64800   -654.93424    75.416648    -579.5176    2288.0336    123371.29    10.472245   0.47166007 
   64900    -652.6651    77.668576   -574.99652    2356.3539    125789.55    10.472245   0.46838548 
   65000   -648.03986    77.522258    -570.5176    2351.9148    132652.36    10.472245   0.45836895 
   65100   -652.62987    69.658577   -582.97129     2113.342    123524.34    10.472245   0.49667578 
   65200   -649.71441    78.477783   -571.23663    2380.9041    128637.91    10.472245   0.57298726 
   65300     -645.386    71.123122   -574.26287    2157.7742    133246.33    10.472245   0.59512201 
   65400   -640.34934    75.517322   -564.83202     2291.088    142050.08    10.472245   0.52757058 
   65500   -645.79907    84.718232   -561.08083    2570.2305    135873.34    10.472245   0.49499877 
   65600   -647.22477    72.721092   -574.50368    2206.2543    131272.48    10.472245   0.52321142 
   65700   -650.78968    70.185944   -580.60374    2129.3415    125869.67    10.472245   0.47048751 
   65800   -647.32295    80.673058   -566.64989    2447.5056    134301.34    10.472245   0.48369043 
   65900   -649.56604     74.19949   -575.36655    2251.1068    130801.57    10.472245    0.4749198 
   66000   -655.55593    76.211099   -579.34483    2312.1361    122355.65    10.472245   0.46378413 
   66100   -647.81335    76.087252    -571.7261    2308.3788    130546.22    10.472245   0.46153027 
   66200   -652.29727    85.079597   -567.21768    2581.1937    128574.82    10.472245   0.50496373 
   66300    -653.1916    74.536297    -578.6553     2261.325    124983.41    10.472245   0.45548948 
   66400   -645.98011     71.20864   -574.77147    2160.3687    133466.99    10.472245   0.47988749 
   66500   -646.65012    79.226039   -567.42408    2403.6051    133264.37    10.472245   0.49025961 
   66600    -651.6411    71.858189   -579.78291    2180.0751    125625.74    10.472245   0.47058324 
   66700    -650.9557    75.143321   -575.81238    2279.7413    127160.69    10.472245   0.52861216 
   66800   -642.44587     74.15556   -568.29031     2249.774    138630.53    10.472245   0.62418096 
   66900   -649.95004    74.247952   -575.70209    2252.5771    127714.37    10.472245   0.58465937 
   67000   -643.71339    65.862782   -577.85061     1998.183    134868.15    10.472245   0.71395381 
   67100   -651.31073    82.014982   -569.29575    2488.2177    129353.01    10.472245   0.70801146 
   67200   -636.72737    71.916244   -564.81113    2181.8364    144171.71    10.472245    0.7424713 
   67300   -645.33824    73.713386   -571.62485    2236.3591    134646.27    10.472245   0.69472346 
   67400   -653.64183    73.773152   -579.86868    2238.1723    124951.35    10.472245   0.65982911 
   67500   -653.67938    84.091593   -569.58778    2551.2191     125722.7    10.472245   0.63607669 
   67600   -649.39409    78.098456   -571.29563    2369.3959    129140.61    10.472245   0.69553557 
   67700    -651.4398    75.298168   -576.14163    2284.4391    127237.89    10.472245   0.71841981 
   67800   -647.94309    75.906295    -572.0368    2302.8888    131446.77    10.472245   0.67811834 
   67900      -646.53    79.302788   -567.22722    2405.9336    135196.51    10.472245    0.7332563 
   68000   -655.05435    74.492334   -580.56202    2259.9913    121007.76    10.472245   0.63943783 
   68100   -654.29284    78.996155   -575.29668    2396.6308    125026.26    10.472245   0.69723742 
   68200   -647.36542    77.291005   -570.07441     2344.899    133483.33    10.472245    0.6490661 
   68300   -653.05486    74.304646   -578.75021    2254.2971     124614.1    10.472245   0.63935322 
   68400    -654.8159    75.830008   -578.98589    2300.5744    123076.66    10.472245   0.64145479 
   68500    -644.8582     76.42949   -568.42871    2318.7618    135843.33    10.472245   0.66477951 
   68600   -654.67695    72.879811   -581.79714    2211.0696    123773.03    10.472245   0.62892322 
   68700   -653.30113    76.502936   -576.79819    2320.9901     124993.1    10.472245    0.6755041 
   68800   -648.80201    77.760207    -571.0418    2359.1339     130483.2    10.472245    0.7535364 
   68900    -646.1579    87.229181   -558.92872    2646.4091    135863.97    10.472245    0.7633967 
   69000   -650.43346    77.063567    -573.3699    2337.9988    128176.56    10.472245   0.73683516 
   69100   -650.89473    73.329393   -577.56534    2224.7093    128670.62    10.472245   0.67170867 
   69200   -652.47888    77.412827   -575.06605    2348.5949    127160.12    10.472245   0.65845976 
   69300   -650.41007    81.439505   -568.97057    2470.7586    129891.68    10.472245    0.6968061 
   69400   -655.33582    74.685762   -580.65006    2265.8596     120823.8    10.472245   0.71261647 
   69500   -648.22884    72.767725   -575.46112    2207.6691    129056.27    10.472245    0.7173358 
   69600    -647.0791    76.620368   -570.45873    2324.5528    131739.15    10.472245    0.7216262 
   69700   -651.50408    75.581752   -575.92233    2293.0427     126728.9    10.472245   0.69427333 
   69800   -658.93409    70.602147   -588.33195    2141.9686    115296.73    10.472245   0.63188237 
   69900   -654.59126    80.988862    -573.6024    2457.0867    123489.78    10.472245    0.6563551 
   70000   -653.17877    78.146912   -575.03186     2370.866    125918.48    10.472245    0.7120154 
   70100   -652.30558     69.39847   -582.90711    2105.4507    123924.91    10.472245   0.69246523 
   70200   -650.85334    81.778077   -569.07526    2481.0303    129207.51    10.472245    0.6749154 
   70300   -652.93542    76.489527   -576.44589    2320.5833    124547.27    10.472245   0.65530513 
   70400   -653.53463    74.140045   -579.39459    2249.3033    123701.23    10.472245   0.71779616 
   70500   -648.52155    76.130839   -572.39071    2309.7012     133300.9    10.472245   0.69272455 
   70600   -654.01292    81.267594   -572.74533     2465.543    126082.61    10.472245   0.67983415 
   70700   -654.63716    71.522957   -583.11421    2169.9046    122887.52    10.472245   0.74741012 
   70800   -650.37167    79.290285   -571.08138    2405.5543    131341.68    10.472245   0.64121094 
   70900   -651.89677    76.939999   -574.95677    2334.2499    126620.22    10.472245    0.7416428 
   71000   -654.33341    78.956143   -575.37727    2395.4169    125475.01    10.472245    0.6458694 
   71100   -652.20336    75.697786   -576.50557     2296.563     126982.2    10.472245   0.69241938 
   71200   -646.78025    78.101887   -568.67836       2369.5    134135.62    10.472245   0.68124598 
   71300   -650.32845    71.888923   -578.43952    2181.0075     127334.2    10.472245   0.68854165 
   71400   -652.34614    73.576873   -578.76927    2232.2175    125013.27    10.472245   0.73156665 
   71500   -650.03401    75.583936   -574.45007    2293.1089    128619.67    10.472245   0.68692627 
   71600   -650.56652    78.162057   -572.40446    2371.3255    129607.86    10.472245   0.65163586 
   71700    -656.2623     76.52004   -579.74226     2321.509    120394.44    10.472245    0.6577837 
   71800   -652.17793    74.242861   -577.93506    2252.4226    126933.61    10.472245   0.61761278 
   71900   -650.95746    80.607292   -570.35016    2445.5104    130279.91    10.472245    0.6570257 
   72000   -653.98647    78.693841   -575.29263     2387.459    124630.88    10.472245   0.67922435 
   72100    -655.6296    76.258477   -579.37112    2313.5735    122357.88    10.472245   0.67379408 
   72200   -655.63023    77.310514   -578.31972    2345.4908    120056.19    10.472245   0.68526393 
   72300   -651.44585    77.868603   -573.57725    2362.4225    127502.58    10.472245   0.72776387 
   72400   -648.48985    81.518118   -566.97173    2473.1435    135628.05    10.472245     0.675935 
   72500   -653.79212    73.557591   -580.23453    2231.6325    121992.05    10.472245   0.73791163 
   72600   -648.87411     76.71709   -572.15702    2327.4872    129805.09    10.472245   0.69419923 
   72700    -650.0487    74.489938   -575.55876    2259.9186    128175.71    10.472245   0.69028149 
   72800   -652.19173    70.665688   -581.52605    2143.8963    124163.53    10.472245   0.64208521 
   72900   -646.76605    75.291371   -571.47468    2284.2329    133773.14    10.472245   0.69680728 
   73000   -658.13848    75.148956   -582.98953    2279.9122    118073.05    10.472245   0.67012298 
   73100    -646.6623    69.069678   -577.59263    2095.4756    131054.71    10.472245    0.6850366 
   73200   -647.06288     75.92136   -571.14152    2303.3459    131064.52    10.472245    0.7007141 
   73300   -655.11268    73.321277    -581.7914    2224.4631    121841.64    10.472245   0.67320671 
   73400   -654.24181    70.401981   -583.83983    2135.8958    122818.55    10.472245   0.66618507 
   73500    -650.4022    76.076909   -574.32529     2308.065    127637.62    10.472245   0.70121477 
   73600   -652.40235     77.24184   -575.16051    2343.4074    126527.33    10.472245   0.65572289 
   73700   -653.18666     66.80663   -586.38003     2026.818    122914.87    10.472245   0.70420665 
   73800   -650.59523    76.836047   -573.75919    2331.0962    128860.43    10.472245   0.73166328 
   73900   -645.24876    72.808576   -572.44018    2208.9085    131579.69    10.472245   0.72326756 
   74000    -658.8938    74.279987   -584.61381     2253.549     116163.7    10.472245   0.63692246 
   74100   -648.18161    73.754206   -574.42741    2237.5975    130805.48    10.472245   0.64402044 
   74200   -648.48873    74.260095   -574.22864    2252.9455    130914.51    10.472245   0.72390471 
   74300   -655.47738    75.244481    -580.2329    2282.8103    123088.91    10.472245   0.66586496 
   74400   -659.00032    71.958933   -587.04138    2183.1315    116093.52    10.472245   0.64542871 
   74500   -649.88375    76.607952    -573.2758    2324.1761    130278.08    10.472245   0.73432075 
   74600   -653.72089    79.385504   -574.33538    2408.4431    125169.51    10.472245   0.66550867 
   74700   -662.01715    76.032481   -585.98467    2306.7171    112959.43    10.472245    0.6701917 
   74800   -649.50748    77.219518   -572.28796    2342.7301    129816.72    10.472245   0.73671171 
   74900   -658.58205     87.73737   -570.84468    2661.8268    121406.49    10.472245   0.66196481 
   75000   -659.34321    77.113747   -582.22946    2339.5212    118359.14    10.472245   0.63604316 
   75100   -653.70698    76.288212   -577.41876    2314.4757    125006.05    10.472245   0.71348912 
   75200   -651.76071    76.811121   -574.94959      2330.34    126628.99    10.472245   0.69520994 
   75300   -652.61533    80.195707   -572.41962    2433.0235    124765.53    10.472245   0.68344528 
   75400   -650.95749    75.561042   -575.39645    2292.4144    127961.15    10.472245   0.64777463 
   75500   -653.00062    78.117548   -574.88307    2369.9751    126925.19    10.472245   0.63474622 
   75600   -647.92023    73.759466   -574.16077    2237.7571     131978.9    10.472245   0.67544546 
   75700   -657.81674    72.839612   -584.97713      2209.85    118844.29    10.472245   0.64815417 
   75800   -650.31418    77.548506   -572.76567    2352.7112     127853.4    10.472245   0.65734417 
   75900    -649.9629    76.123698    -573.8392    2309.4845    129400.88    10.472245   0.65656037 
   76000    -656.3952     75.65891   -580.73629    2295.3835     122299.3    10.472245   0.66911143 
   76100   -650.86277    74.513492   -576.34928    2260.6332    127661.26    10.472245   0.71092704 
   76200   -649.86774    75.625626   -574.24211    2294.3737    129369.42    10.472245   0.70572616 
   76300   -651.40991    72.727872   -578.68203      2206.46    125408.45    10.472245     0.714669 
   76400   -654.26538    76.502127   -577.76325    2320.9655    123147.48    10.472245   0.69015486 
   76500   -647.20126     79.30848   -567.89278    2406.1063    134352.92    10.472245   0.72234694 
   76600   -652.18816     70.51953   -581.66863    2139.4621    124868.21    10.472245   0.68959524 
   76700    -655.3162    80.183496    -575.1327     2432.653    122742.88    10.472245   0.70540197 
   76800   -647.96305    74.550397   -573.41265    2261.7528    131515.23    10.472245   0.68289606 
   76900   -652.95895    74.904153    -578.0548    2272.4853    124151.61    10.472245   0.67631473 
   77000   -646.96734    70.613721   -576.35362    2142.3197     130640.8    10.472245   0.69535316 
   77100    -650.7679    79.262037   -571.50587    2404.6973     128124.9    10.472245   0.68283624 
   77200   -650.64697    70.114371    -580.5326    2127.1701    125738.85    10.472245   0.68257611 
[...]
  481400   -651.38681    77.092448   -574.29436     2338.875    127800.96    10.472245    1.1784433 
  481500   -648.69617    69.730759   -578.96541    2115.5319    128269.36    10.472245     1.135407 
  481600   -654.00387    71.743347   -582.26052    2176.5909    123043.27    10.472245    1.1353541 
  481700   -648.52387    78.242747   -570.28113    2373.7734    131430.68    10.472245     1.176319 
  481800   -652.29687     74.66123   -577.63564    2265.1153    125252.74    10.472245    1.2165256 
  481900   -656.67849    65.585804   -591.09269    1989.7798    118067.92    10.472245    1.2075161 
  482000   -652.07324    73.644267   -578.42897    2234.2621    126703.31    10.472245    1.1912529 
  482100   -649.27893    76.830437   -572.44849     2330.926    133056.48    10.472245    1.2316696 
  482200   -646.96411    79.437054   -567.52705     2410.007    135452.31    10.472245      1.24903 
  482300   -657.68269    79.935062   -577.74763    2425.1159    120107.94    10.472245    1.0726467 
  482400   -649.12349    68.944186    -580.1793    2091.6684    130563.84    10.472245    1.1616819 
  482500   -648.39317    81.339705   -567.05346    2467.7308    131940.62    10.472245    1.2346127 
  482600   -655.50049    76.671626   -578.82886    2326.1079     122301.3    10.472245    1.1798536 
  482700   -648.30283    71.141295   -577.16154    2158.3255    129573.14    10.472245    1.2279258 
  482800   -646.05194    82.804839    -563.2471    2512.1808    134935.41    10.472245    1.2035429 
  482900   -650.14757    76.947844   -573.19973     2334.488    128462.25    10.472245    1.2370226 
  483000   -651.78499    73.433002   -578.35199    2227.8527    126120.44    10.472245    1.2264401 
  483100   -653.14179    84.654252   -568.48754    2568.2894    127376.62    10.472245    1.1921385 
  483200   -648.67198    79.637785    -569.0342    2416.0969    131746.61    10.472245    1.1987202 
  483300   -649.48681    69.518343   -579.96847    2109.0875    127351.33    10.472245    1.2579083 
  483400   -644.18278    74.120116   -570.06266    2248.6987    136074.76    10.472245    1.2743424 
  483500   -648.10722    81.347426   -566.75979     2467.965    131674.97    10.472245    1.2332921 
  483600   -654.48613    78.604868   -575.88126    2384.7597    123980.38    10.472245    1.1935814 
  483700    -653.9893    73.890436   -580.09887    2241.7305    124464.86    10.472245    1.2256029 
  483800   -646.01447    79.855731   -566.15874    2422.7091    134766.55    10.472245    1.1980014 
  483900   -649.71395    75.871539   -573.84241    2301.8344    129441.37    10.472245    1.1863015 
  484000   -650.11964    73.750124   -576.36952    2237.4737    128392.01    10.472245    1.2990547 
  484100    -645.6921    79.354779   -566.33732    2407.5109    135936.87    10.472245    1.2136101 
  484200    -646.3067    77.221943   -569.08476    2342.8037    134953.46    10.472245    1.2186511 
  484300   -650.06093    72.090903   -577.97003    2187.1353    127634.15    10.472245    1.2311416 
  484400   -647.95087    79.717916   -568.23295     2418.528    131185.48    10.472245    1.2696102 
  484500    -657.0254    72.867022   -584.15838    2210.6816    119447.06    10.472245    1.1523604 
  484600   -653.36048    79.276421   -574.08406    2405.1337    125397.18    10.472245    1.1477654 
  484700   -650.29014    79.009855   -571.28028    2397.0464    130730.31    10.472245    1.1270041 
  484800   -655.88815    71.091242   -584.79691     2156.807    119568.36    10.472245    1.0717883 
  484900   -651.83677    77.311378   -574.52539     2345.517    127153.39    10.472245    1.2159506 
  485000   -650.37468    76.370282    -574.0044    2316.9655    130283.41    10.472245    1.1532418 
  485100   -651.16353    74.975502   -576.18803    2274.6499    126848.18    10.472245     1.187133 
  485200   -656.94591    78.368034   -578.57788    2377.5745    121552.81    10.472245     1.212283 
  485300   -653.60098    78.157114   -575.44387    2371.1755     125322.8    10.472245    1.1954011 
  485400    -645.6351    79.387989   -566.24711    2408.5185    136205.91    10.472245    1.2370305 
  485500   -652.13603    70.486188   -581.64984    2138.4505    124778.86    10.472245    1.1871416 
  485600   -656.76203    81.615238    -575.1468      2476.09    121260.74    10.472245    1.0902239 
  485700   -653.84032    77.622537   -576.21779    2354.9572    123815.85    10.472245    1.1826396 
  485800   -659.94762     73.86783   -586.07979    2241.0447    115846.82    10.472245    1.1951479 
  485900   -651.95048    77.287672    -574.6628    2344.7979    126239.19    10.472245    1.1736296 
  486000   -652.59933    76.702459   -575.89688    2327.0433    126113.44    10.472245    1.1851047 
  486100   -657.95728    68.851835   -589.10544    2088.8666    116469.51    10.472245    1.1459335 
  486200   -652.03079    76.479884    -575.5509    2320.2907    126419.23    10.472245    1.2380068 
  486300   -652.55643     80.89963    -571.6568    2454.3795    127290.27    10.472245    1.2239627 
  486400   -650.74266    71.264883   -579.47778     2162.075    125454.77    10.472245    1.1468913 
  486500   -655.31028    72.716353   -582.59393    2206.1105    121831.67    10.472245    1.1990871 
  486600   -642.90838    69.358087   -573.55029    2104.2256    135222.91    10.472245    1.2766289 
  486700   -650.39989    77.334109   -573.06578    2346.2067    127114.45    10.472245    1.2513777 
  486800   -653.79839    69.202826   -584.59557    2099.5151    122664.93    10.472245    1.2177069 
  486900   -646.29562    77.644806   -568.65081    2355.6328    134862.75    10.472245    1.2614638 
  487000   -652.73869    78.704683   -574.03401     2387.788    125993.56    10.472245    1.2662882 
  487100   -654.06968    71.778635   -582.29105    2177.6615    122411.64    10.472245    1.1506599 
  487200   -656.29074    80.961278   -575.32947    2456.2498    121235.16    10.472245    1.1617244 
  487300   -648.59669    79.830737   -568.76595    2421.9508    133029.11    10.472245    1.2249333 
  487400   -654.59383    72.365764   -582.22807    2195.4742    123656.43    10.472245     1.198653 
  487500   -653.78476    78.354765   -575.42999    2377.1719    123723.23    10.472245    1.1782948 
  487600   -649.66917    74.143523   -575.52564    2249.4088    129872.25    10.472245    1.2210401 
  487700   -654.29796    71.857907   -582.44005    2180.0665     121333.4    10.472245    1.2152133 
  487800   -652.65417    73.999824   -578.65435    2245.0492    126064.43    10.472245    1.2423061 
  487900   -646.31457    76.708449   -569.60612     2327.225    133695.67    10.472245    1.2619321 
  488000   -658.41832    80.094395   -578.32392    2429.9498    119390.81    10.472245    1.1292272 
  488100    -657.4415    71.589151   -585.85234    2171.9128    118968.57    10.472245      1.15005 
  488200   -651.90151     76.69695   -575.20456    2326.8762    126888.17    10.472245    1.1414024 
  488300   -644.68629    74.962719   -569.72357    2274.2621    136501.06    10.472245    1.2355326 
  488400   -642.08386    81.919729   -560.16413    2485.3279    141532.24    10.472245    1.2755773 
  488500   -647.03098    75.061421   -571.96956    2277.2566    132888.05    10.472245    1.2665463 
  488600    -648.6954    70.715031   -577.98037    2145.3933    130522.13    10.472245    1.1416992 
  488700   -657.37422    68.189624   -589.18459     2068.776    118181.41    10.472245    1.1907297 
  488800   -653.64315    76.997388   -576.64576     2335.991    122233.96    10.472245    1.1872214 
  488900   -649.36301    77.039417   -572.32359    2337.2661    130506.21    10.472245    1.1521432 
  489000   -651.78942    68.042516    -583.7469     2064.313    124316.83    10.472245    1.1856008 
  489100   -649.63495    75.191341   -574.44361    2281.1981    128395.78    10.472245    1.2000358 
  489200   -655.14833    82.823972   -572.32436    2512.7613     122685.9    10.472245    1.2382784 
  489300   -654.85168     78.04011   -576.81157    2367.6257    121500.84    10.472245    1.1669276 
  489400   -644.43934    81.223357   -563.21598    2464.2009    136842.37    10.472245    1.2423868 
  489500   -654.63186    78.238867   -576.39299    2373.6557    124419.56    10.472245     1.202137 
  489600   -654.06878     76.96651   -577.10227    2335.0542    122580.24    10.472245    1.1742202 
  489700   -648.06947    79.482523   -568.58695    2411.3865    133147.71    10.472245    1.1771817 
  489800   -653.84785    78.000223   -575.84763    2366.4156    125278.91    10.472245     1.171467 
  489900   -651.47268     70.18138    -581.2913    2129.2031    126121.18    10.472245     1.185749 
  490000   -648.62343     76.75198   -571.87145    2328.5457       131664    10.472245    1.2042227 
  490100   -650.67442    77.282371   -573.39204     2344.637    128707.25    10.472245    1.1787356 
  490200   -654.26424    74.546153   -579.71809    2261.6241    124530.81    10.472245    1.2318167 
  490300   -658.12628    77.328754   -580.79753    2346.0442    117480.88    10.472245    1.1292024 
  490400    -649.4691    79.019253   -570.44985    2397.3316    129234.15    10.472245    1.2110912 
  490500    -651.2068    75.420818   -575.78598    2288.1601    126850.45    10.472245    1.2945062 
  490600   -656.48361    73.609908    -582.8737    2233.2197    118228.39    10.472245     1.190632 
  490700    -649.3865    73.639663   -575.74684    2234.1225    127422.03    10.472245    1.2780323 
  490800   -649.28136    74.382638   -574.89872    2256.6633    130342.34    10.472245    1.2052847 
  490900   -653.07392     71.03087   -582.04305    2154.9754    123218.05    10.472245     1.224462 
  491000   -652.98395     75.25146   -577.73248    2283.0221    123570.38    10.472245      1.27834 
  491100   -645.56019    74.324819   -571.23537    2254.9091    133431.97    10.472245    1.1431619 
  491200   -650.84548    67.396755   -583.44872    2044.7215    125986.43    10.472245    1.2601554 
  491300   -649.64081    72.712287   -576.92853    2205.9872    129101.81    10.472245    1.1685787 
  491400    -648.1548    76.943336   -571.21146    2334.3512    133018.35    10.472245    1.2460166 
  491500   -656.27266      77.4755   -578.79716    2350.4963    121250.36    10.472245    1.1588346 
  491600   -652.65256    73.378604   -579.27396    2226.2023    125142.48    10.472245    1.1733743 
  491700   -644.33964    75.707686   -568.63196    2296.8633    136912.23    10.472245    1.2812006 
  491800   -654.97211    78.738387   -576.23372    2388.8105    123157.69    10.472245    1.1741623 
  491900   -654.61808    76.231806   -578.38628    2312.7644    123701.65    10.472245    1.2265976 
  492000   -651.01884    82.194232   -568.82461    2493.6559    128895.13    10.472245    1.2981289 
  492100   -639.68726     71.84423   -567.84303    2179.6516    142487.54    10.472245    1.3391783 
  492200   -655.91103    78.908698   -577.00233    2393.9775    122231.43    10.472245    1.2216432 
  492300   -648.21607    74.649803   -573.56627    2264.7687       130254    10.472245    1.2715625 
  492400    -648.9333    76.004229   -572.92907      2305.86    129105.26    10.472245    1.1876077 
  492500   -653.77678    76.766092   -577.01069    2328.9738    125324.29    10.472245    1.2022358 
  492600   -648.37719    71.869559   -576.50763      2180.42    129138.38    10.472245    1.2071872 
  492700   -646.14274    74.681503   -571.46124    2265.7304    135063.88    10.472245    1.2655313 
  492800   -656.51589    81.386317   -575.12957    2469.1449    121869.17    10.472245     1.194517 
  492900    -660.8005    76.106585   -584.69391    2308.9654    115060.34    10.472245    1.1625826 
  493000   -648.78876    79.519211   -569.26955    2412.4996    132225.87    10.472245    1.1526843 
  493100   -658.06926    83.650408   -574.41885    2537.8342    121042.38    10.472245     1.184997 
  493200   -653.64278    70.252459   -583.39032    2131.3595    123290.74    10.472245    1.1419808 
  493300   -644.89222    77.360306   -567.53191    2347.0015    136502.95    10.472245    1.2390894 
  493400   -648.00553    73.755949   -574.24958    2237.6504    133137.75    10.472245    1.2495159 
  493500   -648.14942    67.127785   -581.02163    2036.5614    129850.99    10.472245    1.2267764 
  493600   -654.78511    76.059713    -578.7254    2307.5433    123101.33    10.472245    1.1926968 
  493700   -648.11965    78.599049    -569.5206    2384.5831    132190.02    10.472245    1.2139061 
  493800    -655.3722    72.193627   -583.17857    2190.2518    121125.97    10.472245    1.1848034 
  493900   -649.76886    73.340349   -576.42851    2225.0417    127276.03    10.472245    1.1672557 
  494000   -652.19657    78.929057   -573.26752    2394.5951     128784.9    10.472245     1.161611 
  494100   -652.82484    68.630638    -584.1942    2082.1558    124322.69    10.472245    1.1224371 
  494200   -645.56171    70.747287   -574.81443    2146.3719    132864.82    10.472245    1.2405064 
  494300   -649.80933    76.278479   -573.53085    2314.1804    129134.75    10.472245    1.2769768 
  494400   -650.92538    73.117965   -577.80741    2218.2949    127790.22    10.472245    1.1641068 
  494500   -642.70379    80.524979   -562.17881    2443.0131    137914.46    10.472245    1.1967299 
  494600   -651.46605    75.874719   -575.59134    2301.9309     126728.3    10.472245    1.2005135 
  494700   -656.96736    78.141139   -578.82622    2370.6908    118828.42    10.472245    1.0627388 
  494800   -648.49964    82.729334    -565.7703    2509.8901    132214.92    10.472245     1.274634 
  494900   -648.50394    72.633737    -575.8702    2203.6041    130677.11    10.472245    1.1951994 
  495000   -653.24392    73.924082   -579.31983    2242.7513    124116.59    10.472245    1.2614479 
  495100   -648.14331    79.608139   -568.53517    2415.1975     131837.7    10.472245    1.1754425 
  495200   -652.97428    74.122356   -578.85192    2248.7667    124086.52    10.472245    1.2929195 
  495300   -647.75053    68.393176   -579.35736    2074.9515    130631.99    10.472245    1.2160127 
  495400   -645.48813    74.821389   -570.66674    2269.9743       133658    10.472245    1.2943223 
  495500   -653.20797    72.413591   -580.79438    2196.9252    123217.25    10.472245    1.2224442 
  495600   -656.24453    74.907502   -581.33703    2272.5869    121529.54    10.472245    1.1522737 
  495700   -650.23789    77.280395   -572.95749    2344.5771    128282.95    10.472245     1.214801 
  495800   -654.77284    74.366311   -580.40653    2256.1679    123006.48    10.472245     1.256653 
  495900    -656.3754    73.020252   -583.35515    2215.3304    119931.33    10.472245    1.1257863 
  496000    -650.6041    75.933564   -574.67054    2303.7161    126694.11    10.472245     1.199855 
  496100   -653.30051    81.229885   -572.07063     2464.399    125942.43    10.472245    1.2052229 
  496200   -653.49331    80.620014   -572.87329    2445.8964     126872.2    10.472245    1.0838812 
  496300   -661.88977    78.168589   -583.72118    2371.5236    113914.26    10.472245    1.2537856 
  496400   -650.28267    80.826176    -569.4565     2452.151    130786.73    10.472245    1.1934315 
  496500   -645.83168    71.066513   -574.76517    2156.0568    132703.93    10.472245    1.2306063 
  496600   -655.87962    71.909262   -583.97036    2181.6245    121232.06    10.472245    1.2234217 
  496700   -660.21763    72.760793   -587.45684    2207.4588    114885.59    10.472245    1.1102378 
  496800   -650.78032    77.741867   -573.03845    2358.5775    127419.33    10.472245    1.1671987 
  496900   -650.19137    80.500674    -569.6907    2442.2757    130027.34    10.472245    1.1382039 
  497000   -659.52358    76.056025   -583.46756    2307.4314    116708.75    10.472245     1.130972 
  497100   -652.79116    78.740254   -574.05091    2388.8671    125503.62    10.472245    1.2582794 
  497200   -645.96309    74.769327   -571.19377    2268.3948    135175.82    10.472245    1.2040627 
  497300   -652.13729    76.752902   -575.38438    2328.5737     126655.7    10.472245    1.1464077 
  497400   -649.13383    75.209431    -573.9244     2281.747    130449.32    10.472245    1.2263586 
  497500   -651.90689    75.714967   -576.19192    2297.0842    124980.95    10.472245    1.1971549 
  497600   -655.96573    75.331523   -580.63421    2285.4511    121714.39    10.472245    1.1984482 
  497700   -646.35352    76.759857   -569.59366    2328.7847    131882.28    10.472245    1.1965936 
  497800   -655.97288    81.215395   -574.75748    2463.9594    122464.39    10.472245    1.2093413 
  497900   -657.28342    69.077031   -588.20639    2095.6987    117694.62    10.472245    1.0969996 
  498000   -653.34885      71.9545   -581.39435     2182.997    124250.13    10.472245    1.1755632 
  498100   -649.61883    75.436056   -574.18277    2288.6225    129609.91    10.472245    1.1884079 
  498200   -650.32824    77.004432   -573.32381    2336.2047    128993.58    10.472245    1.2286265 
  498300   -653.96068    73.456022   -580.50466     2228.551    123648.91    10.472245    1.1901677 
  498400   -641.54119    76.914707   -564.62648    2333.4826     139609.7    10.472245    1.4005417 
  498500   -643.26801    72.501156   -570.76685    2199.5818    136370.29    10.472245     1.328727 
  498600   -652.75443    79.344571   -573.40986    2407.2012     126988.2    10.472245    1.3399501 
  498700   -640.83284     83.62906   -557.20378    2537.1865    142127.76    10.472245    1.5688608 
  498800   -642.17586    75.348519   -566.82734    2285.9667     138462.9    10.472245    1.7476229 
  498900    -638.9041    83.258484   -555.64562    2525.9438    144682.25    10.472245    1.6520442 
  499000   -638.89653    78.824442   -560.07209    2391.4213    145108.02    10.472245    1.5461035 
  499100   -652.21136    82.165056    -570.0463    2492.7707    128177.85    10.472245    1.6971773 
  499200   -642.72048    69.627725   -573.09276     2112.406    137669.82    10.472245    1.7623249 
  499300   -641.27933    80.909989   -560.36934    2454.6938     139320.2    10.472245     1.836416 
  499400   -647.42492    75.535386   -571.88953     2291.636    134542.08    10.472245    1.7914725 
  499500   -650.80642    78.739291   -572.06713    2388.8379    128549.29    10.472245    1.8475301 
  499600   -643.10313    80.361543   -562.74158    2438.0547    139731.41    10.472245    1.8837832 
  499700   -642.79308    69.006265   -573.78682    2093.5517    137910.19    10.472245    1.9268318 
  499800   -644.47387    72.320796   -572.15307    2194.1099    135697.65    10.472245    2.0311266 
  499900   -647.45573    78.487304   -568.96842     2381.193    131832.24    10.472245    2.0933975 
  500000   -642.77574     71.12206   -571.65368     2157.742    138569.81    10.472245    2.1940663 
Loop time of 376.399 on 1 procs for 500000 steps with 256 atoms

Performance: 573.859 ns/day, 0.042 hours/ns, 1328.378 timesteps/s
100.0% CPU use with 1 MPI tasks x no OpenMP threads

MPI task timing breakdown:
Section |  min time  |  avg time  |  max time  |%varavg| %total
---------------------------------------------------------------
Pair    | 224.34     | 224.34     | 224.34     |   0.0 | 59.60
Neigh   | 18.399     | 18.399     | 18.399     |   0.0 |  4.89
Comm    | 4.0004     | 4.0004     | 4.0004     |   0.0 |  1.06
Output  | 0.13321    | 0.13321    | 0.13321    |   0.0 |  0.04
Modify  | 128.8      | 128.8      | 128.8      |   0.0 | 34.22
Other   |            | 0.725      |            |       |  0.19

Nlocal:    256 ave 256 max 256 min
Histogram: 1 0 0 0 0 0 0 0 0 0
Nghost:    1441 ave 1441 max 1441 min
Histogram: 1 0 0 0 0 0 0 0 0 0
Neighs:    13309 ave 13309 max 13309 min
Histogram: 1 0 0 0 0 0 0 0 0 0

Total # of neighbors = 13309
Ave neighs/atom = 51.9883
Neighbor list builds = 33070
Dangerous builds = 88
    
Total wall time: 0:06:16
