LAMMPS (3 Mar 2020)

    # ---------- Initialize simulation ---------------------
    units metal
    atom_style atomic
    dimension  3
    boundary   p p p
    read_data /home/modeler/RemLabs/Lab4/Problem2A_size_5/temp_2000/lammps.data
  orthogonal box = (0 0 0) to (20.45 20.45 20.45)
  1 by 1 by 1 MPI processor grid
  reading atoms ...
  500 atoms
  read_data CPU = 0.00115031 secs

    pair_style eam
    pair_coeff * * /usr/share/lammps-stable/potentials/Ag_u3.eam
Reading potential file /usr/share/lammps-stable/potentials/Ag_u3.eam with DATE: 2007-06-11

    velocity  all create 2000 87287 dist gaussian

    # ---------- Describe computed properties------------------
    compute msdall all msd
    thermo_style custom step pe ke etotal temp press density c_msdall[4]
    thermo 100

    # ---------- Specify ensemble  ---------------------
    #fix  1 all nve
    fix  1 all nvt temp 2000 2000 0.25

    # --------- Compute RDF ---------------
    compute rdfall all rdf 100 1 1
    fix 2 all ave/time 1 2500 2500 c_rdfall[*] file /home/modeler/RemLabs/Lab4/Problem2A_size_5/temp_2000/lammps.rdf mode vector

    # --------- Run -------------
    timestep 0.005
    run 10000
Neighbor list info ...
  update every 1 steps, delay 10 steps, check yes
  max neighbors/atom: 2000, page size: 100000
  master list distance cutoff = 7.55
  ghost atom cutoff = 7.55
  binsize = 3.775, bins = 6 6 6
  2 neighbor lists, perpetual/occasional/extra = 1 1 0
  (1) pair eam, perpetual
      attributes: half, newton on
      pair build: half/bin/atomonly/newton
      stencil: half/bin/3d/newton
      bin: standard
  (2) compute rdf, occasional, copy from (1)
      attributes: half, newton on
      pair build: copy
      stencil: none
      bin: none
Per MPI rank memory allocation (min/avg/max) = 3.769 | 3.769 | 3.769 Mbytes
Step PotEng KinEng TotEng Temp Press Density c_msdall[4] 
       0        -1425    129.00162   -1295.9984         2000    16111.381    10.472245            0 
     100   -1341.6342    81.870238   -1259.7639      1269.29    72060.314    10.472245   0.10324473 
     200   -1316.7964    114.34962   -1202.4468      1772.84    93444.877    10.472245   0.16672392 
     300   -1292.8408     138.7999   -1154.0409    2151.9094    111987.08    10.472245   0.17302124 
     400   -1289.6723    130.66414   -1159.0082    2025.7752    114062.51    10.472245   0.19928743 
     500   -1300.5677    123.09252   -1177.4752    1908.3871    105591.38    10.472245    0.1640916 
     600    -1301.229    140.07913   -1161.1498    2171.7421    106638.24    10.472245     0.170935 
     700   -1289.9313    130.46272   -1159.4686    2022.6524    113315.92    10.472245   0.19255167 
     800     -1303.34    130.45161   -1172.8883    2022.4802    103778.82    10.472245   0.17625408 
     900   -1292.4164    127.20189   -1165.2145    1972.0974    111203.18    10.472245   0.19605844 
    1000   -1292.4574    133.12072   -1159.3367    2063.8612    112345.24    10.472245   0.19341992 
    1100   -1298.0473    128.79896   -1169.2484     1996.858    107532.75    10.472245   0.19328545 
    1200   -1292.8332    125.55765   -1167.2755    1946.6058    110437.64    10.472245   0.21055202 
    1300   -1282.2707    124.95296   -1157.3178    1937.2308    118148.31    10.472245   0.25562032 
    1400   -1292.7887     132.9217    -1159.867    2060.7756    111440.19    10.472245   0.21082107 
    1500   -1302.6504    129.86286   -1172.7876    2013.3524    104279.46    10.472245    0.1923745 
    1600   -1288.6436    129.49603   -1159.1476     2007.665    115008.02    10.472245   0.19478018 
    1700   -1288.2336    126.49614   -1161.7375    1961.1558    113410.85    10.472245   0.20604517 
    1800   -1299.6278    125.72666   -1173.9012    1949.2259    105407.15    10.472245   0.19637205 
    1900   -1308.6244    119.65463   -1188.9697    1855.0872    99600.294    10.472245   0.15239121 
    2000    -1297.088    131.50685   -1165.5812    2038.8401    108180.16    10.472245   0.18414598 
    2100   -1290.3585    130.68268   -1159.6758    2026.0626    112978.21    10.472245   0.21166336 
    2200   -1295.7325    125.31316   -1170.4194    1942.8153    109233.89    10.472245   0.17451556 
    2300   -1296.0946    123.79869   -1172.2959    1919.3354    109625.15    10.472245    0.1660102 
    2400   -1289.8674    130.60177   -1159.2656    2024.8082    114029.01    10.472245   0.19562588 
    2500   -1298.7904    129.59283   -1169.1976    2009.1659    106969.25    10.472245   0.17353807 
    2600   -1307.6935    129.64173   -1178.0517     2009.924    100740.39    10.472245    0.1703831 
    2700   -1285.4602    126.55175   -1158.9085     1962.018    114786.63    10.472245   0.19594434 
    2800    -1300.081    129.40342   -1170.6776    2006.2293    106154.51    10.472245   0.18430869 
    2900   -1294.8659    131.87671   -1162.9892    2044.5744       109134    10.472245   0.18825082 
    3000    -1290.938    129.59021   -1161.3478    2009.1253    111361.63    10.472245   0.18913075 
    3100   -1297.7117    128.08427   -1169.6274    1985.7777    107249.18    10.472245   0.20996566 
    3200   -1288.8516    138.12469   -1150.7269    2141.4411    114269.52    10.472245   0.20738835 
    3300   -1294.2378     129.0217   -1165.2161    2000.3112    110373.99    10.472245   0.18520907 
    3400   -1298.5174    131.09107   -1167.4263    2032.3941    107740.54    10.472245   0.17954561 
    3500   -1285.9779    136.21729   -1149.7606    2111.8693    116178.01    10.472245   0.21112513 
    3600   -1285.7239    125.87059   -1159.8533    1951.4575    116182.49    10.472245   0.20599054 
    3700   -1298.0914     131.0361   -1167.0553    2031.5419    107389.06    10.472245   0.19483545 
    3800   -1289.0312    123.62199   -1165.4092    1916.5959    114549.15    10.472245   0.19028822 
    3900   -1285.6655    129.42443   -1156.2411    2006.5551    115756.06    10.472245   0.21959062 
    4000   -1299.1701    126.61698   -1172.5531    1963.0293    105908.99    10.472245   0.17985353 
    4100   -1287.9605    121.52829   -1166.4322    1884.1358     113508.7    10.472245   0.20724488 
    4200   -1293.0588      130.358   -1162.7008    2021.0288    111462.97    10.472245   0.19734345 
    4300   -1296.3651    130.70713    -1165.658    2026.4416    108426.27    10.472245   0.18976803 
    4400   -1291.1955    120.91338   -1170.2821    1874.6024    110860.95    10.472245    0.1975662 
    4500   -1291.8573    131.59648   -1160.2608    2040.2298    111759.87    10.472245   0.20115989 
    4600   -1292.7625    130.54641   -1162.2161    2023.9498    111309.41    10.472245   0.18834889 
    4700    -1295.682    124.63273   -1171.0493     1932.266    108693.85    10.472245   0.20487249 
    4800   -1293.8741    134.77933   -1159.0948    2089.5756    111033.88    10.472245   0.19856069 
    4900   -1297.0876    127.18098   -1169.9066    1971.7734     108316.2    10.472245    0.2130091 
    5000   -1299.4242    129.13309   -1170.2911    2002.0381    105966.35    10.472245   0.17199044 
    5100   -1287.9124    127.77205   -1160.1404    1980.9371    113878.81    10.472245   0.23174593 
    5200   -1290.0275    123.07633   -1166.9512    1908.1361    112865.57    10.472245   0.21542714 
    5300   -1297.9524    117.52891   -1180.4235    1822.1306    106517.95    10.472245   0.17986696 
    5400   -1290.3383    126.50527    -1163.833    1961.2973    111816.75    10.472245   0.18259449 
    5500   -1294.8788    128.17461   -1166.7042    1987.1783    109800.88    10.472245   0.20520431 
    5600   -1299.7093    123.53573   -1176.1736    1915.2585    106303.45    10.472245   0.18708073 
    5700   -1298.3069    140.15625   -1158.1506    2172.9378    107855.76    10.472245    0.1837783 
    5800   -1293.5472     125.8785   -1167.6687    1951.5801    109701.19    10.472245   0.17724244 
    5900   -1301.4544    130.25636    -1171.198    2019.4531    105363.91    10.472245   0.16965874 
    6000   -1292.3975    127.93842    -1164.459    1983.5164    110181.72    10.472245   0.20451489 
    6100   -1287.0928     132.1963   -1154.8965    2049.5293    115684.55    10.472245   0.20133904 
    6200   -1295.0211    127.52759   -1167.4935    1977.1471    109773.64    10.472245   0.18087355 
    6300     -1295.25    127.94103    -1167.309    1983.5569    109100.49    10.472245   0.19557366 
    6400   -1286.3262    129.91546   -1156.4108    2014.1678    116177.95    10.472245   0.20979084 
    6500    -1285.782    123.48364   -1162.2983    1914.4509    115137.23    10.472245   0.19863585 
    6600   -1298.2055    130.95573   -1167.2498    2030.2958    108693.61    10.472245   0.16413274 
    6700   -1308.0821    128.96565   -1179.1164    1999.4423    101216.73    10.472245   0.16377784 
    6800   -1290.8327    123.55869    -1167.274    1915.6145    110808.01    10.472245   0.20691828 
    6900   -1292.9983    132.19944   -1160.7989     2049.578    111639.23    10.472245    0.1785142 
    7000   -1292.4154    119.89217   -1172.5233      1858.77    110231.82    10.472245   0.20940438 
    7100    -1289.507     126.5646   -1162.9424    1962.2171    113552.22    10.472245   0.20442215 
    7200   -1290.7307    131.90187   -1158.8288    2044.9645    112434.96    10.472245   0.19284743 
    7300   -1294.1584    120.57249   -1173.5859    1869.3174    109135.48    10.472245   0.18407264 
    7400   -1295.9597     128.9723   -1166.9874    1999.5454    109441.96    10.472245   0.18985431 
    7500   -1292.5241    134.65966   -1157.8644    2087.7203    112712.25    10.472245    0.1871443 
    7600   -1298.8245    125.95037   -1172.8741    1952.6944    106655.18    10.472245   0.18821504 
    7700   -1285.5552    121.87996   -1163.6752     1889.588    116120.35    10.472245   0.21668467 
    7800   -1289.4005    130.00028   -1159.4003    2015.4828    113801.03    10.472245   0.21844378 
    7900   -1295.3831    128.52798   -1166.8551    1992.6568    109045.63    10.472245    0.1994069 
    8000   -1292.0679    124.65031   -1167.4176    1932.5386    109675.22    10.472245   0.18720221 
    8100   -1288.7844    128.94575   -1159.8386    1999.1338     113868.6    10.472245   0.23009988 
    8200   -1295.7357    137.27017   -1158.4655    2128.1929    110307.85    10.472245   0.19524969 
    8300   -1302.4724     130.4957   -1171.9767    2023.1636    104441.96    10.472245   0.18313225 
    8400   -1294.2147    130.71343   -1163.5013    2026.5392    110073.07    10.472245   0.16848113 
    8500   -1288.1645    141.14333   -1147.0212    2188.2411    116565.38    10.472245   0.17733828 
    8600   -1291.8524       129.45   -1162.4024    2006.9515    112037.85    10.472245   0.21677578 
    8700   -1292.9022    120.82781   -1172.0744    1873.2758    109971.02    10.472245   0.19798194 
    8800   -1298.1196    127.54401   -1170.5756    1977.4016     106585.2    10.472245   0.18540998 
    8900   -1292.0172     133.7941   -1158.2231     2074.301    112044.47    10.472245   0.21472156 
    9000   -1302.0322    131.69541   -1170.3368    2041.7636    104807.88    10.472245   0.16941851 
    9100    -1299.663     122.8233   -1176.8397    1904.2133    105598.39    10.472245   0.17349912 
    9200    -1291.706    131.28508   -1160.4209     2035.402    112173.61    10.472245   0.20096344 
    9300   -1301.6224    133.23218   -1168.3902    2065.5892    106015.01    10.472245    0.1723919 
    9400   -1301.4273    127.98667   -1173.4407    1984.2645    104172.42    10.472245   0.18762147 
    9500   -1288.3412    131.21305   -1157.1282    2034.2852    115119.12    10.472245   0.20462703 
    9600   -1301.5894    132.82816   -1168.7612    2059.3254    105835.09    10.472245   0.16274039 
    9700   -1296.9898    123.82426   -1173.1656    1919.7318    108037.58    10.472245   0.17798248 
    9800   -1282.3432    125.22275   -1157.1205    1941.4135     116581.7    10.472245   0.19861786 
    9900   -1299.6759    129.39369   -1170.2822    2006.0785    106585.37    10.472245   0.16894085 
   10000   -1293.2422    130.50692   -1162.7353    2023.3376    111059.49    10.472245    0.1806539 
Loop time of 14.6329 on 1 procs for 10000 steps with 500 atoms

Performance: 295.226 ns/day, 0.081 hours/ns, 683.394 timesteps/s
100.0% CPU use with 1 MPI tasks x no OpenMP threads

MPI task timing breakdown:
Section |  min time  |  avg time  |  max time  |%varavg| %total
---------------------------------------------------------------
Pair    | 8.7511     | 8.7511     | 8.7511     |   0.0 | 59.80
Neigh   | 0.70234    | 0.70234    | 0.70234    |   0.0 |  4.80
Comm    | 0.11845    | 0.11845    | 0.11845    |   0.0 |  0.81
Output  | 0.0037165  | 0.0037165  | 0.0037165  |   0.0 |  0.03
Modify  | 5.031      | 5.031      | 5.031      |   0.0 | 34.38
Other   |            | 0.02621    |            |       |  0.18

Nlocal:    500 ave 500 max 500 min
Histogram: 1 0 0 0 0 0 0 0 0 0
Nghost:    1960 ave 1960 max 1960 min
Histogram: 1 0 0 0 0 0 0 0 0 0
Neighs:    25739 ave 25739 max 25739 min
Histogram: 1 0 0 0 0 0 0 0 0 0

Total # of neighbors = 25739
Ave neighs/atom = 51.478
Neighbor list builds = 633
Dangerous builds = 0
    
Total wall time: 0:00:14
