LAMMPS (3 Mar 2020)

# ---------- 1. Initialize simulation ----------
units metal
atom_style atomic
dimension 3
boundary p p p
read_data /home/modeler/RemLabs/Project/eval_timestep_nve/n3_T1800_timestep5.644189e-04_steps26577/20201205-224342/lammps.data
  orthogonal box = (0 0 0) to (17.469 17.469 17.469)
  1 by 1 by 1 MPI processor grid
  reading atoms ...
  217 atoms
  read_data CPU = 0.000970663 secs

pair_style meam/c
pair_coeff * * library.meam Li Si LiSi.meam Li Si
Reading potential file library.meam with DATE: 2012-06-29
Reading potential file LiSi.meam with DATE: 2020-11-07

group Li type 1
1 atoms in group Li

velocity all create 1800 3320 dist gaussian

# ---------- 2. Describe computed properties----------
compute msdli Li msd
thermo_style custom step pe ke etotal temp press density c_msdli[4]
thermo 100

# ---------- 3. Specify ensemble  ----------
#fix 1 all npt temp 1800 1800 0.028220947292117233 tchain 2 iso 1.0 1.0 1.0 pchain 2
# fix 1 all nvt temp 1800 1800 0.028220947292117233
 fix 1 all nve

# ---------- 4. Run -------------
timestep 0.0005644189458423447
run 26577
Neighbor list info ...
  update every 1 steps, delay 10 steps, check yes
  max neighbors/atom: 2000, page size: 100000
  master list distance cutoff = 6
  ghost atom cutoff = 6
  binsize = 3, bins = 6 6 6
  2 neighbor lists, perpetual/occasional/extra = 2 0 0
  (1) pair meam/c, perpetual
      attributes: full, newton on
      pair build: full/bin/atomonly
      stencil: full/bin/3d
      bin: standard
  (2) pair meam/c, perpetual, half/full from (1)
      attributes: half, newton on
      pair build: halffull/newton
      stencil: none
      bin: none
Per MPI rank memory allocation (min/avg/max) = 9.27 | 9.27 | 9.27 Mbytes
Step PotEng KinEng TotEng Temp Press Density c_msdli[4] 
       0   -951.04357    50.256344   -900.78722         1800   -114161.75    1.8918427            0 
     100   -922.24706     21.46954   -900.77752    768.96107   -90813.053    1.8918427   0.14247273 
     200   -927.06093    26.282745   -900.77819    941.35261   -90068.844    1.8918427  0.041429136 
     300   -928.93375    28.153105   -900.78064    1008.3421   -94161.408    1.8918427  0.050248081 
     400   -925.64026    24.862319   -900.77794     890.4781   -90517.084    1.8918427  0.050586251 
     500   -927.05442    26.275012   -900.77941    941.07565   -90558.186    1.8918427   0.18671031 
     600     -928.558     27.77776   -900.78024    994.89862   -95077.045    1.8918427   0.10485328 
     700   -929.19417    28.414956   -900.77921    1017.7207   -93961.629    1.8918427  0.062292427 
     800   -924.14067    23.363266   -900.77741    836.78747   -90603.842    1.8918427   0.10149689 
     900   -928.97705    28.197616   -900.77943    1009.9363   -93608.522    1.8918427  0.085813187 
    1000   -928.33756    27.557706   -900.77986    987.01709   -94131.776    1.8918427   0.11724597 
    1100     -925.898    25.119488   -900.77851    899.68897   -90903.313    1.8918427   0.13977083 
    1200   -925.42498    24.646754   -900.77822    882.75735   -91690.877    1.8918427  0.053080917 
    1300   -927.07693    26.298204   -900.77873    941.90628   -93380.158    1.8918427 0.0099544908 
    1400   -928.44093    27.659879   -900.78106    990.67657   -94043.241    1.8918427  0.037604704 
    1500   -928.05708    27.278431   -900.77865    977.01449   -93061.971    1.8918427 0.0044572868 
    1600   -923.41535    22.637023   -900.77833    810.77609   -90592.002    1.8918427   0.23023722 
    1700   -928.64635    27.866678   -900.77967    998.08336   -92253.009    1.8918427   0.03609605 
    1800   -926.89099    26.111365   -900.77962    935.21438   -92501.689    1.8918427   0.18549861 
    1900   -926.23111    25.451651   -900.77946    911.58585   -91599.293    1.8918427  0.087628437 
    2000   -927.77175     26.99295    -900.7788    966.78957   -92911.672    1.8918427  0.028278569 
    2100   -927.24482    26.465375   -900.77944    947.89374   -92495.007    1.8918427  0.023644304 
    2200   -926.34757    25.568998   -900.77857    915.78877   -92062.362    1.8918427  0.064079336 
    2300   -924.62905    23.851754   -900.77729    854.28331   -89877.102    1.8918427  0.024649698 
    2400   -927.99162    27.211839   -900.77978    974.62941   -94837.401    1.8918427   0.03053356 
    2500   -925.58327    24.805929   -900.77734    888.45843   -91437.604    1.8918427  0.012541723 
    2600   -925.66373    24.884938   -900.77879    891.28823   -91990.589    1.8918427 0.0086683991 
    2700   -928.49647     27.71768   -900.77879    992.74677   -92958.476    1.8918427   0.16304216 
    2800   -926.17646    25.397564    -900.7789    909.64864   -92412.919    1.8918427  0.056583741 
    2900    -928.6748    27.895195    -900.7796    999.10474   -94339.008    1.8918427  0.089082306 
    3000   -926.89044    26.110948    -900.7795    935.19948    -93064.56    1.8918427 0.0092748235 
    3100   -925.51645    24.737856   -900.77859    886.02029   -92051.884    1.8918427 0.0042631854 
    3200   -928.63076    27.851111   -900.77965    997.52578   -94927.214    1.8918427  0.056601787 
    3300   -924.27683     23.49846   -900.77837    841.62962   -91553.234    1.8918427  0.043795963 
    3400   -927.17897    26.400553   -900.77842    945.57208   -92404.554    1.8918427  0.023415188 
    3500   -926.94366    26.164333   -900.77933    937.11153   -93280.222    1.8918427  0.095645096 
    3600   -927.30254    26.523604   -900.77894    949.97929   -92031.736    1.8918427  0.055826745 
    3700   -924.89753    24.119176   -900.77836     863.8614   -91593.683    1.8918427 0.0059793563 
    3800   -928.03657    27.256755   -900.77982     976.2381    -92656.82    1.8918427  0.053161319 
    3900   -926.27175     25.49216   -900.77959    913.03672    -91425.48    1.8918427  0.058841439 
    4000   -926.37712    25.597987   -900.77913    916.82705   -91340.798    1.8918427  0.096559429 
    4100   -927.82765    27.047698   -900.77995    968.75046   -93463.206    1.8918427 0.0045375511 
    4200   -926.70588    25.926765   -900.77912    928.60271   -91231.486    1.8918427  0.068428914 
    4300   -926.25446      25.4756   -900.77886    912.44359   -92096.573    1.8918427   0.16230589 
    4400   -926.33564    25.556468   -900.77917       915.34   -92183.695    1.8918427  0.026888577 
    4500   -925.69573    24.916892   -900.77884    892.43271    -91276.81    1.8918427   0.11625199 
    4600   -926.21744    25.439024   -900.77842    911.13358    -91717.51    1.8918427  0.021483507 
    4700   -927.57559    26.796511   -900.77908    959.75386   -92842.943    1.8918427   0.07900305 
    4800   -925.58121    24.803038   -900.77818    888.35487   -90977.251    1.8918427 0.0069723571 
    4900   -928.16265    27.383381   -900.77927    980.77338   -92470.393    1.8918427  0.086027289 
    5000   -926.00358    25.225327   -900.77825    903.47972   -91917.709    1.8918427  0.023106981 
    5100   -927.65467    26.875626   -900.77904    962.58747   -92614.593    1.8918427  0.042105021 
    5200   -925.09016    24.312076   -900.77809    870.77041   -91223.446    1.8918427  0.053780935 
    5300   -929.31054    28.530445   -900.78009    1021.8571   -94354.946    1.8918427  0.059658273 
    5400    -928.1777    27.397929   -900.77977    981.29445   -94067.591    1.8918427  0.054973198 
    5500   -926.05268    25.273811   -900.77887    905.21627   -91748.154    1.8918427   0.22623299 
    5600   -928.04449    27.265005   -900.77949     976.5336   -94146.227    1.8918427   0.17487984 
    5700   -928.85026    28.069814   -900.78044     1005.359   -94690.368    1.8918427  0.066838401 
    5800   -927.42699    26.647979   -900.77901    954.43396     -93162.5    1.8918427  0.035728163 
    5900   -926.38795    25.608742    -900.7792    917.21227   -92970.799    1.8918427  0.050712188 
    6000   -925.82234    25.044104   -900.77823      896.989   -92476.191    1.8918427  0.093875442 
    6100   -928.16733    27.387907   -900.77942    980.93549   -92868.754    1.8918427 0.0032981872 
    6200    -926.5117    25.732253   -900.77945    921.63597    -93958.18    1.8918427  0.035512312 
    6300   -928.58821    27.808651   -900.77955    996.00502   -94684.695    1.8918427  0.047176077 
    6400   -926.22707    25.448748   -900.77832    911.48185    -92258.93    1.8918427  0.015685371 
    6500   -926.43366    25.654586   -900.77907    918.85424   -92101.299    1.8918427  0.010984566 
    6600   -926.32588    25.547192   -900.77869    915.00777   -91566.399    1.8918427  0.068204508 
    6700   -925.85806     25.07969   -900.77837    898.26353    -91413.72    1.8918427  0.088538229 
    6800   -930.05833    29.277349   -900.78098    1048.6085   -95801.326    1.8918427  0.023545622 
    6900   -924.40354    23.625449   -900.77809     846.1779   -91617.925    1.8918427   0.03240639 
    7000   -927.70973    26.930096   -900.77963    964.53838   -92812.017    1.8918427  0.064052054 
    7100   -925.60907    24.830709   -900.77836    889.34595   -91734.644    1.8918427  0.091177233 
    7200   -927.32367    26.543714   -900.77995    950.69959   -93620.417    1.8918427  0.041908175 
    7300   -926.42859    25.649966   -900.77862    918.68876   -92201.128    1.8918427  0.033776585 
    7400   -926.42231    25.644124   -900.77819    918.47952   -91565.407    1.8918427   0.00543508 
    7500   -927.37058    26.590529   -900.78005     952.3763   -93352.842    1.8918427   0.11009688 
    7600   -926.95896    26.180174   -900.77878    937.67888   -93055.144    1.8918427 0.0074709049 
    7700   -927.02518    26.246203   -900.77897    940.04381   -93823.653    1.8918427  0.074576738 
    7800   -927.98139    27.202322   -900.77907    974.28852   -92677.424    1.8918427  0.033671566 
    7900   -924.91458    24.136514   -900.77807    864.48239   -91077.263    1.8918427  0.040759632 
    8000   -926.61976    25.840468   -900.77929    925.51184   -93006.508    1.8918427  0.033767194 
    8100   -927.31617    26.537938   -900.77824    950.49269   -93292.803    1.8918427  0.068681066 
    8200   -927.91677    27.137127   -900.77965    971.95349   -94686.493    1.8918427  0.036562321 
    8300   -926.05965    25.281535   -900.77811    905.49292   -92830.508    1.8918427  0.016850997 
    8400   -928.48525    27.705512   -900.77973    992.31095   -94454.645    1.8918427  0.052726359 
    8500    -927.9747    27.194699      -900.78     974.0155   -92974.226    1.8918427  0.082165239 
    8600   -926.08245    25.303431   -900.77902    906.27713   -93288.883    1.8918427   0.20307816 
    8700   -926.13082     25.35291   -900.77791    908.04929   -91394.559    1.8918427  0.071408362 
    8800   -928.25256    27.472839   -900.77972    983.97746   -94424.861    1.8918427  0.062492859 
    8900   -927.51064    26.731762   -900.77888    957.43476   -94902.722    1.8918427   0.06304963 
    9000   -925.31513    24.536604   -900.77853    878.81217   -92599.771    1.8918427  0.010035135 
    9100   -928.49668    27.717593   -900.77909    992.74365   -93787.567    1.8918427  0.071866153 
    9200   -926.21823    25.439159   -900.77907    911.13844    -93223.67    1.8918427  0.033799033 
    9300   -928.30834    27.529751   -900.77859    986.01583   -93570.021    1.8918427  0.077513238 
    9400   -925.59541    24.816976   -900.77844    888.85407   -93329.359    1.8918427   0.32418717 
    9500   -928.65525    27.875339   -900.77991    998.39355   -94939.894    1.8918427  0.064709107 
    9600   -926.79543     26.01613    -900.7793    931.80344   -93370.589    1.8918427   0.14915008 
    9700   -925.70519    24.927453   -900.77773    892.81095    -92821.15    1.8918427   0.05132729 
    9800   -927.10303    26.323295   -900.77974    942.80498   -94181.111    1.8918427  0.048727745 
    9900   -927.02944    26.251304   -900.77814    940.22653   -92485.911    1.8918427 0.0082471046 
   10000   -925.69526    24.917349   -900.77792    892.44909   -91804.903    1.8918427   0.18872917 
   10100   -927.54178    26.762913   -900.77886    958.55049    -94555.94    1.8918427  0.052862496 
   10200   -928.95897     28.17981   -900.77916    1009.2986   -94507.449    1.8918427  0.032034866 
   10300   -926.08478    25.305903   -900.77888    906.36568   -92237.389    1.8918427  0.013341294 
   10400    -926.1522    25.373465   -900.77873    908.78549   -92813.974    1.8918427  0.077589568 
   10500    -927.2907    26.511671   -900.77903    949.55192   -94309.246    1.8918427  0.012339128 
   10600    -926.2294    25.450491   -900.77891    911.54427   -92663.689    1.8918427   0.10802983 
   10700   -926.17049    25.391312   -900.77918    909.42473   -93195.595    1.8918427  0.005614648 
   10800   -927.54771    26.768429   -900.77928    958.74804   -94024.683    1.8918427   0.13998653 
   10900   -928.98626    28.206489   -900.77977    1010.2541   -96457.129    1.8918427    0.1662363 
   11000   -925.49636    24.718882   -900.77748    885.34071   -92061.583    1.8918427  0.024805261 
   11100   -927.01553    26.236721   -900.77881    939.70421   -93875.815    1.8918427   0.18046984 
   11200   -927.03539    26.256596    -900.7788    940.41604   -93067.926    1.8918427   0.13814367 
   11300   -925.96722    25.189327    -900.7779    902.19035   -92236.802    1.8918427  0.035958248 
   11400   -925.64255    24.864954    -900.7776    890.57249   -92931.349    1.8918427   0.10225352 
   11500   -926.54481    25.765989   -900.77882    922.84427   -93314.066    1.8918427  0.030931939 
   11600   -926.92289    26.144578   -900.77831    936.40399   -93940.693    1.8918427  0.028021917 
   11700   -926.62316    25.844358    -900.7788    925.65119   -94367.116    1.8918427  0.045116189 
   11800   -928.18063    27.401327    -900.7793    981.41617   -94812.538    1.8918427  0.043677683 
   11900   -925.84083    25.062828   -900.77801     897.6596   -93206.395    1.8918427   0.25789332 
   12000   -926.14945    25.371613   -900.77784    908.71917   -92675.532    1.8918427  0.054036498 
   12100   -925.76399    24.985654   -900.77834     894.8955   -94113.122    1.8918427   0.13475941 
   12200   -927.28126    26.502343   -900.77892    949.21781   -92906.229    1.8918427  0.024405587 
   12300   -925.27727    24.499113   -900.77815    877.46937   -92224.268    1.8918427  0.016712228 
   12400   -926.25727    25.478395   -900.77887    912.54372   -94083.464    1.8918427  0.042747493 
   12500   -926.69013    25.911631   -900.77849    928.06067   -94654.683    1.8918427  0.067008381 
   12600   -927.28463    26.505887   -900.77874    949.34475   -94023.471    1.8918427  0.075537929 
   12700   -927.55576    26.776827   -900.77893    959.04883   -94229.436    1.8918427   0.10148599 
   12800   -926.58044    25.801692   -900.77875    924.12302   -93847.583    1.8918427  0.054874693 
   12900   -926.97908    26.200686   -900.77839    938.41356   -92845.475    1.8918427   0.23118515 
   13000   -925.89497    25.116596   -900.77837    899.58539   -93720.199    1.8918427   0.19376724 
   13100   -928.33047    27.551303   -900.77917    986.78775   -94442.446    1.8918427  0.031993049 
   13200   -925.81073    25.032222   -900.77851     896.5634   -94497.977    1.8918427   0.02678514 
   13300   -928.22025    27.441095   -900.77915    982.84052   -94739.539    1.8918427  0.046327822 
   13400   -926.27559    25.496332   -900.77925    913.18614   -95722.303    1.8918427  0.032018407 
   13500     -926.851    26.071989   -900.77901    933.80411   -93418.247    1.8918427  0.060987983 
   13600    -927.1335    26.355655   -900.77785      943.964   -94341.179    1.8918427   0.10838182 
   13700     -925.962    25.184555   -900.77745    902.01942   -93879.009    1.8918427  0.029615848 
   13800   -926.95342    26.174644   -900.77878    937.48084   -94172.372    1.8918427   0.10715129 
   13900   -926.59642    25.818748   -900.77767    924.73394   -93523.352    1.8918427  0.070100002 
   14000   -927.41809    26.639324   -900.77877    954.12396    -94434.73    1.8918427  0.050185817 
   14100   -926.12502    25.346455   -900.77857     907.8181   -93564.911    1.8918427  0.048397076 
   14200   -927.27259    26.493916   -900.77867    948.91599   -96397.553    1.8918427  0.087947296 
   14300    -925.1573    24.379976   -900.77732    873.20234   -92376.917    1.8918427  0.052651227 
   14400   -927.17589    26.396823   -900.77907    945.43846   -94111.824    1.8918427   0.22109149 
   14500    -926.6262    25.847696    -900.7785    925.77072   -93336.338    1.8918427   0.17658425 
   14600   -927.10948    26.330242   -900.77924    943.05378   -95425.177    1.8918427   0.06043141 
   14700   -926.94312    26.164288   -900.77883    937.10993   -94887.354    1.8918427  0.039499432 
   14800   -925.90133    25.122877   -900.77845    899.81035   -93376.812    1.8918427  0.083542074 
   14900   -927.42073    26.642493   -900.77824    954.23747   -95333.139    1.8918427  0.068206352 
   15000   -928.16328    27.384081   -900.77919    980.79849   -95849.967    1.8918427  0.044812225 
   15100   -927.35519    26.575759   -900.77944     951.8473   -95752.607    1.8918427   0.16125384 
   15200   -925.39622    24.617845   -900.77837    881.72193   -93714.021    1.8918427  0.051169433 
   15300   -924.19246    23.415173   -900.77728    838.64657   -92046.564    1.8918427   0.26080317 
   15400   -928.13177    27.352387   -900.77939    979.66329   -95411.329    1.8918427  0.042185112 
   15500   -925.91723    25.139337   -900.77789    900.39989   -94294.416    1.8918427  0.023523518 
   15600   -927.06046    26.282459     -900.778    941.34238   -93710.263    1.8918427    0.1592846 
   15700   -925.15328    24.374006   -900.77927    872.98849   -94170.437    1.8918427  0.056680307 
   15800   -929.25471    28.474685   -900.78002      1019.86    -95468.22    1.8918427  0.073850719 
   15900   -925.36828    24.589954   -900.77833    880.72298   -92502.641    1.8918427   0.03656335 
   16000   -926.98069    26.201416   -900.77927    938.43971   -94031.035    1.8918427  0.029157752 
   16100   -928.56601    27.786872   -900.77914    995.22497   -95190.103    1.8918427  0.085212838 
   16200   -926.48087    25.702095   -900.77878    920.55584   -93560.754    1.8918427   0.13516197 
   16300   -928.62958    27.850563   -900.77902    997.50617   -94906.522    1.8918427   0.12122492 
   16400   -927.63141    26.852306   -900.77911    961.75223   -95182.553    1.8918427  0.063801342 
   16500   -924.84437    24.066885   -900.77749    861.98854   -91813.498    1.8918427   0.10765352 
   16600   -925.43845     24.66077   -900.77768    883.25936   -93468.175    1.8918427   0.26609431 
   16700    -927.2398    26.461362   -900.77844    947.75004   -93895.875    1.8918427   0.17265747 
   16800   -925.66972    24.891299   -900.77842    891.51605   -93621.378    1.8918427   0.16341913 
   16900   -927.66546    26.886721   -900.77874    962.98483   -94797.959    1.8918427  0.026421027 
   17000   -926.13497    25.355733   -900.77924    908.15039   -94350.865    1.8918427  0.088304413 
   17100   -926.40468    25.626577    -900.7781    917.85105   -93876.203    1.8918427   0.20436825 
   17200   -926.04419    25.265657   -900.77853     904.9242   -94060.107    1.8918427   0.11972065 
   17300   -926.70722    25.928665   -900.77855    928.67075   -93684.263    1.8918427 0.0065206821 
   17400   -925.07015    24.292817   -900.77733    870.08062   -91966.005    1.8918427  0.015049927 
   17500   -925.46503    24.686621   -900.77841    884.18524   -94151.222    1.8918427   0.24219996 
   17600   -926.37026    25.592465    -900.7778    916.62929   -94073.809    1.8918427   0.20428544 
   17700   -924.82251    24.045315   -900.77719    861.21598   -93168.717    1.8918427   0.28546924 
   17800   -928.01189    27.233076   -900.77881    975.39003   -95633.786    1.8918427   0.15702137 
   17900   -926.59019    25.811403   -900.77879    924.47086   -94774.161    1.8918427  0.051559094 
   18000   -925.18336     24.40579   -900.77757    874.12689     -92725.5    1.8918427  0.056142023 
   18100   -928.31297    27.533616   -900.77936    986.15427   -95549.714    1.8918427  0.016355723 
   18200   -925.34654    24.567761   -900.77878    879.92811   -92997.044    1.8918427 0.0091222631 
   18300   -927.42634    26.647998   -900.77834    954.43463   -94540.443    1.8918427  0.073348175 
   18400   -926.26046     25.48214   -900.77832    912.67786   -92950.098    1.8918427  0.063051009 
   18500   -925.25257    24.474418   -900.77816    876.58489   -92872.323    1.8918427  0.090357652 
   18600   -928.40687    27.627801   -900.77906    989.52763   -95844.602    1.8918427  0.075850924 
   18700   -924.95947    24.181953   -900.77752    866.10987    -92575.11    1.8918427  0.041935909 
   18800   -926.00342    25.225403   -900.77802    903.48245   -93216.045    1.8918427  0.015350696 
   18900   -927.14247    26.363992   -900.77847    944.26258    -94434.15    1.8918427 0.0083783501 
   19000   -925.86502    25.086762   -900.77825    898.51684   -92882.235    1.8918427   0.11495543 
   19100   -926.73401    25.955319   -900.77869    929.62541   -94253.399    1.8918427  0.052310251 
   19200   -926.10462    25.326459   -900.77816    907.10192   -92899.632    1.8918427  0.025374132 
   19300   -926.61269    25.834215   -900.77848     925.2879   -93496.438    1.8918427   0.11997099 
   19400   -926.58711     25.80852   -900.77859    924.36759   -93825.864    1.8918427  0.024381721 
   19500   -925.92269    25.144011   -900.77868    900.56727   -94554.975    1.8918427   0.10285096 
   19600     -928.559    27.780544   -900.77845    994.99833   -95445.605    1.8918427   0.06830705 
   19700   -927.71524    26.936321   -900.77892    964.76133     -94291.2    1.8918427  0.072361151 
   19800     -926.569    25.790443   -900.77855    923.72014    -94193.83    1.8918427   0.44035056 
   19900   -928.45891    27.680349   -900.77856    991.40972   -94767.826    1.8918427   0.16252649 
   20000   -925.57001    24.791339   -900.77868    887.93585   -92475.828    1.8918427  0.081911506 
   20100   -926.83688    26.058819   -900.77806    933.33239    -94072.36    1.8918427  0.043363891 
   20200    -925.6218    24.843108   -900.77869    889.79005   -92979.816    1.8918427  0.038493131 
   20300    -927.0579    26.279277   -900.77863    941.22841   -93351.152    1.8918427 0.0067394479 
   20400    -927.8403    27.060878   -900.77942    969.22251   -94407.562    1.8918427  0.084752817 
   20500    -926.6164     25.83703   -900.77937    925.38871   -93416.487    1.8918427  0.024822588 
   20600   -927.62974     26.85122   -900.77852    961.71332   -94643.048    1.8918427  0.084321123 
   20700   -928.37568    27.596826   -900.77885    988.41824   -95636.084    1.8918427  0.028289257 
   20800   -926.69795    25.919851    -900.7781    928.35507   -94046.178    1.8918427   0.17988674 
   20900   -926.52914    25.750289   -900.77885    922.28196   -93018.264    1.8918427  0.010744953 
   21000   -927.37503    26.596067   -900.77896    952.57467   -94370.726    1.8918427  0.099677462 
   21100   -926.14004    25.362039     -900.778    908.37626   -93661.384    1.8918427   0.10298266 
   21200   -926.81683    26.038373   -900.77845    932.60008   -93445.694    1.8918427   0.28642958 
   21300   -926.74415    25.965863   -900.77829    930.00305   -93623.632    1.8918427  0.052798172 
   21400   -928.39973    27.620544   -900.77918    989.26772   -95662.946    1.8918427  0.041829016 
   21500   -926.11131    25.333023   -900.77828    907.33701   -94515.992    1.8918427  0.021180373 
   21600    -927.1496    26.371429   -900.77817    944.52895   -94649.314    1.8918427  0.048789962 
   21700   -927.85105    27.072731   -900.77832    969.64704   -94792.724    1.8918427  0.094743981 
   21800   -925.28228    24.504334   -900.77795    877.65636   -92956.105    1.8918427  0.054752224 
   21900   -927.85916    27.080413   -900.77875    969.92219   -93865.158    1.8918427  0.032976685 
   22000   -926.25173    25.473763   -900.77797    912.37781   -93736.107    1.8918427   0.13900606 
   22100   -927.21003    26.430202   -900.77983      946.634   -94437.132    1.8918427    0.0696818 
   22200   -927.14561    26.367035   -900.77857    944.37158   -94078.714    1.8918427  0.073084672 
   22300   -927.83602    27.057244   -900.77878    969.09235   -94818.879    1.8918427   0.10923966 
   22400   -926.12473    25.347069   -900.77766    907.84009   -93341.501    1.8918427   0.04980312 
   22500   -926.36623    25.587126   -900.77911    916.43806   -94890.793    1.8918427  0.065712623 
   22600   -926.85196    26.073648   -900.77832    933.86352   -93363.558    1.8918427  0.023775135 
   22700   -926.73038    25.951386     -900.779    929.48454   -93912.843    1.8918427  0.052671345 
   22800   -925.47692    24.698232   -900.77869     884.6011   -91667.297    1.8918427  0.099584498 
   22900   -926.30992    25.530604   -900.77931    914.41365   -92599.497    1.8918427  0.032800002 
   23000   -926.32615     25.54718   -900.77897    915.00736   -92844.787    1.8918427   0.20374894 
   23100    -927.5095    26.730739   -900.77876    957.39813   -95082.853    1.8918427   0.13634159 
   23200   -927.01609    26.237063   -900.77903    939.71647    -94550.45    1.8918427  0.011293649 
   23300   -927.03484    26.255559   -900.77928    940.37889   -93323.187    1.8918427  0.050659829 
   23400    -927.2728    26.493905    -900.7789    948.91561   -94884.304    1.8918427  0.094505494 
   23500   -926.98725    26.208394   -900.77885    938.68962   -95383.118    1.8918427  0.045425227 
   23600   -926.59457    25.815231   -900.77934    924.60796   -92164.417    1.8918427  0.016588338 
   23700    -927.2695    26.490807    -900.7787    948.80463   -93395.475    1.8918427  0.011119935 
   23800   -926.08471    25.306167   -900.77855    906.37513   -94015.613    1.8918427  0.045983873 
   23900   -927.03581    26.256914   -900.77889    940.42746   -93343.189    1.8918427 0.0016064156 
   24000   -926.94955    26.170643   -900.77891    937.33754   -93924.198    1.8918427  0.039702339 
   24100   -927.77558    26.996611   -900.77897    966.92069    -94136.39    1.8918427 0.0045329625 
   24200   -926.12285    25.343823   -900.77903    907.72382   -94469.422    1.8918427  0.052465753 
   24300   -926.41115    25.632657    -900.7785     918.0688   -93365.041    1.8918427  0.055382657 
   24400   -926.56224    25.783612   -900.77863    923.47549   -93293.753    1.8918427 0.0082199321 
   24500   -927.23149    26.451472   -900.78002     947.3958   -95175.983    1.8918427  0.038710942 
   24600   -927.32788    26.548982    -900.7789    950.88826   -93318.292    1.8918427   0.03993541 
   24700   -924.72859    23.950571   -900.77802    857.82258   -91256.721    1.8918427  0.033191948 
   24800   -927.12266    26.343368   -900.77929    943.52392   -94899.019    1.8918427  0.057170545 
   24900   -928.13746    27.358358    -900.7791    979.87718   -93649.962    1.8918427   0.14798742 
   25000   -925.00675    24.228508   -900.77824    867.77729   -92956.692    1.8918427  0.022026628 
   25100   -927.51254    26.733971   -900.77857    957.51389   -93493.191    1.8918427  0.053824784 
   25200   -925.86958    25.091337   -900.77824     898.6807   -93668.164    1.8918427  0.025826642 
   25300   -925.87115    25.093296   -900.77785    898.75085   -92141.165    1.8918427   0.06382836 
   25400   -927.02915    26.250154   -900.77899     940.1853   -94310.171    1.8918427   0.02101171 
   25500   -926.52407    25.745285   -900.77879    922.10274   -94009.366    1.8918427  0.071546532 
   25600   -927.54913    26.769887   -900.77924    958.80027   -94224.595    1.8918427   0.09274109 
   25700   -926.78085    26.001887   -900.77896    931.29331   -94377.716    1.8918427   0.10900827 
   25800   -926.16321    25.384851   -900.77836     909.1933   -92009.167    1.8918427   0.10219333 
   25900   -924.96249    24.184739   -900.77775    866.20963   -92206.962    1.8918427   0.23274873 
   26000   -926.11356    25.335027   -900.77854    907.40878   -91904.922    1.8918427  0.046717884 
   26100   -926.59039    25.812044   -900.77835    924.49379   -92170.664    1.8918427   0.36223192 
   26200    -926.2937    25.514626   -900.77908    913.84137   -93477.301    1.8918427   0.16019406 
   26300   -927.29649    26.517988    -900.7785    949.77815    -93473.67    1.8918427  0.051299913 
   26400   -925.48454    24.706019   -900.77852    884.88002    -93094.62    1.8918427  0.013344899 
   26500   -926.79812    26.019178   -900.77895    931.91259   -93560.151    1.8918427  0.017429518 
   26577   -927.09267     26.31405   -900.77862    942.47385   -93733.693    1.8918427   0.10751144 
Loop time of 14.0444 on 1 procs for 26577 steps with 217 atoms

Performance: 92.283 ns/day, 0.260 hours/ns, 1892.362 timesteps/s
100.0% CPU use with 1 MPI tasks x no OpenMP threads

MPI task timing breakdown:
Section |  min time  |  avg time  |  max time  |%varavg| %total
---------------------------------------------------------------
Pair    | 13.831     | 13.831     | 13.831     |   0.0 | 98.48
Neigh   | 0.003835   | 0.003835   | 0.003835   |   0.0 |  0.03
Comm    | 0.10775    | 0.10775    | 0.10775    |   0.0 |  0.77
Output  | 0.0073056  | 0.0073056  | 0.0073056  |   0.0 |  0.05
Modify  | 0.057735   | 0.057735   | 0.057735   |   0.0 |  0.41
Other   |            | 0.03638    |            |       |  0.26

Nlocal:    217 ave 217 max 217 min
Histogram: 1 0 0 0 0 0 0 0 0 0
Nghost:    918 ave 918 max 918 min
Histogram: 1 0 0 0 0 0 0 0 0 0
Neighs:    3604 ave 3604 max 3604 min
Histogram: 1 0 0 0 0 0 0 0 0 0
FullNghs:  7208 ave 7208 max 7208 min
Histogram: 1 0 0 0 0 0 0 0 0 0

Total # of neighbors = 7208
Ave neighs/atom = 33.2166
Neighbor list builds = 7
Dangerous builds = 0
Total wall time: 0:00:14
