LAMMPS (3 Mar 2020)
Reading data file ...
  orthogonal box = (0 0 0) to (12.27 12.27 12.27)
  1 by 1 by 1 MPI processor grid
  reading atoms ...
  108 atoms
  read_data CPU = 0.000855953 secs
Reading potential file /usr/share/lammps-stable/potentials/Ag_u3.eam with DATE: 2007-06-11
Neighbor list info ...
  update every 1 steps, delay 10 steps, check yes
  max neighbors/atom: 2000, page size: 100000
  master list distance cutoff = 7.55
  ghost atom cutoff = 7.55
  binsize = 3.775, bins = 4 4 4
  2 neighbor lists, perpetual/occasional/extra = 1 1 0
  (1) pair eam, perpetual
      attributes: half, newton on
      pair build: half/bin/atomonly/newton
      stencil: half/bin/3d/newton
      bin: standard
  (2) compute rdf, occasional, copy from (1)
      attributes: half, newton on
      pair build: copy
      stencil: none
      bin: none
Setting up Verlet run ...
  Unit style    : metal
  Current step  : 0
  Time step     : 0.001
Per MPI rank memory allocation (min/avg/max) = 3.723 | 3.723 | 3.723 Mbytes
Step PotEng KinEng TotEng Temp Press Density c_msdall[4] 
       0       -307.8     4.287559   -303.51244          310    2479.0503    10.472245            0 
     100   -305.11891     2.608404   -302.51051    188.59338     10575.18    10.472245  0.016495456 
     200   -304.41997    4.5705506   -299.84942    330.46092    14599.056    10.472245  0.017299402 
     300   -303.77814    5.8866951   -297.89145    425.62108    17529.955    10.472245  0.018581396 
     400   -303.93912    4.5576738   -299.38145     329.5299    16192.371    10.472245  0.021225973 
     500   -303.94386    4.7475147   -299.19635    343.25581    16589.495    10.472245  0.016959689 
     600   -303.25577    3.1892132   -300.06656    230.58717    17785.838    10.472245  0.021756435 
     700   -303.27724    4.4609958   -298.81625    322.53987    18743.946    10.472245  0.020848253 
     800   -303.93353    4.6960258   -299.23751    339.53305    16482.501    10.472245  0.017969968 
     900   -303.29323    3.6677791   -299.62545    265.18854    17961.779    10.472245  0.021416878 
    1000   -303.29514    3.8033269   -299.49181    274.98895    18370.131    10.472245  0.021348474 
    1100   -304.22804    5.2935341    -298.9345    382.73422    15739.708    10.472245  0.017935104 
    1200   -303.48997    4.4622168   -299.02775    322.62815    17591.246    10.472245  0.022842319 
    1300    -303.7692    4.5730502   -299.19615    330.64164    16962.492    10.472245  0.018566661 
    1400   -304.17628    4.3756863    -299.8006     316.3718    15450.173    10.472245  0.016622765 
    1500   -303.64487    4.1801315   -299.46474    302.23275    17107.766    10.472245  0.020414961 
    1600   -303.67819    5.0108786   -298.66731    362.29761    17369.036    10.472245  0.019208514 
    1700   -303.72061    4.4658689   -299.25474     322.8922    16939.224    10.472245  0.018652176 
    1800   -303.85907    3.6217665    -300.2373    261.86173    16056.328    10.472245  0.019350499 
    1900   -303.73102    4.4146017   -299.31642    319.18546     17189.59    10.472245  0.017273975 
    2000   -303.52764     4.263665   -299.26398    308.27241    17559.393    10.472245   0.02047037 
    2100   -303.25962    4.7298437   -298.52978    341.97816    18819.966    10.472245  0.022331932 
    2200   -303.86888     4.725237   -299.14364    341.64509    16783.069    10.472245  0.018091579 
    2300   -303.80049    3.8779001   -299.92259    280.38076    16381.602    10.472245  0.018430389 
    2400   -303.28454     4.268895   -299.01564    308.65055    18729.175    10.472245  0.019329721 
    2500   -303.43599    3.9578839    -299.4781    286.16376    17669.068    10.472245  0.020139671 
    2600    -303.8051    4.3588077   -299.44629    315.15144    16865.701    10.472245    0.0171448 
    2700   -303.88741    4.4584087     -299.429    322.35281    16688.536    10.472245   0.01707867 
    2800   -303.56305    4.5430287   -299.02002    328.47102    17592.228    10.472245  0.019469475 
    2900   -303.09035    4.2144388   -298.87591    304.71325    19105.712    10.472245  0.020214115 
    3000   -303.96442    4.4864706   -299.47795    324.38175    16196.718    10.472245  0.018279571 
    3100   -303.66915    4.7530366   -298.91611    343.65506    17496.343    10.472245  0.018320583 
    3200   -303.60854    3.9442327    -299.6643    285.17675    17093.968    10.472245  0.019248159 
    3300    -304.0043    4.7587365   -299.24557    344.06718    16271.509    10.472245  0.017210853 
    3400    -303.6741     4.623119   -299.05098    334.26173    17215.387    10.472245  0.019340139 
    3500   -303.45672    4.2487234     -299.208     307.1921    17821.962    10.472245  0.020664495 
    3600   -303.63241    3.8685811   -299.76383    279.70697    17043.011    10.472245  0.019054942 
    3700   -303.84202    3.9684142   -299.87361    286.92512    16227.698    10.472245  0.018125489 
    3800   -303.61839    4.7930673   -298.82533    346.54937    17429.151    10.472245  0.021088131 
    3900   -303.68361    4.9007741   -298.78284    354.33681    17543.549    10.472245  0.020135122 
    4000   -303.88188    4.0275099   -299.85437    291.19788     16079.79    10.472245  0.017694633 
    4100   -303.68846    4.0053266   -299.68313    289.59397    16927.128    10.472245  0.019315206 
    4200    -303.7435    4.5557983    -299.1877    329.39429    17025.472    10.472245  0.020210831 
    4300   -303.55739    4.4671469   -299.09024     322.9846    17638.465    10.472245  0.019656687 
    4400   -303.32257     4.186596   -299.13597    302.70015    18173.323    10.472245  0.021529469 
    4500     -303.818    4.1448093   -299.67319    299.67888    16629.829    10.472245  0.020050143 
    4600   -303.17867     4.685298   -298.49337    338.75741    19042.433    10.472245  0.021885814 
    4700   -303.32752    3.7524784   -299.57505    271.31249      18105.4    10.472245  0.024724554 
    4800   -303.60168    4.1044861   -299.49719    296.76342    17318.206    10.472245  0.018561031 
    4900   -303.87718    4.0771345   -299.80004    294.78584    16303.327    10.472245  0.020575635 
    5000   -303.87833    4.2355793   -299.64275    306.24175    16349.445    10.472245  0.020895849 
    5100   -303.76045    4.4536817   -299.30676    322.01104    17093.013    10.472245  0.018578889 
    5200   -303.25197    3.8391402   -299.41283    277.57833    18109.637    10.472245   0.02349332 
    5300   -302.92674    4.1032813   -298.82346    296.67632    19878.942    10.472245  0.024329161 
    5400    -303.4935    4.4434862   -299.05001    321.27388    17984.588    10.472245  0.020920611 
    5500   -303.60776     3.826476   -299.78129    276.66268    17171.903    10.472245  0.019947683 
    5600   -303.16048    4.3441041   -298.81637    314.08833    19208.999    10.472245  0.020126837 
    5700    -303.3658    3.3836176   -299.98218    244.64304    17624.729    10.472245  0.022475912 
    5800   -303.80543    4.3070604   -299.49837    311.40999    16799.556    10.472245  0.018780412 
    5900   -303.43895      4.90227   -298.53668    354.44496    18212.714    10.472245  0.020947977 
    6000   -303.19473    4.1177611   -299.07697    297.72324    18845.311    10.472245  0.023183173 
    6100   -303.99936    4.4334095   -299.56595    320.54531    16252.945    10.472245  0.018110446 
    6200   -303.87931    4.0749136    -299.8044    294.62527    16353.753    10.472245   0.01900434 
    6300   -303.39701    4.5818383   -298.81517    331.27704    18444.058    10.472245  0.019182563 
    6400    -303.2571    3.6311354   -299.62596    262.53912    18292.899    10.472245  0.021934302 
    6500   -303.50222      4.16562    -299.3366    301.18354    17856.005    10.472245  0.019747069 
    6600    -303.5006    4.7488139   -298.75179    343.34975     18310.06    10.472245   0.02042992 
    6700   -303.04414    4.3173353   -298.72681    312.15289    19518.333    10.472245  0.023265828 
    6800   -303.88614    4.2260822   -299.66006    305.55509    16360.859    10.472245  0.016883365 
    6900   -303.84129    4.1167017   -299.72459    297.64664     16432.65    10.472245  0.018093058 
    7000   -303.17356    4.3782477   -298.79531    316.55699    18987.711    10.472245  0.021843843 
    7100   -303.45685    4.4049112   -299.05194    318.48483     18081.39    10.472245  0.020434836 
    7200   -303.91416    3.8061696   -300.10799    275.19448      15997.2    10.472245  0.018322227 
    7300     -303.522    3.9034111   -299.61859    282.22526    17447.313    10.472245  0.019201003 
    7400   -303.28001    4.1531035   -299.12691    300.27857    18493.088    10.472245  0.021673049 
    7500   -303.03536     4.616087   -298.41927     333.7533    19646.462    10.472245  0.021991722 
    7600    -303.4697    4.1657193   -299.30398    301.19072    18021.965    10.472245  0.021734186 
    7700   -303.75103    4.3408323    -299.4102    313.85178    16926.643    10.472245  0.019515269 
    7800   -303.52726    4.7242747   -298.80299    341.57551     18061.49    10.472245  0.020339109 
    7900   -303.31582    4.5474859   -298.76833    328.79329    18537.768    10.472245  0.021253615 
    8000   -303.87102    4.0584121   -299.81261    293.43217    16495.819    10.472245  0.018453221 
    8100   -303.62082    4.5257929   -299.09503    327.22483     17634.09    10.472245  0.019534792 
    8200    -302.4763    4.6822908   -297.79401    338.53998     21931.35    10.472245  0.026259307 
    8300   -303.26202    4.2798946   -298.98213    309.44584    18772.815    10.472245  0.022270934 
    8400    -303.6679    3.7311185   -299.93678    269.76812     17031.71    10.472245  0.017352805 
    8500   -303.35571    3.9716668   -299.38404    287.16029    18192.423    10.472245  0.019775538 
    8600   -302.86575    4.3970628   -298.46869    317.91737    19890.255    10.472245  0.023283921 
    8700   -303.76367    4.2126485   -299.55102    304.58381    16983.961    10.472245  0.017986485 
    8800   -303.45909    3.8622328   -299.59686    279.24797    17740.855    10.472245  0.018866086 
    8900   -303.23719    4.0525916    -299.1846    293.01134    18555.436    10.472245  0.020836554 
    9000   -303.30126    4.2007749   -299.10049    303.72532    18624.589    10.472245  0.021439122 
    9100   -303.43156    4.1262544   -299.30531    298.33732    17860.013    10.472245   0.02044271 
    9200    -303.5076    4.1417371   -299.36586    299.45675    17956.809    10.472245  0.019128633 
    9300   -303.78979    3.9124555   -299.87733    282.87918    16380.751    10.472245  0.018937681 
    9400   -303.36574    4.2193714   -299.14637    305.06989     18386.65    10.472245  0.019803568 
    9500   -303.48853     4.592502   -298.89602    332.04805    18157.593    10.472245  0.019814559 
    9600   -304.01681    4.2396148    -299.7772    306.53353    15845.669    10.472245  0.020186658 
    9700   -303.66803     4.485751   -299.18228    324.32972     17214.88    10.472245  0.019193077 
    9800   -303.82141    4.4751397   -299.34628     323.5625    16742.358    10.472245  0.018698415 
    9900   -304.14008    4.0937887    -300.0463    295.98998     15382.79    10.472245  0.018311365 
   10000   -303.39728    4.3815917   -299.01569    316.79877     18156.23    10.472245  0.020619178 
Loop time of 1.97997 on 1 procs for 10000 steps with 108 atoms

Performance: 436.370 ns/day, 0.055 hours/ns, 5050.576 timesteps/s
100.0% CPU use with 1 MPI tasks x no OpenMP threads

MPI task timing breakdown:
Section |  min time  |  avg time  |  max time  |%varavg| %total
---------------------------------------------------------------
Pair    | 1.3312     | 1.3312     | 1.3312     |   0.0 | 67.23
Neigh   | 0          | 0          | 0          |   0.0 |  0.00
Comm    | 0.042496   | 0.042496   | 0.042496   |   0.0 |  2.15
Output  | 0.0013718  | 0.0013718  | 0.0013718  |   0.0 |  0.07
Modify  | 0.59503    | 0.59503    | 0.59503    |   0.0 | 30.05
Other   |            | 0.00985    |            |       |  0.50

Nlocal:    108 ave 108 max 108 min
Histogram: 1 0 0 0 0 0 0 0 0 0
Nghost:    990 ave 990 max 990 min
Histogram: 1 0 0 0 0 0 0 0 0 0
Neighs:    4644 ave 4644 max 4644 min
Histogram: 1 0 0 0 0 0 0 0 0 0

Total # of neighbors = 4644
Ave neighs/atom = 43
Neighbor list builds = 0
Dangerous builds = 0
Total wall time: 0:00:01
