LAMMPS (3 Mar 2020)

    # ---------- Initialize simulation ---------------------
    units metal
    atom_style atomic
    dimension  3
    boundary   p p p
    read_data /home/modeler/RemLabs/Lab4/Problem2A_v1_size_5/temp_2360/lammps.data
  orthogonal box = (0 0 0) to (20.45 20.45 20.45)
  1 by 1 by 1 MPI processor grid
  reading atoms ...
  500 atoms
  read_data CPU = 0.00115133 secs

    pair_style eam
    pair_coeff * * /usr/share/lammps-stable/potentials/Ag_u3.eam
Reading potential file /usr/share/lammps-stable/potentials/Ag_u3.eam with DATE: 2007-06-11

    velocity  all create 2360 87287 dist gaussian

    # ---------- Describe computed properties------------------
    compute msdall all msd
    thermo_style custom step pe ke etotal temp press density c_msdall[4]
    thermo 100

    # ---------- Specify ensemble  ---------------------
    #fix  1 all nve
    fix  1 all nvt temp 2360 2360 0.25

    # --------- Compute RDF ---------------
    compute rdfall all rdf 100 1 1
    fix 2 all ave/time 1 125000 125000 c_rdfall[*] file /home/modeler/RemLabs/Lab4/Problem2A_v1_size_5/temp_2360/lammps.rdf mode vector

    # --------- Run -------------
    timestep 0.005
    run 500000
Neighbor list info ...
  update every 1 steps, delay 10 steps, check yes
  max neighbors/atom: 2000, page size: 100000
  master list distance cutoff = 7.55
  ghost atom cutoff = 7.55
  binsize = 3.775, bins = 6 6 6
  2 neighbor lists, perpetual/occasional/extra = 1 1 0
  (1) pair eam, perpetual
      attributes: half, newton on
      pair build: half/bin/atomonly/newton
      stencil: half/bin/3d/newton
      bin: standard
  (2) compute rdf, occasional, copy from (1)
      attributes: half, newton on
      pair build: copy
      stencil: none
      bin: none
Per MPI rank memory allocation (min/avg/max) = 3.769 | 3.769 | 3.769 Mbytes
Step PotEng KinEng TotEng Temp Press Density c_msdall[4] 
       0        -1425    152.22192   -1272.7781         2360     19011.44    10.472245            0 
     100   -1325.1854    95.165883   -1230.0195    1475.4215    85135.141    10.472245   0.13063342 
     200   -1295.5753    133.14044   -1162.4348    2064.1669    110248.91    10.472245   0.19489624 
     300   -1265.5105    160.47134   -1105.0392    2487.8964    133095.28    10.472245    0.2499909 
     400   -1265.9556    160.50291   -1105.4527    2488.3859    132616.65    10.472245   0.25948915 
     500   -1280.0023    150.95268   -1129.0496    2340.3221     122543.6    10.472245   0.25185571 
     600   -1266.4921    151.85788   -1114.6342    2354.3561    132533.73    10.472245   0.27077342 
     700   -1262.2926    159.89578   -1102.3968    2478.9732     135048.8    10.472245   0.27515059 
     800   -1268.1657    147.55784   -1120.6079    2287.6896    129963.06    10.472245   0.22897118 
     900   -1278.8621    156.95131   -1121.9108     2433.323    123879.55    10.472245   0.19488671 
    1000   -1262.7329    149.81348   -1112.9194    2322.6603    134349.28    10.472245   0.24257281 
    1100   -1263.5681    151.50908    -1112.059    2348.9485    133361.03    10.472245   0.28043582 
    1200   -1265.0507    144.56863    -1120.482    2241.3459     132083.5    10.472245    0.2515648 
    1300   -1264.7201    148.15108    -1116.569     2296.887     130696.1    10.472245   0.26288966 
    1400   -1260.2027    158.86003   -1101.3427    2462.9151    137357.86    10.472245   0.25477253 
    1500   -1278.5855    153.82709   -1124.7584     2384.886    122274.22    10.472245   0.23190825 
    1600   -1267.1439     151.2274   -1115.9165    2344.5813    130985.79    10.472245   0.23043577 
    1700   -1264.1315    162.92494   -1101.2066    2525.9362    135207.19    10.472245   0.27190484 
    1800   -1261.6015    152.08507   -1109.5164    2357.8784    134774.98    10.472245   0.31014347 
    1900   -1266.6268    148.27533   -1118.3515    2298.8134    130956.57    10.472245   0.25290663 
    2000   -1265.4363    150.07648   -1115.3598    2326.7378    132206.47    10.472245    0.2561348 
    2100   -1252.1591    149.81042   -1102.3487    2322.6129     140871.7    10.472245   0.33206283 
    2200   -1262.2935    152.45008   -1109.8434    2363.5374    134383.98    10.472245   0.24791532 
    2300   -1270.5131    146.29027   -1124.2228    2268.0376    127574.41    10.472245   0.22018745 
    2400   -1268.1777    160.08324   -1108.0944    2481.8795    131636.15    10.472245   0.24025833 
    2500   -1259.2549    151.76814   -1107.4867    2352.9647    136363.71    10.472245   0.31216118 
    2600   -1266.7974    153.01811   -1113.7793    2372.3439    130250.74    10.472245   0.27773793 
    2700   -1269.6169    143.70728   -1125.9096    2227.9918    129003.95    10.472245   0.26668317 
    2800   -1276.9398    146.93103   -1130.0088    2277.9718    124375.67    10.472245   0.22143953 
    2900   -1260.5352    150.41398   -1110.1212    2331.9703    135658.93    10.472245   0.27849749 
    3000   -1266.8537    150.41858   -1116.4352    2332.0416    130905.15    10.472245   0.24819819 
    3100   -1271.0641     149.0363   -1122.0278    2310.6112    128880.09    10.472245   0.28916039 
    3200   -1268.7719    155.25654   -1113.5154    2407.0478    130117.17    10.472245   0.23521225 
    3300   -1270.7554    149.05772   -1121.6977    2310.9433     128008.4    10.472245   0.23513694 
    3400   -1272.9723    139.95255   -1133.0198    2169.7796    125972.99    10.472245   0.21959817 
    3500   -1268.4735    153.70839   -1114.7651    2383.0458    129837.57    10.472245   0.25389817 
    3600   -1267.2944    152.70467   -1114.5897    2367.4844    132718.78    10.472245   0.24290379 
    3700   -1273.9254    147.86863   -1126.0568     2292.508    125900.23    10.472245   0.22938711 
    3800   -1272.5121    155.57185   -1116.9402    2411.9362    127658.21    10.472245   0.23864378 
    3900   -1263.7299    156.61352   -1107.1164     2428.086     133859.1    10.472245   0.23627717 
    4000    -1269.388    151.17701    -1118.211    2343.8002    128629.72    10.472245    0.2237026 
    4100   -1266.9265    150.82142   -1116.1051    2338.2871    130248.37    10.472245   0.25788642 
    4200   -1263.5938    150.47892   -1113.1148    2332.9771    133707.13    10.472245   0.26435061 
    4300   -1256.5758    159.96164   -1096.6141    2479.9942    139897.44    10.472245   0.28793012 
    4400     -1267.81    152.31007      -1115.5    2361.3667    129959.22    10.472245   0.25580509 
    4500   -1272.8322    151.92763   -1120.9046    2355.4374    127940.65    10.472245   0.25079817 
    4600   -1265.8616    159.02996   -1106.8316    2465.5497    132549.55    10.472245   0.25857744 
    4700   -1260.3059    149.06124   -1111.2447    2310.9979    135147.88    10.472245   0.26080083 
    4800   -1268.7017    145.82687   -1122.8748    2260.8533    128751.28    10.472245   0.21862908 
    4900   -1270.9718    159.49477    -1111.477     2472.756    128277.63    10.472245   0.25595523 
    5000   -1254.7104    153.83323   -1100.8771    2384.9813    140451.93    10.472245   0.25161612 
    5100   -1262.8645    148.61293   -1114.2516    2304.0474    132112.57    10.472245   0.27258233 
    5200   -1266.8869    148.60232   -1118.2845    2303.8829    129391.26    10.472245   0.22535632 
    5300   -1264.3165    157.96436   -1106.3522     2449.029    133436.36    10.472245   0.27326316 
    5400   -1263.1044    154.99641    -1108.108    2403.0148    135542.56    10.472245   0.27759876 
    5500   -1263.7103    143.23633    -1120.474    2220.6903    132898.43    10.472245   0.25181007 
    5600   -1265.4394    151.22391   -1114.2155    2344.5272    131960.34    10.472245   0.26221311 
    5700   -1266.8368    153.36217   -1113.4747    2377.6782    131060.63    10.472245   0.26003521 
    5800   -1266.7564    154.22958   -1112.5268    2391.1262    131043.21    10.472245   0.22135616 
    5900   -1274.8531    148.49722   -1126.3559    2302.2535    125002.43    10.472245   0.24223862 
    6000   -1268.2651    157.97123   -1110.2939    2449.1354    130931.63    10.472245   0.27082782 
    6100   -1264.7863    161.67521   -1103.1111    2506.5608    133803.46    10.472245    0.2743256 
    6200   -1273.4309    152.17804   -1121.2528    2359.3198    126236.45    10.472245   0.26768919 
    6300   -1259.9324    149.14973   -1110.7827    2312.3697    134501.85    10.472245   0.25533571 
    6400   -1270.5353    154.29103   -1116.2443    2392.0789     130396.5    10.472245   0.22462463 
    6500   -1282.1369     153.0352   -1129.1017    2372.6089     121303.7    10.472245     0.192743 
    6600    -1265.153    153.53161   -1111.6214    2380.3051    132635.83    10.472245   0.23745918 
    6700   -1263.6219    151.27523   -1112.3467    2345.3229    134753.97    10.472245     0.257387 
    6800   -1268.4323    136.23797   -1132.1944      2112.19     127493.7    10.472245   0.28860883 
    6900   -1263.9104     149.5872   -1114.3232    2319.1521    132662.58    10.472245   0.28231937 
    7000   -1263.2463    151.28688   -1111.9595    2345.5035    133355.67    10.472245   0.33841484 
    7100   -1270.2876    158.11949   -1112.1681    2451.4341    129229.99    10.472245   0.24576981 
    7200   -1264.2066    143.15505   -1121.0516    2219.4301    132040.39    10.472245   0.27217036 
    7300   -1269.4475    158.54195   -1110.9056    2457.9838    132075.59    10.472245   0.27140329 
    7400   -1259.7515    160.32019   -1099.4313    2485.5531    136520.27    10.472245   0.25370088 
    7500   -1272.7894    159.13428   -1113.6551     2467.167    128734.35    10.472245   0.23925282 
    7600    -1271.992     150.8861   -1121.1059    2339.2899    127239.81    10.472245   0.23570791 
    7700   -1270.8327     152.0128   -1118.8199    2356.7579     127870.1    10.472245   0.24107306 
    7800   -1267.9681    164.86031   -1103.1077    2555.9416    130995.58    10.472245   0.24660658 
    7900   -1270.7149    153.71037   -1117.0045    2383.0764    129863.16    10.472245   0.26614396 
    8000   -1268.6576    154.82909   -1113.8285    2400.4208    129856.53    10.472245   0.24923814 
    8100   -1272.4736    152.85935   -1119.6143    2369.8826     127533.7    10.472245   0.27455292 
    8200   -1281.1916     154.5249   -1126.6667    2395.7048    122537.71    10.472245   0.21358456 
    8300   -1262.4277    150.95356   -1111.4741    2340.3357    134456.86    10.472245   0.24774567 
    8400   -1266.4394    146.92915   -1119.5103    2277.9426       130040    10.472245   0.28912745 
    8500   -1267.6481    153.96212    -1113.686    2386.9796    131383.18    10.472245   0.24397914 
    8600   -1268.9725    160.24381   -1108.7287    2484.3689    131914.61    10.472245   0.27873002 
    8700   -1270.6751    144.22967   -1126.4454    2236.0907    127160.95    10.472245   0.25100603 
    8800   -1261.9123     144.8112   -1117.1011    2245.1067     134067.3    10.472245   0.27982767 
    8900   -1263.6343    151.09394   -1112.5404    2342.5122    132890.76    10.472245   0.24682564 
    9000   -1274.8615    154.10467   -1120.7568    2389.1896    125526.17    10.472245   0.24512363 
    9100   -1268.0317    157.35236   -1110.6793    2439.5408    131093.53    10.472245   0.21997302 
    9200   -1261.6287    152.05745   -1109.5713    2357.4501    133390.67    10.472245   0.26240582 
    9300   -1278.9972    155.67255   -1123.3246    2413.4975    123388.24    10.472245    0.2446545 
    9400   -1266.2412     154.5626   -1111.6786    2396.2892     132247.9    10.472245   0.23687667 
    9500   -1263.6558    159.35291   -1104.3029    2470.5566       133935    10.472245   0.24515058 
    9600   -1261.7197    146.11737   -1115.6023    2265.3571    133424.73    10.472245   0.30212509 
    9700   -1263.5558    150.63123   -1112.9245    2335.3385    134290.76    10.472245   0.30578679 
    9800   -1253.6107    156.73537   -1096.8753    2429.9751    140867.26    10.472245   0.33160896 
    9900   -1258.4221    146.04233   -1112.3798    2264.1936    135818.88    10.472245    0.3603428 
   10000   -1259.9306    151.23348   -1108.6971    2344.6755    134782.27    10.472245    0.3735183 
   10100   -1255.6583    165.43815   -1090.2202    2564.9002    140988.02    10.472245     0.414317 
   10200   -1260.2838    154.07085   -1106.2129    2388.6653    135790.02    10.472245   0.43697434 
   10300    -1265.414    154.00996   -1111.4041    2387.7212    131884.29    10.472245   0.46970019 
   10400   -1253.7119    146.04308   -1107.6689    2264.2053    139166.53    10.472245   0.51127802 
   10500   -1253.5789    167.89585    -1085.683    2603.0037    142326.08    10.472245   0.53364483 
   10600   -1262.0944    159.54138    -1102.553    2473.4786    134771.26    10.472245   0.55374988 
   10700   -1251.6534    143.75738   -1107.8961    2228.7686    140727.18    10.472245    0.6060642 
   10800   -1242.4505    151.97571   -1090.4747    2356.1829    148375.06    10.472245   0.67208077 
   10900   -1259.3316    161.36108   -1097.9705    2501.6907    138491.73    10.472245   0.57838962 
   11000    -1259.996    153.72089   -1106.2751    2383.2396    135845.21    10.472245   0.63969035 
   11100   -1264.2314    156.02394   -1108.2074    2418.9453    133923.67    10.472245   0.56437679 
   11200   -1272.5363    148.67953   -1123.8568      2305.08    127710.58    10.472245   0.65292436 
   11300   -1256.6601    151.43057   -1105.2295    2347.7312    138439.47    10.472245   0.70956458 
   11400    -1253.727    149.88337   -1103.8436    2323.7439    139420.01    10.472245   0.73011217 
   11500   -1269.3195    145.79953     -1123.52    2260.4293    128673.64    10.472245   0.78437709 
   11600   -1262.9087    155.00361    -1107.905    2403.1265    134018.27    10.472245   0.82642722 
   11700   -1262.7591    155.24334   -1107.5158    2406.8432    134387.85    10.472245   0.81664585 
   11800   -1269.5135    142.15538   -1127.3581    2203.9316    127907.26    10.472245   0.88285865 
   11900   -1272.9808    156.84467   -1116.1361    2431.6697    127530.13    10.472245   0.79365388 
   12000   -1257.3765    149.37801   -1107.9985    2315.9089    136806.26    10.472245   0.91467722 
   12100   -1256.9355    156.16412   -1100.7714    2421.1186    138383.09    10.472245   0.90381173 
   12200   -1259.9238    145.70035   -1114.2235    2258.8918    135826.72    10.472245   0.90378519 
   12300   -1256.7589    140.86268   -1115.8962      2183.89    136842.63    10.472245   0.91267078 
   12400   -1245.5671    147.00627   -1098.5608    2279.1383    145227.74    10.472245    1.0918455 
   12500   -1254.9502    149.80499   -1105.1452    2322.5287     138694.5    10.472245   0.94899218 
   12600   -1269.1827    145.83263     -1123.35    2260.9425    129604.79    10.472245    1.0591576 
   12700   -1252.0203     151.6924   -1100.3279    2351.7905     141590.6    10.472245     1.139217 
   12800   -1254.6221    146.68945   -1107.9326    2274.2264    139623.79    10.472245    1.1433608 
   12900   -1264.4401    150.93653   -1113.5036    2340.0718    133469.67    10.472245    1.1315045 
   13000   -1264.4224    140.86591   -1123.5565      2183.94    131498.71    10.472245    1.1637892 
   13100   -1264.0376    157.94411   -1106.0935    2448.7151    133946.82    10.472245    1.2033928 
   13200   -1260.0052     142.0465   -1117.9587    2202.2436     135230.4    10.472245     1.275136 
   13300   -1247.4607    150.01384   -1097.4469    2325.7667    144745.66    10.472245    1.3899457 
   13400    -1252.603    156.89877   -1095.7042    2432.5084    141610.59    10.472245    1.4593787 
   13500   -1267.5903    154.24759   -1113.3427    2391.4053    131593.81    10.472245    1.5321953 
   13600   -1258.7744    144.66487   -1114.1095     2242.838    136304.05    10.472245        1.485 
   13700   -1254.6736    155.79001   -1098.8836    2415.3186    140098.83    10.472245    1.5724553 
   13800   -1266.8794    162.95099   -1103.9285    2526.3401    132409.43    10.472245    1.6157485 
   13900   -1267.4265    149.49474   -1117.9318    2317.7188    131078.59    10.472245    1.6277892 
   14000   -1270.5789    153.32886   -1117.2501    2377.1618    128032.73    10.472245    1.6121016 
   14100    -1258.019    156.27742   -1101.7415    2422.8753    137879.99    10.472245    1.6576242 
   14200   -1270.3121    160.97338   -1109.3388    2495.6799    129956.44    10.472245    1.7453926 
   14300   -1270.6941    150.77911    -1119.915    2337.6312    128856.44    10.472245    1.5917915 
   14400   -1249.9316    152.63439   -1097.2972    2366.3949    142214.74    10.472245    1.8443622 
   14500   -1251.1679    147.20113   -1103.9668    2282.1593    140605.39    10.472245    1.8416244 
   14600   -1269.1229    152.57547   -1116.5475    2365.4814    129938.74    10.472245    1.8571037 
   14700   -1259.8903    154.31475   -1105.5756    2392.4466    136349.66    10.472245     1.930461 
   14800   -1254.1154    160.52297   -1093.5924    2488.6969    140975.51    10.472245    2.0283478 
   14900   -1251.6809    146.86166   -1104.8192    2276.8963    140472.43    10.472245    1.9958839 
   15000   -1262.0734    143.06259   -1119.0108    2217.9967    132304.89    10.472245     1.871383 
   15100   -1257.4651    155.68996   -1101.7752    2413.7674    139706.47    10.472245    2.1079179 
   15200    -1245.504    144.52839   -1100.9757     2240.722     143896.6    10.472245    2.1837125 
   15300   -1265.2194     147.2135   -1118.0059     2282.351    132290.91    10.472245    1.9828732 
   15400   -1259.9473     147.3946   -1112.5527    2285.1587    134502.78    10.472245    2.2099073 
   15500   -1259.3837    149.59651   -1109.7872    2319.2966    135029.98    10.472245    2.0630698 
   15600   -1262.5772    155.91944   -1106.6578    2417.3252    135265.76    10.472245    2.1999669 
   15700   -1257.7792    161.30227   -1096.4769     2500.779    139511.67    10.472245    2.2123088 
   15800   -1265.8776    151.79902   -1114.0786    2353.4435    131243.73    10.472245    2.1716672 
   15900   -1265.2156    160.06074   -1105.1548    2481.5307    133028.07    10.472245    2.1384879 
   16000   -1254.1115    145.11849    -1108.993    2249.8707    139542.69    10.472245    2.2738602 
   16100   -1264.8656    144.29288   -1120.5727    2237.0707    132283.88    10.472245    2.1509053 
   16200   -1259.6393    152.48767   -1107.1516    2364.1202    135587.66    10.472245     2.261667 
   16300    -1261.267    150.63582   -1110.6312    2335.4097    134753.23    10.472245    2.2127375 
   16400   -1277.7208    152.37223   -1125.3485    2362.3305    124612.18    10.472245    2.2103003 
   16500   -1253.0822    145.38268   -1107.6995    2253.9666    139225.62    10.472245    2.2553889 
   16600   -1258.8364    151.47167   -1107.3648    2348.3684    137056.71    10.472245    2.2780314 
   16700   -1264.4224    138.93695   -1125.4855     2154.034    131352.97    10.472245    2.3811041 
   16800   -1274.8092    145.96119   -1128.8481    2262.9356    124471.52    10.472245    2.2616064 
   16900   -1270.5422    156.39082   -1114.1514    2424.6333    129604.85    10.472245    2.1500596 
   17000   -1274.1079    153.02902   -1121.0789     2372.513    127356.55    10.472245    2.3069631 
   17100   -1276.9374    145.39227   -1131.5451    2254.1153    123286.19    10.472245    2.2335607 
   17200   -1266.5038    152.44668   -1114.0571    2363.4847     131146.2    10.472245    2.3099483 
   17300   -1265.4272    147.96971   -1117.4575    2294.0751    130070.88    10.472245    2.3305899 
   17400   -1259.3546    159.51433   -1099.8402    2473.0592    137679.99    10.472245    2.3373634 
   17500   -1272.7172    156.59426   -1116.1229    2427.7875    128753.67    10.472245    2.2890657 
   17600   -1265.0355    143.97477   -1121.0607    2232.1389    131528.09    10.472245    2.3218665 
   17700   -1262.9218    154.64605   -1108.2757     2397.583    135206.34    10.472245    2.3063982 
   17800   -1270.9277    156.13616   -1114.7916    2420.6851     128644.7    10.472245    2.1999374 
   17900   -1273.4995    147.83925   -1125.6602    2292.0525    126362.46    10.472245    2.3454726 
   18000   -1261.4225     151.4756   -1109.9469    2348.4294    134981.79    10.472245    2.2981596 
   18100      -1269.9    155.81797   -1114.0821     2415.752    130938.93    10.472245    2.2524332 
   18200   -1263.1453    149.23357   -1113.9117    2313.6696     133232.4    10.472245     2.404735 
   18300   -1265.0083    154.87271   -1110.1356     2401.097    133194.02    10.472245    2.3768732 
   18400   -1270.0006     141.3546    -1128.646    2191.5165    127774.56    10.472245    2.2804742 
   18500   -1262.2338    149.38388   -1112.8499         2316    133151.19    10.472245    2.3388648 
   18600   -1260.0694    148.96384   -1111.1055    2309.4878    135572.44    10.472245    2.3046003 
   18700   -1265.9439    148.84029   -1117.1036    2307.5724    130435.02    10.472245    2.3401097 
   18800   -1275.8095     148.8473   -1126.9622    2307.6811    124951.63    10.472245    2.2200417 
   18900   -1270.3523    163.19993   -1107.1524    2530.1996    130137.22    10.472245    2.2909682 
   19000   -1260.6735    147.83297   -1112.8405    2291.9552    134985.19    10.472245    2.3043412 
   19100   -1277.0305    148.75057     -1128.28    2306.1813    122904.74    10.472245    2.2245678 
   19200   -1274.4972    157.20679   -1117.2904    2437.2839     126315.8    10.472245    2.3255278 
   19300   -1258.6598    152.22562   -1106.4342    2360.0574    136362.62    10.472245    2.3027855 
   19400    -1277.786    145.98791   -1131.7981    2263.3499    121748.58    10.472245    2.2809735 
   19500   -1269.0516    147.26037   -1121.7912    2283.0778    129435.31    10.472245    2.2804385 
   19600   -1262.9012    156.01991   -1106.8813    2418.8829    135757.56    10.472245    2.2991824 
   19700   -1251.7188    143.66607   -1108.0527    2227.3529    139112.97    10.472245    2.3565381 
   19800   -1273.3872    147.09272   -1126.2945    2280.4786     125213.9    10.472245    2.2589895 
   19900   -1269.0026    160.57942   -1108.4231    2489.5721    131103.34    10.472245    2.3231684 
   20000   -1270.0616    161.79714   -1108.2644    2508.4512    131073.32    10.472245     2.358892 
   20100   -1273.4539    146.94548   -1126.5084    2278.1957    127126.11    10.472245    2.3013773 
   20200   -1267.0376    144.88799   -1122.1496    2246.2971    129982.26    10.472245    2.3516422 
   20300   -1271.5815    161.57166   -1110.0098    2504.9555    128959.54    10.472245    2.3363977 
   20400   -1267.1561    150.82601   -1116.3301    2338.3583    131444.85    10.472245    2.2729734 
   20500   -1275.7983    149.84505   -1125.9533    2323.1499    124296.02    10.472245    2.2638881 
   20600   -1254.7813    144.45886   -1110.3224     2239.644    137767.82    10.472245    2.3528042 
   20700   -1262.5896    154.53291   -1108.0567     2395.829    133811.21    10.472245    2.3151269 
   20800   -1269.3823    144.38379   -1124.9985    2238.4802    129192.36    10.472245    2.3393109 
   20900   -1261.6716    153.03321   -1108.6384    2372.5781    134550.04    10.472245     2.396754 
   21000    -1249.033    151.55554   -1097.4775    2349.6687    142219.83    10.472245    2.4751635 
   21100   -1258.4652    148.60838   -1109.8568    2303.9768    135647.63    10.472245    2.5376675 
   21200   -1269.5572    155.13887   -1114.4183    2405.2235     130416.5    10.472245    2.5364589 
   21300   -1263.1964    165.41621   -1097.7802    2564.5601    137025.54    10.472245    2.6154123 
   21400   -1260.2173    142.26121   -1117.9561    2205.5724    134608.86    10.472245    2.6544366 
   21500   -1271.5044    159.06096   -1112.4434    2466.0303    130219.64    10.472245    2.5877469 
   21600   -1259.7871    155.51825   -1104.2688    2411.1053    136306.77    10.472245    2.6258886 
   21700   -1258.3253    164.47837    -1093.847    2550.0202    137407.47    10.472245    2.7555816 
   21800   -1261.1632    150.84321     -1110.32     2338.625    134631.81    10.472245    2.8324378 
   21900   -1257.3155    154.15281   -1103.1626     2389.936       138049    10.472245    2.8497213 
   22000   -1259.9914    151.74269   -1108.2487    2352.5702    134742.15    10.472245     2.745227 
   22100   -1268.2643    151.62518   -1116.6391    2350.7483    129485.41    10.472245    2.7260309 
   22200    -1273.779    142.66185   -1131.1171    2211.7838    125157.53    10.472245     2.830781 
   22300   -1257.5753    148.96382   -1108.6115    2309.4875    136922.09    10.472245    2.7943327 
   22400   -1262.6577    156.33528   -1106.3224    2423.7722    134358.06    10.472245    2.8370703 
   22500    -1272.915     152.3397   -1120.5753     2361.826    126551.98    10.472245    2.8746092 
   22600   -1256.0132    156.18776   -1099.8254    2421.4852    139166.99    10.472245    2.9446745 
   22700    -1266.825    152.45933   -1114.3657    2363.6807    131084.14    10.472245    2.9131797 
   22800   -1274.3743    151.37802   -1122.9962    2346.9165    126803.09    10.472245    2.8276661 
   22900   -1261.8755    160.20119   -1101.6743    2483.7081    135991.31    10.472245    2.8662532 
   23000    -1264.025    149.51353   -1114.5115    2318.0101    132540.06    10.472245    2.9720833 
   23100   -1267.9168    151.02458   -1116.8922    2341.4369     130908.3    10.472245    2.8922053 
   23200   -1253.7501      156.985   -1096.7651    2433.8454    139191.84    10.472245    2.9651163 
   23300   -1268.0059    154.99417   -1113.0117    2402.9801    130551.57    10.472245    2.8536642 
   23400   -1267.3362    151.50926   -1115.8269    2348.9512    129654.94    10.472245    2.8745805 
   23500    -1271.926    152.95209    -1118.974    2371.3204    126857.65    10.472245    2.9320661 
   23600   -1274.6114    150.77935   -1123.8321    2337.6349    126670.75    10.472245    2.8857645 
   23700   -1268.2512    159.41395   -1108.8372     2471.503    131313.03    10.472245    2.7938279 
   23800   -1271.4273    145.78512   -1125.6422     2260.206    127736.14    10.472245    2.9506707 
   23900    -1274.315    146.60085   -1127.7142    2272.8527     125992.7    10.472245    2.8492775 
   24000   -1265.7301    154.62731   -1111.1027    2397.2924    132750.48    10.472245    2.9469097 
   24100   -1262.3854    153.94446   -1108.4409    2386.7058     134272.1    10.472245    2.8019553 
   24200   -1278.6779    144.67697   -1134.0009    2243.0256    121870.16    10.472245    2.8591308 
   24300   -1270.7291    149.05832   -1121.6707    2310.9527    127159.31    10.472245    2.9276678 
   24400   -1268.5058    161.09528   -1107.4105    2497.5698    132633.71    10.472245    2.8462557 
   24500   -1267.3923    151.22151   -1116.1708    2344.4901       129908    10.472245    2.8844335 
   24600   -1277.4625    142.43905   -1135.0235    2208.3295    123597.59    10.472245    2.9060759 
   24700   -1272.3644    154.03809   -1118.3263    2388.1574    127665.76    10.472245     2.836999 
   24800   -1268.1675    155.93884   -1112.2286    2417.6259    130603.73    10.472245    2.9209883 
   24900    -1274.415    142.61481   -1131.8002    2211.0545    124502.06    10.472245    2.8650479 
   25000   -1268.7675    148.81821   -1119.9493      2307.23    130423.42    10.472245     2.916948 
   25100   -1270.3444    155.31909   -1115.0254    2408.0176    128181.54    10.472245    2.8580627 
   25200   -1271.5715    157.08552   -1114.4859    2435.4037    128536.34    10.472245    2.8087305 
   25300   -1247.5638    151.62915   -1095.9346    2350.8099     144292.3    10.472245    2.9810798 
   25400    -1269.025    156.87207   -1112.1529    2432.0945     130917.3    10.472245    2.8537947 
   25500   -1272.2248     155.3178    -1116.907    2407.9976    126810.74    10.472245    2.9384062 
   25600   -1260.6629     145.9506   -1114.7123    2262.7715    135410.61    10.472245    2.8737935 
   25700   -1256.1431    157.51651   -1098.6266    2442.0856    139864.99    10.472245    2.8605655 
   25800   -1263.7883    145.74129    -1118.047    2259.5264    131993.57    10.472245    2.9620531 
   25900   -1267.2117    151.71075   -1115.5009     2352.075    131718.49    10.472245    2.9071692 
   26000   -1264.1198    146.24318   -1117.8766    2267.3076     131210.1    10.472245      2.99321 
   26100   -1272.1546    157.16091   -1114.9937    2436.5726    128538.17    10.472245    2.8518762 
   26200   -1259.3393    150.68926     -1108.65    2336.2382    135878.13    10.472245    2.9666935 
   26300   -1267.8796    152.78181   -1115.0978    2368.6804    130640.33    10.472245    2.9192821 
   26400   -1269.4976    152.33183   -1117.1658     2361.704    128764.15    10.472245    2.9399347 
   26500   -1271.4914    157.08638    -1114.405    2435.4171    129728.45    10.472245    2.8778871 
   26600    -1273.499    162.61185   -1110.8872    2521.0822    128876.91    10.472245     2.851173 
   26700   -1272.6656    147.39344   -1125.2722    2285.1408    125935.29    10.472245    2.8546539 
   26800    -1263.712    154.21412   -1109.4978    2390.8865    134133.66    10.472245    2.8580673 
   26900   -1260.9737    149.81741   -1111.1563    2322.7213    135661.99    10.472245    2.8461812 
   27000   -1275.3929    157.35068   -1118.0423    2439.5147    126356.96    10.472245    2.7728727 
   27100   -1266.3502    147.99457   -1118.3557    2294.4606    130915.17    10.472245    2.9115214 
   27200   -1259.5492     144.8955   -1114.6537    2246.4136    135527.23    10.472245    2.8841081 
   27300   -1266.7691    156.10547   -1110.6637    2420.2094    132531.94    10.472245    2.8980019 
   27400   -1268.1136    144.77035   -1123.3433    2244.4733    128818.32    10.472245    2.7764188 
   27500   -1277.1653    143.26021   -1133.9051    2221.0605    123959.63    10.472245     2.885847 
   27600    -1263.691    152.12688   -1111.5641    2358.5265    132699.89    10.472245    2.8674087 
   27700   -1263.0519    151.00876   -1112.0431    2341.1916    133646.72    10.472245    2.9489379 
   27800   -1266.7612    137.12387   -1129.6373    2125.9248    129256.96    10.472245    2.8419982 
   27900   -1268.1555    149.38876   -1118.7667    2316.0757    130342.07    10.472245    2.8504504 
   28000   -1271.3084    154.67637    -1116.632    2398.0531    127886.15    10.472245    2.8135148 
   28100   -1266.9667    151.76535   -1115.2013    2352.9215    131833.93    10.472245    2.8645427 
   28200    -1266.219    156.25896   -1109.9601     2422.589    132820.71    10.472245    2.8697855 
   28300   -1274.2481    148.44935   -1125.7988    2301.5114    125087.16    10.472245    2.8970974 
   28400   -1271.9407    156.86547   -1115.0752    2431.9921    127447.32    10.472245    2.8506507 
   28500   -1263.4075    161.05308   -1102.3544    2496.9155    133319.33    10.472245    2.8528857 
   28600    -1268.612    150.57737   -1118.0346    2334.5035    129807.24    10.472245     2.893097 
   28700    -1270.047    150.84903    -1119.198    2338.7152    128270.32    10.472245    2.8658281 
   28800   -1266.0079    154.70896   -1111.2989    2398.5582     131711.4    10.472245    2.9307695 
   28900   -1260.0048    154.26241   -1105.7424    2391.6351     136231.6    10.472245    2.9058823 
   29000   -1273.9405    149.89411   -1124.0464    2323.9104    125043.53    10.472245    2.9297147 
   29100   -1268.8027    155.15093   -1113.6518    2405.4105    129705.63    10.472245    2.9415452 
   29200   -1245.5597    150.95447   -1094.6052    2340.3499    143475.94    10.472245    2.9979476 
   29300   -1268.6072    154.05318    -1114.554    2388.3913    128922.76    10.472245    2.8460304 
   29400   -1265.4541     145.0404   -1120.4137    2248.6601     131767.5    10.472245    2.8925196 
   29500   -1256.1908    154.76068   -1101.4301    2399.3602    138652.42    10.472245    2.8860556 
   29600   -1271.0598    158.30436   -1112.7555    2454.3002    128933.36    10.472245    2.8065719 
   29700   -1271.0622    151.37248   -1119.6898    2346.8305    126558.66    10.472245    2.9451657 
   29800    -1271.225    153.70955   -1117.5155    2383.0637    129614.69    10.472245    2.9379033 
   29900   -1258.9002    157.09405   -1101.8062    2435.5361     137348.1    10.472245     2.836802 
   30000   -1270.7393     155.4619   -1115.2774    2410.2316    129570.24    10.472245    2.9073053 
   30100   -1267.8306    152.12879   -1115.7018    2358.5561    130866.02    10.472245    2.9461156 
   30200   -1275.8474    150.49452   -1125.3529    2333.2189    125020.03    10.472245    2.8182563 
   30300   -1279.1373    150.80963   -1128.3276    2338.1044    122921.99    10.472245    2.8723318 
   30400   -1261.3738    148.91745   -1112.4563    2308.7686    134293.25    10.472245    2.9054533 
   30500   -1270.7254    147.65291   -1123.0724    2289.1636    127437.45    10.472245    2.8719616 
   30600   -1274.5102    151.62954   -1122.8807     2350.816    125767.35    10.472245    2.9087523 
   30700   -1262.2284    156.03621   -1106.1922    2419.1355    135603.27    10.472245    2.9633854 
   30800   -1274.7863    156.07581   -1118.7104    2419.7496    127282.82    10.472245    2.7820759 
   30900   -1278.0879    160.13133   -1117.9565     2482.625    125383.51    10.472245    2.8922292 
   31000   -1268.3121    165.68748   -1102.6246    2568.7658    130772.25    10.472245    2.9913082 
   31100   -1261.8354     147.6205   -1114.2149    2288.6611    132927.06    10.472245    2.8351244 
   31200   -1270.9064    154.23955   -1116.6669    2391.2808    129445.26    10.472245    2.8585703 
   31300   -1272.1591     161.3151    -1110.844    2500.9778    128916.84    10.472245    2.9182542 
   31400   -1274.4022     146.8982    -1127.504    2277.4628     125506.3    10.472245    2.9027823 
   31500   -1266.1346    154.82571   -1111.3089    2400.3684    131054.27    10.472245    2.9322343 
   31600   -1263.3184    151.13015   -1112.1882    2343.0735    133724.13    10.472245    2.8948056 
   31700   -1263.8899    144.63051   -1119.2593    2242.3052    132185.73    10.472245    2.9082197 
   31800   -1273.4808    144.51118   -1128.9696    2240.4552    125731.73    10.472245    2.9015606 
   31900   -1257.1382    149.66704   -1107.4712    2320.3899    137520.06    10.472245    2.8910512 
   32000   -1261.4095    152.63942   -1108.7701    2366.4728    134660.82    10.472245    2.8597549 
   32100   -1259.8158     142.8495   -1116.9663    2214.6931    135051.56    10.472245    2.9525637 
   32200   -1273.9506     145.6923   -1128.2583     2258.767    125641.83    10.472245    2.9052423 
   32300   -1265.8378    156.03546   -1109.8024    2419.1239    133023.49    10.472245    2.8987682 
   32400   -1263.4722    152.72305   -1110.7491    2367.7694    134041.52    10.472245    2.8950598 
   32500   -1272.7271    144.55777   -1128.1693    2241.1775    126605.66    10.472245    2.9527486 
   32600   -1253.9465    140.82473   -1113.1217    2183.3017     137665.6    10.472245    2.8814109 
   32700   -1264.3595    152.80658   -1111.5529    2369.0644    133067.88    10.472245    2.9298178 
   32800   -1279.0127    153.13339   -1125.8793    2374.1312    122725.88    10.472245    2.9318646 
   32900   -1262.4443    155.95428     -1106.49    2417.8653     134465.8    10.472245    2.9433984 
   33000   -1264.8094    157.28862   -1107.5208    2438.5525    132253.21    10.472245    2.8791225 
   33100   -1269.8928    143.85989    -1126.033    2230.3577    127969.06    10.472245    2.8820399 
   33200   -1273.0405    152.65424   -1120.3862    2366.7025    127674.73    10.472245    2.8421563 
   33300   -1264.8044    151.73513   -1113.0693     2352.453    134096.35    10.472245    2.8404133 
   33400   -1257.8382    160.91898   -1096.9193    2494.8365    138287.49    10.472245    2.9249572 
   33500   -1258.0542    146.79996   -1111.2543    2275.9397    136613.31    10.472245    2.9627601 
   33600   -1264.2682    147.58408   -1116.6841    2288.0964     131648.6    10.472245    2.8166031 
   33700   -1266.4626    146.04262     -1120.42    2264.1981    129624.19    10.472245    2.9235321 
   33800    -1272.211    160.43443   -1111.7766    2487.3242    127880.38    10.472245    2.8873279 
   33900   -1271.8949    159.89412   -1112.0008    2478.9473    129540.85    10.472245    2.7896553 
   34000   -1281.1841    152.90376   -1128.2804     2370.571    121127.36    10.472245    2.8526288 
   34100   -1261.0508    151.15055   -1109.9003    2343.3899     135310.4    10.472245    2.7892787 
   34200   -1267.9303    157.85183   -1110.0785    2447.2843    130866.91    10.472245    2.8142487 
   34300   -1268.6673    140.49036   -1128.1769    2178.1177    129542.01    10.472245    2.9393808 
   34400   -1255.7962    151.15383   -1104.6424    2343.4407    138508.09    10.472245     2.919959 
   34500   -1268.2392    153.82478   -1114.4145    2384.8502    129943.46    10.472245    2.8322861 
   34600   -1278.4259    154.90425   -1123.5217     2401.586    122518.24    10.472245    2.9284591 
   34700   -1266.8617     163.5409   -1103.3208     2535.486    131824.18    10.472245    2.8530729 
   34800   -1266.2914     154.2887   -1112.0027    2392.0428    131170.77    10.472245    2.8730005 
   34900   -1262.6844    144.48964   -1118.1948    2240.1212    133392.65    10.472245    2.9376687 
   35000   -1256.1859    159.06456   -1097.1213    2466.0862    139686.93    10.472245    2.9064648 
   35100    -1267.199    161.20281   -1105.9962    2499.2369     131918.2    10.472245    2.8373986 
   35200   -1265.5975    142.49313   -1123.1044     2209.168    131085.94    10.472245    2.9461663 
   35300   -1267.9486    155.96831   -1111.9803    2418.0829    131733.48    10.472245    2.8849745 
   35400   -1271.4776    163.75799   -1107.7196    2538.8516    129492.91    10.472245    2.8372823 
   35500   -1267.8564    150.29793   -1117.5585    2330.1712    130766.35    10.472245    2.8392468 
   35600   -1273.6054    142.22425   -1131.3811    2204.9994    126009.66    10.472245    2.8406298 
   35700   -1272.0429    156.08525   -1115.9576    2419.8959    128170.44    10.472245    2.8777064 
   35800   -1266.3228    150.55905   -1115.7638    2334.2194    131301.66    10.472245    2.9265984 
   35900   -1269.8519    147.99037   -1121.8616    2294.3954    129062.24    10.472245    2.9131573 
   36000   -1260.3413    146.82526    -1113.516     2276.332    134911.14    10.472245    2.9774238 
   36100   -1264.3013    164.42661   -1099.8747    2549.2177    134720.37    10.472245    2.8592392 
   36200   -1271.6468    151.78301   -1119.8638    2353.1953    127983.95    10.472245    2.8061644 
   36300   -1265.0434    151.08958   -1113.9538    2342.4446    133038.09    10.472245    2.9169504 
   36400   -1263.8141    165.11163   -1098.7025     2559.838    134649.96    10.472245    2.9122572 
   36500   -1274.5618    156.01519   -1118.5467    2418.8097     126052.9    10.472245    2.9359732 
   36600   -1266.8118    153.17376   -1113.6381    2374.7571     131841.3    10.472245    2.8938861 
   36700   -1253.7527    155.55754   -1098.1952    2411.7144    141406.69    10.472245    2.9000389 
   36800   -1270.3541    148.47781   -1121.8763    2301.9526    129142.14    10.472245    2.8717357 
   36900   -1260.8682    144.62946   -1116.2387     2242.289    134774.54    10.472245    2.9103202 
   37000   -1260.1623    159.84287   -1100.3194    2478.1528    136956.18    10.472245    2.9148485 
   37100   -1260.8822    150.09382   -1110.7884    2327.0066    134304.47    10.472245    2.9697895 
   37200   -1268.6177     153.7844   -1114.8333    2384.2243    132076.08    10.472245    2.8876703 
   37300   -1266.2329    142.21119   -1124.0218    2204.7969    130630.39    10.472245    2.8999494 
   37400   -1259.1299     155.5622   -1103.5677    2411.7868    137694.64    10.472245    2.9544308 
   37500   -1265.9342    151.76123   -1114.1729    2352.8576    131635.81    10.472245    2.8945824 
   37600   -1273.4598    149.05794   -1124.4019    2310.9468    126906.87    10.472245    2.9109921 
   37700   -1264.8872    154.05391   -1110.8333    2388.4026    134047.39    10.472245    2.8553935 
   37800   -1268.3258    157.69827   -1110.6275    2444.9037    130851.48    10.472245    2.9084254 
   37900   -1271.2512     149.6235   -1121.6277     2319.715    127359.93    10.472245    2.7991373 
   38000    -1264.743    150.38226   -1114.3607    2331.4785    133086.78    10.472245    2.9377029 
   38100   -1264.4939    149.93078   -1114.5631    2324.4789     133043.2    10.472245    2.8433983 
   38200   -1276.1615     149.6533   -1126.5082    2320.1769    124520.44    10.472245    2.9047551 
   38300   -1259.4075    154.59929   -1104.8082    2396.8581    137207.94    10.472245    2.8678758 
   38400    -1264.779    153.79487   -1110.9841    2384.3865    132693.15    10.472245    2.9150515 
   38500   -1280.4304    151.19919   -1129.2313    2344.1439    121583.93    10.472245     2.923293 
   38600   -1267.0528    146.03957   -1121.0132    2264.1508    130366.48    10.472245    2.8808161 
   38700   -1264.2827     155.5773   -1108.7054    2412.0208    132890.02    10.472245    2.9261796 
   38800   -1266.5983    152.34832   -1114.2499    2361.9597    131224.08    10.472245    2.8756617 
   38900   -1266.8578    150.51857   -1116.3393    2333.5918     130807.1    10.472245    2.9268043 
   39000   -1266.0586    158.29396   -1107.7646    2454.1391    133294.21    10.472245    2.9429006 
   39100   -1267.6875    160.77361   -1106.9139    2492.5826    132575.35    10.472245    2.9333585 
   39200   -1269.2658    152.24139   -1117.0244    2360.3019    131038.34    10.472245    2.8901942 
   39300   -1264.0576    156.99046   -1107.0672      2433.93    133645.64    10.472245    2.7922257 
   39400   -1261.2209    151.71376   -1109.5071    2352.1217    135540.14    10.472245    2.9539639 
   39500   -1275.0267    152.94857   -1122.0781    2371.2658     126308.5    10.472245    2.7957019 
   39600   -1260.4082    153.41248   -1106.9957    2378.4582    135093.11    10.472245    2.9660504 
   39700   -1267.8484    147.01196   -1120.8364    2279.2265       130961    10.472245    2.8946027 
   39800   -1271.3612    148.94221    -1122.419    2309.1524    127334.79    10.472245    2.9379822 
   39900   -1257.7657     149.2753   -1108.4904    2314.3167    137891.92    10.472245    2.8793424 
   40000   -1261.8431    151.40612    -1110.437    2347.3521    133749.94    10.472245    2.9053814 
   40100   -1263.0323    149.04865   -1113.9837    2310.8027    133603.24    10.472245    2.9100632 
   40200    -1280.356    153.32579   -1127.0302    2377.1141     122549.8    10.472245    2.7668475 
   40300   -1261.0055    153.54588   -1107.4596    2380.5264    135082.04    10.472245    2.8617125 
   40400   -1261.2768     151.3648    -1109.912    2346.7115    134017.37    10.472245    3.0229097 
   40500   -1278.5155    147.42648    -1131.089    2285.6531     123124.9    10.472245    2.8387691 
   40600   -1273.6319    153.99095   -1119.6409    2387.4265    127443.71    10.472245    2.8800629 
   40700   -1265.7033    152.73936   -1112.9639    2368.0222    132861.43    10.472245    2.8080449 
   40800   -1268.0653    143.90359   -1124.1617    2231.0353    129615.91    10.472245    2.8426732 
   40900   -1271.9337    145.08395   -1126.8498    2249.3352    127004.64    10.472245     3.000196 
   41000   -1263.9644    151.85846   -1112.1059     2354.365    132560.33    10.472245    2.8917991 
   41100   -1265.9338    148.48774   -1117.4461    2302.1066    131551.59    10.472245    2.8453252 
   41200   -1271.1339    146.35568   -1124.7782    2269.0517     127501.7    10.472245    2.9018072 
   41300   -1257.2692    151.60245   -1105.6668     2350.396    136960.88    10.472245    2.9400975 
   41400   -1261.6249    147.76056   -1113.8643    2290.8325    134604.85    10.472245    2.9748833 
   41500   -1277.3596    141.51538   -1135.8442    2194.0093    122644.56    10.472245    2.8290389 
   41600   -1264.7309    145.46486   -1119.2661    2255.2408    131430.94    10.472245    2.9306318 
   41700   -1268.1263    159.10856   -1109.0177    2466.7684    131537.13    10.472245    2.7871537 
   41800   -1271.2551      149.026   -1122.2291    2310.4515    127363.34    10.472245     2.869135 
   41900   -1277.6944     153.9891   -1123.7053    2387.3978    124148.25    10.472245    2.8842387 
   42000   -1269.5245    159.30636   -1110.2181     2469.835    130104.99    10.472245    2.8374078 
   42100   -1277.5046    153.66149   -1123.8431    2382.3187    123932.25    10.472245    2.9542772 
   42200   -1268.1909    155.06045   -1113.1304    2404.0077     130145.1    10.472245    2.8564932 
   42300   -1259.4523    149.22151   -1110.2308    2313.4826    135662.33    10.472245    2.8537504 
   42400   -1267.0916    147.38897   -1119.7026    2285.0715    130002.59    10.472245    2.9116329 
   42500   -1262.1735    147.68191   -1114.4916    2289.6131    133937.52    10.472245    2.9412151 
   42600   -1254.1669    159.43218   -1094.7348    2471.7857     140929.1    10.472245    2.8831561 
   42700   -1263.4941    152.98269   -1110.5114    2371.7947    133530.85    10.472245    2.9859839 
   42800   -1272.4578    156.33165   -1116.1261     2423.716    127133.23    10.472245    2.8155824 
   42900   -1274.9159    144.69787    -1130.218    2243.3495    125534.42    10.472245    2.8752065 
   43000   -1267.4805    152.76935   -1114.7112    2368.4872    131566.69    10.472245    2.7816997 
   43100   -1267.7437    156.37006   -1111.3736    2424.3115    131157.92    10.472245    2.9222757 
   43200   -1277.9576    146.00066   -1131.9569    2263.5476    121701.74    10.472245     2.832268 
   43300   -1276.9372    155.09042   -1121.8468    2404.4723    125163.98    10.472245    2.8109562 
   43400   -1261.3502    150.13981   -1111.2104    2327.7197    134350.59    10.472245    2.9212313 
   43500   -1263.4902    147.73136   -1115.7589    2290.3799    132936.11    10.472245    2.9662627 
   43600   -1273.3871    147.61656   -1125.7706    2288.6001    127641.34    10.472245     2.832402 
   43700   -1262.1033    154.72223   -1107.3811    2398.7641    134795.75    10.472245    2.8564904 
   43800   -1272.0156    156.76122   -1115.2544    2430.3759    128706.76    10.472245     2.900714 
   43900   -1267.5925    145.06351    -1122.529    2249.0184    128965.67    10.472245    2.8536279 
   44000   -1257.6529    151.92145   -1105.7315    2355.3417    137288.87    10.472245    2.8426011 
   44100   -1266.7823    149.71539   -1117.0669    2321.1396    130776.57    10.472245    3.0715704 
   44200   -1263.1631    163.98851   -1099.1746    2542.4255    134065.14    10.472245    2.9649743 
   44300   -1259.1489    154.47223   -1104.6767    2394.8882    136397.46    10.472245    2.9258206 
   44400   -1271.6216    155.01918   -1116.6025    2403.3679    128080.66    10.472245    2.8335381 
   44500   -1271.3456    155.49616   -1115.8494    2410.7629    129141.78    10.472245    2.9246509 
   44600   -1260.9531    159.61262   -1101.3404    2474.5831    135332.99    10.472245    2.8946006 
   44700   -1270.8138    149.02317   -1121.7907    2310.4077    127772.39    10.472245    2.8935698 
   44800   -1270.4074    160.02984   -1110.3775    2481.0516    129418.32    10.472245      2.89118 
   44900   -1269.5546    153.10168   -1116.4529    2373.6396     129311.7    10.472245    2.9434536 
   45000   -1278.1847    151.30424   -1126.8805    2345.7727    123092.22    10.472245    2.9227791 
   45100   -1263.7814     152.0002   -1111.7812    2356.5625    133098.78    10.472245    2.9441537 
   45200   -1264.6714    152.94007   -1111.7313    2371.1339     133595.6    10.472245    2.8974919 
   45300   -1275.1876    147.54075   -1127.6469    2287.4246    124794.11    10.472245    2.9016335 
   45400    -1267.286     151.1125   -1116.1735    2342.7999    131422.37    10.472245    2.8056404 
   45500   -1264.1118    155.05702   -1109.0548    2403.9545    132972.23    10.472245    2.9072457 
   45600   -1262.8306    147.39817   -1115.4324    2285.2141    133463.79    10.472245    2.9060546 
   45700    -1274.804    159.76441   -1115.0396    2476.9364    127696.42    10.472245    2.8543772 
   45800   -1257.7843    158.70214   -1099.0821    2460.4673    138855.07    10.472245    2.8352295 
   45900   -1271.1685    151.63319   -1119.5353    2350.8725    127789.83    10.472245    2.8244368 
   46000   -1269.6574    151.15228   -1118.5051    2343.4166    127999.16    10.472245    2.8963327 
   46100   -1254.1182    149.03065   -1105.0876    2310.5237    139096.22    10.472245    2.9736082 
   46200   -1267.6215    153.81515   -1113.8063     2384.701    132109.57    10.472245    2.8896104 
   46300   -1269.6455    150.59597   -1119.0495    2334.7919    128796.59    10.472245    2.9702359 
   46400   -1262.1477    159.11659   -1103.0312    2466.8927    135196.52    10.472245    2.8974427 
   46500   -1272.8317    147.91896   -1124.9128    2293.2884     126943.8    10.472245    2.9398065 
   46600   -1271.0821    156.31705   -1114.7651    2423.4896    128410.47    10.472245     2.813097 
   46700   -1258.9746    150.39123   -1108.5833    2331.6177    135955.67    10.472245    2.9053114 
   46800   -1267.5978    147.42108   -1120.1768    2285.5693     130291.9    10.472245    2.7436172 
   46900    -1271.949     151.5735   -1120.3755    2349.9471    127843.17    10.472245    2.8553724 
   47000   -1258.7127    152.27762    -1106.435    2360.8636    136657.51    10.472245    2.9169876 
   47100   -1264.3151    149.77098   -1114.5442    2322.0015    132549.75    10.472245    2.9172632 
   47200   -1269.9017    152.65011   -1117.2516    2366.6385    130119.65    10.472245    2.8782191 
   47300   -1276.7551    149.41238   -1127.3427    2316.4418     124658.5    10.472245    2.8504307 
   47400   -1274.8607     162.0325   -1112.8282    2512.1001       127606    10.472245    2.8925247 
   47500   -1264.4317    154.45011   -1109.9816    2394.5452    133891.65    10.472245    2.8739436 
   47600   -1271.9444    142.03471   -1129.9097    2202.0607    127182.38    10.472245    2.8577869 
   47700   -1266.9783    144.13837   -1122.8399    2234.6752    131079.45    10.472245    2.9734947 
   47800   -1266.6469    153.53679   -1113.1101    2380.3853    131499.26    10.472245    2.8904454 
   47900   -1261.8427    141.50406   -1120.3386    2193.8337    132455.39    10.472245    2.9182497 
   48000   -1270.4062    150.88954   -1119.5167    2339.3432    128418.79    10.472245    2.8933019 
   48100   -1261.9906    153.44566    -1108.545    2378.9725    133583.93    10.472245    2.8927293 
   48200   -1272.9269    150.95118   -1121.9757    2340.2989    127162.45    10.472245    2.9737903 
   48300   -1253.0648    149.16263   -1103.9021    2312.5698     140796.9    10.472245    3.1660556 
   48400   -1258.7602     158.0126   -1100.7476    2449.7769    137402.48    10.472245    3.2298068 
   48500     -1266.78    146.18347   -1120.5965    2266.3818    130655.97    10.472245    3.2001783 
   48600   -1268.4339    154.24287    -1114.191    2391.3323    130858.63    10.472245    3.0712235 
   48700   -1258.5778    152.08522   -1106.4926    2357.8806    136389.74    10.472245    3.2339328 
   48800   -1259.4738    149.40873   -1110.0651    2316.3852    134012.13    10.472245    3.3327118 
   48900   -1269.6108     142.9279   -1126.6829    2215.9086    128330.37    10.472245    3.2291445 
   49000   -1267.6228    156.30295   -1111.3198     2423.271    130848.05    10.472245    3.2486879 
   49100   -1266.3815    151.40833   -1114.9732    2347.3864    130118.83    10.472245    3.2180908 
   49200   -1266.9955    146.04494   -1120.9506    2264.2341    130506.29    10.472245    3.1931233 
   49300   -1260.2884    158.37335    -1101.915    2455.3699    136627.03    10.472245    3.2425022 
   49400   -1266.7348    148.02985    -1118.705    2295.0075     131317.9    10.472245    3.3564797 
   49500    -1262.149    146.55229   -1115.5967       2272.1    134307.24    10.472245    3.2273718 
   49600    -1250.236    156.97859   -1093.2574     2433.746    142126.53    10.472245    3.2699296 
   49700   -1256.5744    150.74786   -1105.8265    2337.1468    137020.87    10.472245    3.2793904 
   49800   -1263.8514    148.57024   -1115.2812    2303.3856    132068.64    10.472245    3.3462648 
   49900   -1258.2373    155.21913   -1103.0182    2406.4678    136981.67    10.472245     3.259871 
   50000   -1252.6033    146.75093   -1105.8524    2275.1796    140691.58    10.472245    3.3134834 
   50100   -1268.2616    146.93133   -1121.3303    2277.9764    130121.49    10.472245    3.1278864 
   50200   -1272.5158    136.81522   -1135.7006    2121.1395    126372.35    10.472245    3.2720046 
   50300     -1268.68    149.93642   -1118.7436    2324.5664    130551.63    10.472245      3.19554 
   50400   -1258.7235     150.8819   -1107.8416    2339.2248    135811.32    10.472245    3.2898857 
   50500    -1274.669    152.83911   -1121.8299    2369.5688    127237.06    10.472245    3.1982916 
   50600   -1272.9428    153.58146   -1119.3614    2381.0779    128084.16    10.472245    3.2461103 
   50700    -1269.044    157.94506    -1111.099    2448.7298    130682.98    10.472245    3.2527212 
   50800   -1274.6709    152.98013   -1121.6908    2371.7551    125198.32    10.472245    3.3313951 
   50900   -1285.1518    142.33064   -1142.8212    2206.6488     117388.2    10.472245    3.1032539 
   51000   -1270.1166     151.4596    -1118.657    2348.1813    128562.88    10.472245    3.2359769 
   51100   -1261.9467    158.44513   -1103.5016    2456.4827    135874.07    10.472245    3.3183257 
   51200   -1263.4201     146.6225   -1116.7976    2273.1885    132803.08    10.472245    3.3733237 
   51300   -1273.1074    149.32761   -1123.7798    2315.1276    127177.42    10.472245    3.3478421 
   51400   -1269.1696    160.20155    -1108.968    2483.7136    129956.51    10.472245    3.2099766 
   51500   -1264.6655    146.94409   -1117.7214    2278.1743    131501.22    10.472245    3.1995892 
   51600   -1265.9255    138.00912   -1127.9163    2139.6494    130386.64    10.472245    3.1202006 
   51700   -1270.8158    154.22838   -1116.5874    2391.1076    129535.56    10.472245    3.3289054 
   51800   -1268.8751    154.57603   -1114.2991    2396.4975    130691.73    10.472245    3.2041449 
   51900   -1277.5863     149.8218   -1127.7645    2322.7893    124731.61    10.472245    3.2489325 
   52000   -1269.6328    145.15162   -1124.4812    2250.3843    128728.67    10.472245    3.2450612 
   52100   -1268.2978     158.0174   -1110.2804    2449.8513    130934.53    10.472245    3.2322106 
   52200   -1263.1967    142.57574    -1120.621    2210.4488    131812.42    10.472245    3.1787982 
   52300   -1273.0399    143.48284   -1129.5571    2224.5121    126652.87    10.472245    3.2162531 
   52400   -1268.9469    153.05419   -1115.8927    2372.9034    129466.26    10.472245    3.2104349 
   52500   -1263.4539    146.46408   -1116.9898    2270.7323    132959.73    10.472245    3.1934396 
   52600   -1261.6891    157.02111    -1104.668    2434.4052    136757.56    10.472245    3.2522738 
   52700    -1268.555    142.76144   -1125.7935    2213.3278    128738.29    10.472245     3.109358 
   52800   -1271.2931    155.21992   -1116.0732    2406.4801    127702.53    10.472245     3.198002 
   52900     -1256.48    149.68344   -1106.7966    2320.6443       137689    10.472245    3.2859107 
   53000   -1265.6964    152.66263   -1113.0338    2366.8327    132176.78    10.472245     3.243494 
   53100   -1270.1607    148.50143   -1121.6593    2302.3187    129094.05    10.472245     3.188957 
   53200   -1268.6386    140.53842   -1128.1002    2178.8628    127458.13    10.472245    3.2638316 
   53300   -1261.1454    152.04688   -1109.0985    2357.2862    133365.81    10.472245    3.3471674 
   53400   -1267.0571    152.59791   -1114.4592    2365.8293    132058.84    10.472245    3.1767936 
   53500   -1284.9959    152.25082   -1132.7451    2360.4481    119669.93    10.472245    3.1492101 
   53600   -1260.0105    153.35301   -1106.6575    2377.5362     135963.1    10.472245    3.2354939 
   53700    -1270.346    153.57527   -1116.7707     2380.982    129997.62    10.472245    3.2275594 
   53800   -1275.6149    153.27721   -1122.3377     2376.361    125885.56    10.472245    3.2587549 
   53900   -1265.1096    158.73781   -1106.3718    2461.0204    134495.79    10.472245    3.2324024 
   54000   -1264.6827    149.90507   -1114.7777    2324.0804    133659.68    10.472245     3.314535 
   54100   -1268.4965    138.60966   -1129.8868    2148.9599    128849.01    10.472245    3.2476753 
   54200   -1276.6137     146.9647    -1129.649    2278.4937    123314.96    10.472245    3.1897949 
   54300   -1267.5149    157.10025   -1110.4146    2435.6321    131617.19    10.472245     3.299612 
   54400   -1262.8143    156.06674   -1106.7475    2419.6089    134593.56    10.472245    3.3680168 
   54500   -1266.1986     142.9006    -1123.298    2215.4852    131233.82    10.472245    3.1577927 
   54600   -1267.0058    147.14587     -1119.86    2281.3026    130754.62    10.472245    3.2633726 
   54700   -1265.5746    160.78769   -1104.7869     2492.801    132671.67    10.472245    3.3252611 
   54800   -1266.0352    149.42345   -1116.6118    2316.6135    131152.65    10.472245    3.2110124 
   54900   -1280.9862    148.95085   -1132.0353    2309.2865    120812.07    10.472245    3.1647338 
   55000     -1268.05    148.58258   -1119.4674    2303.5769    131117.29    10.472245    3.2070577 
   55100   -1255.3767    148.66205   -1106.7146     2304.809    139071.45    10.472245    3.2541178 
   55200    -1257.849    151.33749   -1106.5115    2346.2881    137716.91    10.472245    3.2881167 
   55300    -1274.556    150.73536   -1123.8206    2336.9529    126484.67    10.472245    3.1611527 
   55400   -1264.0809    147.78291   -1116.2979     2291.179     131527.4    10.472245    3.2230171 
   55500   -1262.0585    152.39967   -1109.6589    2362.7558    134320.83    10.472245    3.3309052 
   55600   -1280.7977    154.25456   -1126.5432    2391.5135    121775.12    10.472245    3.2042168 
   55700   -1267.4931    155.69018    -1111.803    2413.7708    130435.63    10.472245    3.2677391 
   55800   -1257.6765    147.09746   -1110.5791    2280.5521    136488.91    10.472245      3.23146 
   55900   -1274.7243     152.6384   -1122.0859     2366.457    125980.97    10.472245    3.1996402 
   56000   -1267.7454    152.81714   -1114.9283    2369.2282    129978.91    10.472245     3.244505 
   56100   -1272.7651    159.66657   -1113.0986    2475.4196     128420.4    10.472245    3.2736355 
   56200   -1268.2647    152.87242   -1115.3923    2370.0851    130138.88    10.472245    3.2608979 
   56300   -1280.0233    158.16785   -1121.8555    2452.1838    123670.62    10.472245    3.1587194 
   56400    -1267.564    160.44151   -1107.1225     2487.434    132764.85    10.472245    3.2585442 
   56500   -1263.1484    157.62631   -1105.5221     2443.788    133630.85    10.472245    3.2951888 
   56600   -1268.9732    144.21384   -1124.7594    2235.8454    129870.41    10.472245    3.1798619 
   56700   -1269.0017    158.86166     -1110.14    2462.9404    130322.31    10.472245    3.2178034 
   56800   -1267.8057    155.97423   -1111.8314    2418.1747    131042.86    10.472245    3.1849064 
   56900   -1266.8901      157.132   -1109.7581    2436.1244    131119.72    10.472245    3.3489534 
   57000   -1260.1921    158.12305    -1102.069    2451.4893    135590.66    10.472245     3.229129 
   57100   -1267.8405    148.71557   -1119.1249    2305.6387    130073.98    10.472245    3.2235645 
   57200   -1269.6107    152.95076     -1116.66    2371.2998    129498.01    10.472245    3.3372089 
   57300   -1260.9059     159.5757   -1101.3302    2474.0107    135901.13    10.472245    3.3170308 
   57400   -1273.4222    155.33111   -1118.0911    2408.2039    127610.64    10.472245    3.2185333 
   57500   -1267.9439    149.37481   -1118.5691    2315.8593    131190.35    10.472245    3.3080985 
   57600   -1265.6482    153.69798   -1111.9502    2382.8845    132396.42    10.472245    3.2198185 
   57700   -1258.5817    166.28432   -1092.2973    2578.0191    137762.17    10.472245     3.392488 
   57800   -1259.5546    147.65456   -1111.9001    2289.1891     137076.2    10.472245    3.2307558 
   57900   -1265.9736    149.14606   -1116.8275    2312.3129    132119.34    10.472245    3.2483746 
   58000   -1265.2431    164.54873   -1100.6944     2551.111    134312.05    10.472245    3.2793248 
   58100   -1264.5297    153.97339   -1110.5563    2387.1544    133783.26    10.472245    3.2460199 
   58200   -1269.0501      152.835   -1116.2151    2369.5051     128851.3    10.472245    3.3213079 
   58300   -1265.0834    158.85939    -1106.224    2462.9052    132760.09    10.472245    3.2948185 
   58400   -1261.8735    153.32066   -1108.5529    2377.0345    134732.43    10.472245    3.2459786 
   58500   -1267.3609    148.94197   -1118.4189    2309.1488    130949.32    10.472245    3.2759682 
   58600   -1265.5972    158.30278   -1107.2944    2454.2758    132412.61    10.472245    3.3469406 
   58700    -1252.085    160.49331   -1091.5917     2488.237    142339.32    10.472245    3.2780606 
   58800   -1267.8627    152.91706   -1114.9457    2370.7773    131055.31    10.472245    3.2586072 
   58900    -1264.934    147.08582   -1117.8482    2280.3716    131534.06    10.472245    3.3148469 
   59000    -1260.314    159.30221   -1101.0118    2469.7707    136897.43    10.472245    3.3053537 
   59100   -1270.5561    157.59482   -1112.9613    2443.2998       128895    10.472245    3.2992895 
   59200   -1266.3229    153.22737   -1113.0955    2375.5882    131311.69    10.472245     3.326149 
   59300    -1268.556    150.52209   -1118.0339    2333.6465    129847.74    10.472245    3.2031304 
   59400   -1274.6564    143.88092   -1130.7755    2230.6838    125206.25    10.472245    3.1923931 
   59500   -1270.6956    160.41945   -1110.2762    2487.0919    129809.68    10.472245     3.252452 
   59600   -1268.6551    145.70836   -1122.9467    2259.0158    130490.33    10.472245     3.167199 
   59700   -1275.0727    155.32603   -1119.7466    2408.1252    125998.85    10.472245    3.1557143 
   59800   -1263.1406    160.75796   -1102.3826    2492.3401    134681.23    10.472245     3.332341 
   59900   -1267.7424    149.14104   -1118.6013    2312.2351    131734.92    10.472245    3.2162358 
   60000    -1269.391    153.72145   -1115.6695    2383.2483     130320.7    10.472245    3.2044754 
   60100   -1256.4154    150.26461   -1106.1508    2329.6545    138284.02    10.472245    3.3105961 
   60200    -1270.092    162.72818   -1107.3638    2522.8857    128758.78    10.472245    3.2054649 
   60300   -1264.1474     142.9699   -1121.1775    2216.5597    132670.81    10.472245    3.2391404 
   60400   -1264.4232    158.44897   -1105.9743    2456.5422    133476.96    10.472245    3.3592473 
   60500   -1263.4292    154.86883   -1108.5604    2401.0368     133254.8    10.472245    3.2511809 
   60600    -1253.675    137.42404    -1116.251    2130.5785     139311.1    10.472245    3.3039481 
   60700   -1253.7599    160.74976   -1093.0101     2492.213    140577.65    10.472245    3.2164607 
   60800   -1271.3243    161.10724    -1110.217    2497.7553    129214.67    10.472245    3.2381404 
   60900   -1265.4712     149.4798   -1115.9914     2317.487     131237.7    10.472245    3.3575907 
   61000   -1256.8255    158.75787   -1098.0677    2461.3313    138691.15    10.472245    3.2246163 
   61100   -1263.1414     158.3375   -1104.8039     2454.814    133921.49    10.472245    3.2620416 
   61200   -1262.9908    150.63902   -1112.3518    2335.4593    133265.88    10.472245    3.2528381 
   61300   -1269.9125    148.59974   -1121.3128     2303.843    129693.05    10.472245    3.1755157 
   61400   -1275.5091    142.80138   -1132.7077     2213.947    124737.95    10.472245    3.2372274 
   61500   -1267.0929    154.20626   -1112.8866    2390.7645    131147.25    10.472245    3.3048254 
   61600   -1275.2883    162.39849   -1112.8898    2517.7744    127703.78    10.472245    3.2871321 
   61700   -1278.1164    146.29342    -1131.823    2268.0864    124014.14    10.472245     3.260882 
   61800   -1270.9024    154.49989   -1116.4025     2395.317    129142.78    10.472245     3.172265 
   61900   -1272.8589    158.21134   -1114.6475    2452.8582    127649.49    10.472245     3.271716 
   62000   -1274.4011    155.97875   -1118.4223    2418.2448    126317.22    10.472245    3.1835387 
   62100   -1264.2276    155.91705   -1108.3106    2417.2882    134107.42    10.472245    3.3152186 
   62200   -1265.5235    154.64864   -1110.8749    2397.6231       132971    10.472245    3.2413845 
   62300    -1266.769     145.9974   -1120.7716    2263.4971    131047.98    10.472245    3.2914633 
   62400   -1256.5956    145.96604   -1110.6296    2263.0109    137723.41    10.472245      3.20611 
   62500   -1263.3121    151.43491   -1111.8772    2347.7985    132550.27    10.472245    3.3284497 
   62600   -1263.9743    150.12524    -1113.849    2327.4938    132528.81    10.472245    3.2992703 
   62700   -1272.4311    155.20773   -1117.2233    2406.2911    127236.66    10.472245    3.1830197 
   62800   -1277.0371    145.60631   -1131.4308    2257.4337    124087.63    10.472245    3.2417666 
   62900   -1266.4329     156.3974   -1110.0355    2424.7353     131536.7    10.472245    3.3044831 
   63000   -1271.5895    155.66793   -1115.9216     2413.426    128301.06    10.472245     3.201369 
   63100   -1272.7378    150.10075   -1122.6371    2327.1142    127831.34    10.472245    3.2230566 
   63200   -1259.0789    153.44813   -1105.6308    2379.0108    136159.32    10.472245    3.2098675 
   63300   -1275.9183    152.54998   -1123.3683    2365.0863    124882.76    10.472245    3.2481709 
   63400   -1266.2698    152.36616   -1113.9037    2362.2363    132553.75    10.472245    3.2048504 
   63500   -1248.0496    156.18182   -1091.8678     2421.393    142947.19    10.472245     3.312815 
   63600   -1263.1237    148.77407   -1114.3497    2306.5457    133440.44    10.472245    3.2267327 
   63700   -1262.1376    144.21644   -1117.9212    2235.8857    133418.73    10.472245    3.3583584 
   63800   -1271.5686    149.17522   -1122.3934     2312.765    127299.33    10.472245    3.2361871 
   63900   -1261.0042    156.94885   -1104.0553    2433.2849    136396.91    10.472245    3.3260051 
   64000   -1268.5946    152.32359   -1116.2711    2361.5763    130122.22    10.472245    3.2246908 
   64100   -1274.3279    150.81567   -1123.5122    2338.1981    125757.25    10.472245    3.2687533 
   64200    -1262.985    153.35837   -1109.6266    2377.6192    133809.66    10.472245    3.2571138 
   64300   -1276.1383    150.81595   -1125.3223    2338.2023    123602.18    10.472245    3.1874707 
   64400   -1273.9246    150.74889   -1123.1757    2337.1626    125683.55    10.472245    3.1512317 
   64500   -1261.1832    150.31888   -1110.8643     2330.496    135137.58    10.472245    3.1923121 
   64600   -1275.0995    152.69923   -1122.4002    2367.4001    125796.56    10.472245    3.2891524 
   64700   -1278.2867    142.15512   -1136.1315    2203.9276    122780.42    10.472245    3.1799297 
   64800   -1266.8543     152.1112   -1114.7431    2358.2835    130837.39    10.472245    3.2615595 
   64900   -1262.5817    153.07743   -1109.5042    2373.2636    135213.12    10.472245    3.2691657 
   65000   -1267.3207    142.87383   -1124.4469    2215.0703    130035.37    10.472245    3.2360266 
   65100   -1274.8609    157.11243   -1117.7485    2435.8209    126882.25    10.472245    3.1849876 
   65200   -1260.5667    150.55649   -1110.0102    2334.1798    135560.11    10.472245    3.2221835 
   65300   -1274.2716     155.1856   -1119.0859     2405.948    126356.27    10.472245    3.2494865 
   65400    -1270.187    145.63791   -1124.5491    2257.9236    129330.99    10.472245    3.3047145 
   65500   -1257.3985    146.92443   -1110.4741    2277.8694    136271.69    10.472245    3.3449092 
   65600   -1255.8236    157.30505   -1098.5185    2438.8072    139702.13    10.472245    3.3529903 
   65700   -1263.2879    143.47542   -1119.8124    2224.3971    131784.03    10.472245    3.2802101 
   65800   -1266.2714    157.50246   -1108.7689    2441.8678    131931.18    10.472245    3.2343194 
   65900    -1263.333    144.57265   -1118.7603    2241.4083     132194.6    10.472245     3.292505 
   66000   -1275.9073    145.36445   -1130.5428     2253.684    123281.98    10.472245    3.2478181 
   66100   -1263.2688     150.8899   -1112.3789    2339.3488     134238.3    10.472245      3.21369 
   66200    -1262.889     149.3942   -1113.4948      2316.16    132612.35    10.472245    3.2454397 
   66300   -1277.6527    145.38875   -1132.2639    2254.0607    122335.26    10.472245    3.1793201 
   66400    -1269.021    149.43753   -1119.5835    2316.8317    129571.62    10.472245    3.2379044 
   66500   -1265.6328    151.75677    -1113.876    2352.7885    132103.43    10.472245    3.2748301 
   66600   -1258.9739    153.40543   -1105.5685    2378.3488    136345.68    10.472245    3.2234272 
   66700   -1269.5759    156.76427   -1112.8116    2430.4232    130141.09    10.472245     3.341774 
   66800   -1274.1911    151.18419   -1123.0069    2343.9114    126358.97    10.472245    3.2595499 
   66900   -1255.6871    149.48728   -1106.1998     2317.603    137992.98    10.472245    3.2631657 
   67000   -1260.1676    151.84895   -1108.3186    2354.2176    136228.37    10.472245    3.2549545 
   67100    -1274.574    152.78618   -1121.7878    2368.7482    126955.97    10.472245    3.2250399 
   67200   -1269.3505    158.70791   -1110.6425    2460.5568    130796.42    10.472245    3.1722311 
   67300   -1261.7235    158.24811   -1103.4754    2453.4282    134994.97    10.472245    3.2580709 
   67400   -1272.3274    149.87332    -1122.454    2323.5881    126882.77    10.472245    3.1948219 
   67500   -1261.7482    151.48721    -1110.261    2348.6093    134612.62    10.472245    3.2552212 
   67600   -1255.6784    144.74989   -1110.9286    2244.1561    139068.71    10.472245    3.3334492 
   67700   -1279.7999    142.20659   -1137.5933    2204.7256    122122.67    10.472245    3.2413065 
   67800   -1274.9081    152.36242   -1122.5457    2362.1783    125246.99    10.472245    3.1738904 
   67900   -1264.7276    156.57587   -1108.1517    2427.5023    134244.48    10.472245    3.2440253 
   68000   -1269.4458    151.84095   -1117.6048    2354.0937    130726.54    10.472245    3.2636735 
   68100   -1275.9446    150.72209   -1125.2225    2336.7472    124789.84    10.472245     3.229517 
   68200   -1265.0252    149.33356   -1115.6916    2315.2199    132332.85    10.472245     3.263513 
   68300   -1264.8359     155.5484   -1109.2875    2411.5727     133149.5    10.472245    3.2869555 
   68400   -1257.3027    149.58591   -1107.7168    2319.1322    137157.03    10.472245    3.1811574 
   68500   -1276.7928    151.92776    -1124.865    2355.4395    122935.45    10.472245    3.2422232 
   68600   -1264.0262    150.77776   -1113.2485    2337.6102    133549.42    10.472245    3.2504273 
   68700   -1261.4706    153.95906   -1107.5115    2386.9322    135547.99    10.472245     3.323678 
   68800   -1269.8811    152.64107   -1117.2401    2366.4985    127865.57    10.472245    3.2157874 
   68900   -1276.3746     139.0942   -1137.2804    2156.4721    123299.66    10.472245    3.1261072 
   69000   -1276.9059    156.56021   -1120.3457    2427.2596    124108.05    10.472245    3.1843634 
   69100   -1258.6983    147.12987   -1111.5685    2281.0546    137027.88    10.472245    3.2700625 
   69200   -1257.1015     155.2305    -1101.871    2406.6441    138156.15    10.472245    3.2865306 
   69300   -1272.1471    149.89141   -1122.2557    2323.8686    127648.14    10.472245    3.2936231 
   69400   -1267.2622    155.85504   -1111.4071    2416.3268    130980.23    10.472245     3.320184 
   69500   -1255.2777    157.46204   -1097.8157    2441.2412    139871.66    10.472245    3.2984228 
   69600   -1271.3651    149.95843   -1121.4066    2324.9076    127440.74    10.472245    3.2290173 
   69700    -1266.919    156.62224   -1110.2968    2428.2211    132162.82    10.472245    3.2997169 
   69800   -1265.9134     159.4936   -1106.4198    2472.7378    132645.13    10.472245    3.3658191 
   69900   -1272.7418    149.56884    -1123.173    2318.8675    125843.16    10.472245    3.1782303 
   70000   -1265.6888    157.93828   -1107.7505    2448.6246    133047.05    10.472245    3.2568383 
   70100   -1269.9529    149.29574   -1120.6572    2314.6335     128757.2    10.472245    3.3433404 
   70200   -1271.1071    150.68637   -1120.4207    2336.1934    128927.41    10.472245    3.2221299 
   70300   -1268.8243    158.09497   -1110.7294    2451.0539    130643.06    10.472245    3.2546913 
   70400   -1252.7196    147.77564    -1104.944    2291.0663    139342.95    10.472245    3.3017063 
   70500   -1258.4061    150.67899   -1107.7271     2336.079    137455.83    10.472245    3.3040625 
   70600   -1264.8619    144.54912   -1120.3127    2241.0435    131331.19    10.472245    3.1620015 
   70700   -1264.2016    155.12511   -1109.0765    2405.0102    134000.45    10.472245     3.349783 
   70800    -1261.851    158.58994    -1103.261    2458.7277    136769.62    10.472245    3.2077318 
   70900   -1264.9817    148.08323   -1116.8984    2295.8352    132178.91    10.472245    3.3112107 
   71000   -1253.4947    145.13648   -1108.3583    2250.1496    138389.28    10.472245    3.3245951 
   71100   -1261.4073    153.34872   -1108.0586    2377.4696    135183.26    10.472245    3.2307635 
   71200   -1272.7488    150.21591   -1122.5328    2328.8996    126702.77    10.472245    3.2444944 
   71300   -1255.7266    149.15909   -1106.5675    2312.5149     136763.8    10.472245    3.3299008 
   71400   -1269.1017    158.40709   -1110.6946    2455.8929    129660.89    10.472245     3.174812 
   71500    -1269.432     151.3959   -1118.0361    2347.1937    128342.08    10.472245    3.2424129 
   71600    -1261.166    153.10068   -1108.0654    2373.6241    134714.27    10.472245    3.1489982 
   71700   -1257.3867     149.8104   -1107.5764    2322.6125    137372.21    10.472245    3.2321528 
   71800   -1263.8914    150.65803   -1113.2333    2335.7539    131985.59    10.472245    3.3297049 
   71900   -1274.4268    145.60251   -1128.8243    2257.3748    125352.04    10.472245    3.2829328 
   72000   -1267.0218    149.95674   -1117.0651    2324.8815    131311.62    10.472245    3.2966661 
   72100   -1268.3266    155.13969   -1113.1869    2405.2362    131019.98    10.472245    3.2120475 
   72200   -1265.1258    141.30678    -1123.819    2190.7751    132332.82    10.472245     3.214369 
   72300   -1274.0214    156.90515   -1117.1162    2432.6074    127012.25    10.472245    3.1280177 
   72400   -1260.8171    150.33794   -1110.4792    2330.7914    135948.89    10.472245     3.257071 
   72500   -1270.9833    143.13439   -1127.8489    2219.1099    128208.75    10.472245    3.2445082 
   72600   -1269.7115    148.55522   -1121.1563    2303.1527    129450.43    10.472245    3.2430287 
   72700   -1261.6792    148.41397   -1113.2652    2300.9628     133907.5    10.472245    3.2934051 
   72800   -1269.4277    152.46854   -1116.9592    2363.8235     129829.8    10.472245    3.2429113 
   72900   -1275.1798    157.34041   -1117.8394    2439.3555    126251.07    10.472245    3.2612117 
   73000   -1263.6813    160.39523   -1103.2861    2486.7165    133251.96    10.472245    3.2405248 
   73100   -1266.5343    148.02455   -1118.5097    2294.9254     131204.4    10.472245    3.2980551 
   73200   -1277.9982     163.3312    -1114.667    2532.2348    125354.93    10.472245    3.2578992 
   73300   -1264.1795    147.28283   -1116.8967     2283.426    132435.11    10.472245    3.2884564 
   73400   -1267.7391     141.1684   -1126.5707    2188.6298    128387.38    10.472245    3.2922907 
   73500   -1263.4213    153.44282   -1109.9785    2378.9286    132533.82    10.472245    3.2602909 
   73600   -1273.5664    152.16139    -1121.405    2359.0616    126934.25    10.472245     3.217817 
   73700   -1275.2111    135.17765   -1140.0334    2095.7512     124810.3    10.472245    3.2456389 
   73800   -1270.6876    153.94217   -1116.7455    2386.6702    128583.52    10.472245    3.2121667 
   73900   -1264.4054    154.28599   -1110.1194    2392.0008    132815.29    10.472245    3.2073758 
   74000   -1270.7528    147.57599   -1123.1768     2287.971    128097.52    10.472245    3.2352175 
   74100   -1271.2873     147.3728   -1123.9145    2284.8209    127758.61    10.472245    3.1836674 
   74200   -1258.0231     150.3811    -1107.642    2331.4605       137353    10.472245    3.2602972 
   74300   -1267.2219    145.63756   -1121.5844    2257.9183    129495.86    10.472245    3.1531498 
   74400   -1265.0489    147.17036   -1117.8785    2281.6823    131198.86    10.472245    3.2628729 
   74500   -1258.6276    154.01377   -1104.6138    2387.7803     138023.4    10.472245    3.2057453 
   74600   -1273.6954    154.17625   -1119.5191    2390.2993     126460.2    10.472245    3.2193041 
   74700    -1271.468    151.10558   -1120.3624    2342.6927    128635.83    10.472245    3.2157806 
   74800   -1263.2136    155.17815   -1108.0354    2405.8325    134526.52    10.472245      3.26261 
   74900   -1266.7912    144.89895   -1121.8922     2246.467    130328.07    10.472245    3.2763478 
   75000   -1271.3425    155.67688   -1115.6657    2413.5646    128831.65    10.472245    3.1371528 
   75100   -1253.8034    147.61524   -1106.1881    2288.5796    139689.07    10.472245    3.1944088 
   75200   -1272.0791    148.00434   -1124.0747    2294.6121    126885.71    10.472245    3.1934033 
   75300   -1273.0539    155.58179   -1117.4721    2412.0904    127015.76    10.472245     3.238611 
   75400    -1262.818    148.79827   -1114.0197    2306.9208    133398.05    10.472245    3.2404891 
   75500   -1268.1221    150.97334   -1117.1487    2340.6425    130078.67    10.472245    3.3928346 
   75600   -1273.3112     145.8548   -1127.4564    2261.2862    126131.52    10.472245    3.2707541 
   75700   -1269.5244    160.38481   -1109.1396    2486.5549    130747.25    10.472245    3.1933715 
   75800   -1266.2201     151.0039   -1115.2162    2341.1163    132497.97    10.472245     3.232147 
   75900   -1260.7986    144.88652   -1115.9121    2246.2744    135216.42    10.472245    3.2878553 
   76000   -1259.7594    155.76742    -1103.992    2414.9684    136839.57    10.472245    3.2375675 
   76100   -1274.3635    151.07541   -1123.2881    2342.2249    126648.21    10.472245    3.2803576 
   76200   -1262.3314    142.34064   -1119.9908    2206.8039    132974.79    10.472245    3.1658265 
   76300   -1268.8695    155.06486   -1113.8046    2404.0761    130189.91    10.472245    3.2580597 
   76400   -1267.7112    158.18103   -1109.5301    2452.3882    133003.28    10.472245    3.3404924 
   76500   -1263.4324    153.69932   -1109.7331    2382.9052    134318.04    10.472245    3.3038484 
   76600    -1269.869    147.30732   -1122.5617    2283.8056    127959.31    10.472245    3.1392252 
   76700   -1258.3527    155.13904   -1103.2136    2405.2261    137671.62    10.472245     3.278404 
   76800   -1268.3102     157.2335   -1111.0767    2437.6979     130537.4    10.472245    3.1628055 
   76900   -1272.2486    150.48568   -1121.7629    2333.0819    127746.52    10.472245    3.2078241 
   77000   -1281.1941    158.59975   -1122.5944    2458.8799    122803.05    10.472245      3.24802 
   77100    -1261.264    154.64955   -1106.6145    2397.6373    135943.35    10.472245    3.2609001 
   77200   -1267.0448    143.78326   -1123.2616    2229.1698    129319.98    10.472245     3.267422 
[...]
  481400   -1259.0708     157.0001   -1102.0707    2434.0794    136655.26    10.472245    12.588402 
  481500    -1255.824    156.48685   -1099.3372    2426.1222    140514.19    10.472245     12.67407 
  481600   -1263.7412    143.86661   -1119.8746     2230.462    132335.41    10.472245    12.403113 
  481700   -1265.7209    154.32144   -1111.3994    2392.5504    131488.23    10.472245    12.461652 
  481800   -1269.2984    164.85379   -1104.4446    2555.8405    132182.56    10.472245    12.618083 
  481900   -1266.4529    151.22896    -1115.224    2344.6055    132274.81    10.472245    12.659335 
  482000   -1264.5997    145.79811   -1118.8016    2260.4074    131985.05    10.472245    12.599588 
  482100    -1264.137    151.85042   -1112.2866    2354.2404    132052.33    10.472245    12.703211 
  482200   -1262.3731    155.17366   -1107.1995    2405.7628     134323.8    10.472245    12.563854 
  482300   -1269.5847    147.15003   -1122.4347    2281.3671    128845.49    10.472245    12.445911 
  482400   -1269.8721    155.14018    -1114.732    2405.2439    131004.28    10.472245      12.3647 
  482500   -1258.8193    150.40363   -1108.4156    2331.8098    136043.59    10.472245    12.345274 
  482600     -1264.96    146.66778   -1118.2922    2273.8904    131857.56    10.472245    12.623018 
  482700   -1273.2634    152.03919   -1121.2242     2357.167    126061.01    10.472245     12.65679 
  482800   -1264.4587    158.63527   -1105.8234    2459.4306    133307.72    10.472245    12.539775 
  482900   -1264.1505     154.9097   -1109.2408    2401.6705    133352.13    10.472245    12.540673 
  483000   -1269.0212    142.57249   -1126.4487    2210.3984       127586    10.472245    12.309122 
  483100   -1263.2544    152.14069   -1111.1137    2358.7407    132868.13    10.472245      12.5233 
  483200   -1259.3652    147.72332   -1111.6419    2290.2552    135967.62    10.472245    12.292608 
  483300    -1269.799    155.16864   -1114.6303    2405.6851    127254.67    10.472245    12.410434 
  483400   -1262.2766    146.17471   -1116.1019    2266.2461    135132.66    10.472245    12.588285 
  483500   -1255.6131    156.16857   -1099.4446    2421.1877    137931.71    10.472245    12.481634 
  483600   -1264.4054    148.74837   -1115.6571    2306.1472    132387.11    10.472245    12.414866 
  483700   -1268.3641    153.17249   -1115.1917    2374.7373    129605.23    10.472245    12.540596 
  483800   -1251.4296    154.79073   -1096.6389    2399.8261    142120.49    10.472245    12.542581 
  483900   -1259.6239    153.25031   -1106.3736    2375.9439    134841.26    10.472245    12.361632 
  484000   -1270.1245    151.80979   -1118.3147    2353.6105    129074.17    10.472245    12.307779 
  484100   -1270.1857    144.56373   -1125.6219    2241.2699    128676.32    10.472245     12.57893 
  484200    -1256.933    152.71249   -1104.2205    2367.6057    136794.98    10.472245    12.666693 
  484300   -1266.7643     150.9216   -1115.8427    2339.8403    131521.64    10.472245    12.299177 
  484400   -1264.3751    144.66227   -1119.7128    2242.7977    131667.16    10.472245    12.519565 
  484500   -1261.8768    152.32684     -1109.55    2361.6267    133745.99    10.472245    12.555423 
  484600    -1255.405    153.95801    -1101.447    2386.9159    138144.89    10.472245    12.446895 
  484700   -1278.9669    157.53834   -1121.4286    2442.4241    124299.77    10.472245    12.614149 
  484800   -1261.9405    147.87864   -1114.0618    2292.6632    134166.69    10.472245    12.594584 
  484900   -1258.0784    159.80559   -1098.2729    2477.5748    137615.52    10.472245    12.456004 
  485000   -1273.5335    162.34082   -1111.1927    2516.8802    128004.85    10.472245    12.490659 
  485100   -1267.9874     145.9128   -1122.0746    2262.1855    130222.53    10.472245    12.233435 
  485200   -1262.2664    159.39842    -1102.868    2471.2622    135396.01    10.472245    12.385167 
  485300   -1258.4338    152.97711   -1105.4567    2371.7082    137086.02    10.472245    12.407677 
  485400   -1271.6603    158.44633    -1113.214    2456.5014    129550.88    10.472245    12.366194 
  485500   -1278.3597    146.44467    -1131.915    2270.4315    123596.05    10.472245    12.372274 
  485600   -1271.9773    147.04538    -1124.932    2279.7445    127826.33    10.472245    12.587404 
  485700   -1260.4736    148.81056    -1111.663    2307.1114    135334.52    10.472245    12.497073 
  485800    -1272.669    154.80371   -1117.8653    2400.0272    128847.35    10.472245    12.511376 
  485900   -1281.0482    150.75889   -1130.2894    2337.3176    122420.77    10.472245    12.338648 
  486000   -1264.3658    147.53418   -1116.8316    2287.3228    132916.16    10.472245     12.43636 
  486100   -1258.6394    151.97964   -1106.6598    2356.2438     137969.4    10.472245    12.543024 
  486200   -1276.0739    153.68402   -1122.3899    2382.6679     125153.9    10.472245    12.506017 
  486300   -1272.5196    147.64999   -1124.8696    2289.1183    127121.63    10.472245    12.285631 
  486400   -1265.9112    157.28983   -1108.6214    2438.5713    133038.79    10.472245    12.373947 
  486500   -1267.9833     153.1689   -1114.8144    2374.6817    129725.38    10.472245    12.540174 
  486600   -1273.4907    141.90104   -1131.5897    2199.9884    126497.24    10.472245    12.270233 
  486700   -1264.3862    150.59827   -1113.7879    2334.8275    133142.12    10.472245     12.42687 
  486800   -1265.2799    153.42265   -1111.8572    2378.6158    132049.93    10.472245    12.643863 
  486900   -1277.1909    150.16911   -1127.0218    2328.1739    125577.14    10.472245     12.66099 
  487000   -1269.9458    162.82466   -1107.1211    2524.3816    129940.36    10.472245    12.311295 
  487100   -1258.3792    146.24278   -1112.1365    2267.3013     135735.6    10.472245    12.785797 
  487200   -1276.1504    144.57129   -1131.5791    2241.3872    124875.95    10.472245    12.409199 
  487300   -1264.0485    148.99635   -1115.0521    2309.9918    132619.49    10.472245    12.418769 
  487400    -1253.576    152.53342   -1101.0426    2364.8295    140894.32    10.472245    12.617987 
  487500   -1262.2584    153.09858   -1109.1598    2373.5915    133149.21    10.472245    12.667769 
  487600   -1261.8795    141.82043   -1120.0591    2198.7386    135055.09    10.472245    12.816207 
  487700   -1248.3412    147.02208   -1101.3191    2279.3834    143668.26    10.472245    12.870564 
  487800   -1264.0264    156.75207   -1107.2743    2430.2341    134657.32    10.472245    12.690389 
  487900   -1256.7231    139.82209    -1116.901    2167.7571    136133.71    10.472245     13.04281 
  488000   -1257.7578    162.73346   -1095.0243    2522.9676    138196.89    10.472245    12.949785 
  488100    -1262.471    152.35945   -1110.1115    2362.1323    134093.77    10.472245    12.957915 
  488200   -1269.3767    151.04465    -1118.332     2341.748    129580.15    10.472245    13.032335 
  488300   -1267.5861    157.43135   -1110.1548    2440.7653    131488.41    10.472245    13.077525 
  488400   -1259.2934    153.01321   -1106.2802     2372.268    135806.65    10.472245    13.217395 
  488500   -1270.7145    150.68707   -1120.0274    2336.2042     128537.1    10.472245     13.05734 
  488600   -1261.0486    154.54745   -1106.5011    2396.0544    135704.59    10.472245    13.067409 
  488700   -1251.2169    143.02624   -1108.1906    2217.4331    141070.75    10.472245    13.074159 
  488800   -1268.4579    155.21154   -1113.2463    2406.3502    130531.26    10.472245    13.093379 
  488900   -1269.3604    156.88607   -1112.4744    2432.3116    130225.63    10.472245     13.16633 
  489000   -1268.7695    147.76001   -1121.0095     2290.824    128844.52    10.472245    13.040667 
  489100   -1270.9607    155.44998   -1115.5108    2410.0468    128311.71    10.472245    13.097343 
  489200   -1262.1738     162.7582   -1099.4156    2523.3512    135565.39    10.472245    13.029224 
  489300   -1266.1025    144.14001   -1121.9625    2234.7007    131620.45    10.472245     13.00975 
  489400   -1265.9197    151.23515   -1114.6845    2344.7014    131753.61    10.472245    13.021573 
  489500   -1258.5103    155.07313   -1103.4372    2404.2043    137109.95    10.472245    13.110532 
  489600   -1275.8023    149.91107   -1125.8913    2324.1734    124479.26    10.472245    12.948966 
  489700   -1270.1576    159.58034   -1110.5772    2474.0826    129948.98    10.472245    13.006915 
  489800   -1265.8471    151.78667   -1114.0604    2353.2521    132656.59    10.472245    13.121428 
  489900   -1268.8233    137.88093   -1130.9424    2137.6619    127772.85    10.472245    13.163556 
  490000   -1273.1874    157.45308   -1115.7343    2441.1022    128394.19    10.472245     13.08944 
  490100   -1266.6501    156.01656   -1110.6335     2418.831    133695.84    10.472245    13.178063 
  490200   -1269.2855    138.56983   -1130.7157    2148.3424    128998.16    10.472245    13.196399 
  490300   -1266.8272    150.47949   -1116.3477    2332.9859    131772.47    10.472245    13.076875 
  490400   -1260.3568    144.89457   -1115.4622    2246.3991    134180.11    10.472245    12.887838 
  490500   -1266.7856    155.13942   -1111.6461    2405.2321     131010.3    10.472245    13.182865 
  490600    -1270.403    149.58392   -1120.8191    2319.1013    128980.73    10.472245    13.045474 
  490700   -1272.8562    152.64411   -1120.2121    2366.5455    127746.44    10.472245    12.998152 
  490800   -1270.4703    163.15304   -1107.3173    2529.4726     130012.7    10.472245    12.806279 
  490900   -1267.6126    155.32722   -1112.2854    2408.1436    131988.49    10.472245    12.983775 
  491000   -1272.3394    153.45803   -1118.8813    2379.1642     128637.5    10.472245    13.158068 
  491100   -1272.4947    143.89123   -1128.6035    2230.8437    127404.95    10.472245    13.026042 
  491200   -1271.6832    160.87624    -1110.807    2494.1738    127975.42    10.472245    12.822358 
  491300   -1274.3654    155.39905   -1118.9664    2409.2573    126143.65    10.472245     12.97184 
  491400   -1271.3372    143.53585   -1127.8014    2225.3339    127409.94    10.472245    13.019314 
  491500   -1265.0307    156.84554   -1108.1852    2431.6832    133085.34    10.472245    12.979038 
  491600   -1271.3874    155.90997   -1115.4774    2417.1785    128078.34    10.472245    13.026462 
  491700    -1268.836    137.54716   -1131.2889    2132.4873    128590.19    10.472245    12.987227 
  491800   -1265.9604    155.43525   -1110.5252    2409.8184    132747.01    10.472245    13.043082 
  491900   -1265.5335    149.49708   -1116.0364     2317.755     130660.7    10.472245    13.080418 
  492000   -1269.6909    153.26533   -1116.4256    2376.1767    129189.92    10.472245    12.904195 
  492100   -1261.5868    158.33921   -1103.2476    2454.8405    136080.76    10.472245      13.1371 
  492200   -1269.2806     147.3047   -1121.9759    2283.7651    128581.82    10.472245    13.239238 
  492300    -1267.657    143.96484   -1123.6921    2231.9849    130647.98    10.472245    13.023133 
  492400   -1263.7344    150.66124   -1113.0732    2335.8038     133120.1    10.472245    12.900459 
  492500   -1256.3007    154.23151   -1102.0691    2391.1561    138692.95    10.472245    13.210518 
  492600   -1265.5937    153.32503   -1112.2686    2377.1023    130530.81    10.472245    12.980097 
  492700   -1274.1008    153.33401   -1120.7668    2377.2416    126670.82    10.472245    13.081205 
  492800   -1254.1618    147.37611   -1106.7857    2284.8722    138690.43    10.472245    13.181209 
  492900   -1250.6423      165.483   -1085.1593    2565.5956    144226.68    10.472245     13.30792 
  493000   -1268.7328    162.97969   -1105.7532    2526.7851    132225.06    10.472245    12.848608 
  493100   -1271.8381    153.65718   -1118.1809    2382.2518    128255.35    10.472245    13.050974 
  493200   -1270.8747    145.07197   -1125.8027    2249.1496     126787.3    10.472245    13.014222 
  493300   -1263.5944    156.10029   -1107.4941    2420.1291    133429.97    10.472245    13.079938 
  493400   -1253.8021    150.23329   -1103.5688     2329.169    140606.93    10.472245    13.124092 
  493500   -1269.4232    150.85448   -1118.5688    2338.7996    129103.03    10.472245    13.254382 
  493600   -1267.9637    149.90334   -1118.0603    2324.0536    130060.55    10.472245     12.94386 
  493700    -1253.809    149.27461   -1104.5344    2314.3059    139362.53    10.472245    13.306047 
  493800   -1273.2487    155.21755   -1118.0312    2406.4434    127346.81    10.472245    12.991122 
  493900   -1268.2527    152.51514   -1115.7376    2364.5461     131352.2    10.472245     12.99945 
  494000   -1259.2727    152.05919   -1107.2136    2357.4771    135073.43    10.472245    13.059518 
  494100   -1267.6675     150.1705    -1117.497    2328.1955     131023.5    10.472245     13.07498 
  494200   -1262.8685    162.94126   -1099.9273    2526.1892    135993.23    10.472245    12.964182 
  494300   -1265.9331    161.60748   -1104.3256    2505.5107    132949.58    10.472245    12.838766 
  494400   -1263.2013     147.6627   -1115.5386    2289.3154    133602.11    10.472245    13.121259 
  494500   -1261.6207    151.82312   -1109.7976    2353.8172    134588.64    10.472245    12.960278 
  494600   -1263.9884    158.12795   -1105.8605    2451.5652    132905.08    10.472245    13.006758 
  494700   -1275.5048    152.35411   -1123.1507    2362.0494    124320.79    10.472245    12.883128 
  494800   -1264.5724    155.90786   -1108.6646    2417.1457    134232.83    10.472245    13.082033 
  494900   -1267.6842    156.64832   -1111.0359    2428.6255    130656.77    10.472245    12.942126 
  495000   -1262.6209    151.45581   -1111.1651    2348.1225    133399.88    10.472245    13.035811 
  495100   -1261.4445    166.40935   -1095.0351    2579.9574    137086.45    10.472245    13.124995 
  495200   -1269.2468    151.97897   -1117.2679    2356.2333    128849.73    10.472245    13.096333 
  495300   -1266.6836    151.84749   -1114.8361     2354.195    130303.34    10.472245    13.045537 
  495400   -1263.1462    164.57483   -1098.5714    2551.5156    136368.46    10.472245    13.014555 
  495500   -1256.3912    159.57456   -1096.8167     2473.993    138938.31    10.472245    13.366892 
  495600   -1266.6617    150.32285   -1116.3388    2330.5575     130535.6    10.472245    12.825288 
  495700   -1267.5606    156.59289   -1110.9677    2427.7661    131107.29    10.472245    13.080037 
  495800   -1252.8517    153.58167   -1099.2701    2381.0812     141117.6    10.472245    13.187955 
  495900     -1275.92     157.8998   -1118.0202    2448.0281    126316.66    10.472245    12.798727 
  496000   -1270.1743    152.08938   -1118.0849    2357.9451    129428.38    10.472245    13.150177 
  496100   -1264.7868    160.94614   -1103.8407    2495.2575    134015.62    10.472245    13.181248 
  496200   -1266.6529     151.2791   -1115.3738    2345.3829    131415.32    10.472245    12.973848 
  496300   -1268.0737    152.98983   -1115.0838    2371.9055    130250.49    10.472245    13.082316 
  496400    -1253.706    157.62002    -1096.086    2443.6904    140170.65    10.472245    13.212065 
  496500   -1261.8783    156.17857   -1105.6997    2421.3427    136842.84    10.472245    12.855489 
  496600    -1268.154    150.67001    -1117.484    2335.9397    129732.98    10.472245    13.203135 
  496700   -1269.2065    158.16035   -1111.0462    2452.0676    131030.97    10.472245    13.198848 
  496800   -1260.4862    155.63224   -1104.8539    2412.8725    135822.25    10.472245    13.066579 
  496900   -1273.9438    154.64341   -1119.3004    2397.5421    128607.06    10.472245    12.949803 
  497000   -1268.0687    149.27697   -1118.7917    2314.3425    130186.04    10.472245     13.11476 
  497100   -1267.8308    154.98906   -1112.8417    2402.9009    130990.14    10.472245    13.127339 
  497200   -1258.9028    159.60849   -1099.2943    2474.5191    137696.81    10.472245    12.926098 
  497300   -1277.5915    159.87712   -1117.7144    2478.6838    125123.57    10.472245     13.14594 
  497400   -1264.1072    140.19945   -1123.9078    2173.6075    131318.98    10.472245    13.248278 
  497500   -1265.9118    155.52494   -1110.3869     2411.209    131514.08    10.472245    13.080077 
  497600   -1267.2994    148.77508   -1118.5243    2306.5613    129725.61    10.472245    13.119301 
  497700   -1274.5704    138.69423   -1135.8762    2150.2711    125087.13    10.472245    12.946787 
  497800   -1260.6552    148.30266   -1112.3525    2299.2371    134417.22    10.472245    13.092594 
  497900   -1262.9101    153.46972   -1109.4403    2379.3455    135226.93    10.472245    13.175885 
  498000   -1263.1641     141.7574   -1121.4067    2197.7614    132863.86    10.472245    13.050941 
  498100   -1264.4557     148.6323   -1115.8234    2304.3477    131837.84    10.472245    13.172933 
  498200   -1256.1687     152.9125   -1103.2562    2370.7066    138776.61    10.472245    13.055591 
  498300   -1277.6476    155.75332   -1121.8942    2414.7498    123153.36    10.472245    13.151137 
  498400   -1269.6551    153.38664   -1116.2684    2378.0575    129492.85    10.472245    12.827869 
  498500   -1259.4519    155.29043   -1104.1615    2407.5733    136441.06    10.472245    13.006878 
  498600   -1268.4922    157.95626   -1110.5359    2448.9034    129765.82    10.472245    13.117861 
  498700   -1266.7589    143.28557   -1123.4733    2221.4537    131197.01    10.472245    13.066181 
  498800   -1261.2759    154.96431   -1106.3116    2402.5171    134507.06    10.472245     13.10361 
  498900   -1262.2855    152.14609   -1110.1394    2358.8245    134531.95    10.472245    13.033699 
  499000   -1264.8338    145.91042   -1118.9234    2262.1486     131929.9    10.472245     12.94335 
  499100   -1277.9946    149.95144   -1128.0432    2324.7992    122860.55    10.472245    12.885695 
  499200   -1267.5064    150.63516   -1116.8713    2335.3995    129958.98    10.472245    13.127949 
  499300   -1258.6743    144.13233    -1114.542    2234.5817    134932.64    10.472245    13.166439 
  499400   -1267.3014    155.93033   -1111.3711    2417.4941    131198.91    10.472245    13.118669 
  499500   -1261.5344    157.02066   -1104.5137    2434.3982    134220.28    10.472245    13.040321 
  499600     -1267.46    146.57514   -1120.8848    2272.4542    130513.51    10.472245    12.948296 
  499700   -1270.1906    170.18116   -1100.0094    2638.4343    130074.46    10.472245    12.924741 
  499800   -1263.9509    151.38158   -1112.5693    2346.9717     133215.1    10.472245     13.12424 
  499900   -1267.3815    159.61919   -1107.7623    2474.6849    131903.06    10.472245    13.004681 
  500000   -1257.1266     157.0151   -1100.1115    2434.3119    139470.48    10.472245    13.070273 
Loop time of 730.914 on 1 procs for 500000 steps with 500 atoms

Performance: 295.521 ns/day, 0.081 hours/ns, 684.075 timesteps/s
100.0% CPU use with 1 MPI tasks x no OpenMP threads

MPI task timing breakdown:
Section |  min time  |  avg time  |  max time  |%varavg| %total
---------------------------------------------------------------
Pair    | 432.96     | 432.96     | 432.96     |   0.0 | 59.24
Neigh   | 39.393     | 39.393     | 39.393     |   0.0 |  5.39
Comm    | 5.8848     | 5.8848     | 5.8848     |   0.0 |  0.81
Output  | 0.17112    | 0.17112    | 0.17112    |   0.0 |  0.02
Modify  | 251.26     | 251.26     | 251.26     |   0.0 | 34.38
Other   |            | 1.245      |            |       |  0.17

Nlocal:    500 ave 500 max 500 min
Histogram: 1 0 0 0 0 0 0 0 0 0
Nghost:    1966 ave 1966 max 1966 min
Histogram: 1 0 0 0 0 0 0 0 0 0
Neighs:    25969 ave 25969 max 25969 min
Histogram: 1 0 0 0 0 0 0 0 0 0

Total # of neighbors = 25969
Ave neighs/atom = 51.938
Neighbor list builds = 35924
Dangerous builds = 244
    
Total wall time: 0:12:10
