LAMMPS (3 Mar 2020)
Reading data file ...
  orthogonal box = (0 0 0) to (8.18 8.18 8.18)
  1 by 1 by 1 MPI processor grid
  reading atoms ...
  32 atoms
  read_data CPU = 0.00092246 secs
Reading potential file /usr/share/lammps-stable/potentials/Ag_u3.eam with DATE: 2007-06-11
Neighbor list info ...
  update every 1 steps, delay 10 steps, check yes
  max neighbors/atom: 2000, page size: 100000
  master list distance cutoff = 7.55
  ghost atom cutoff = 7.55
  binsize = 3.775, bins = 3 3 3
  2 neighbor lists, perpetual/occasional/extra = 1 1 0
  (1) pair eam, perpetual
      attributes: half, newton on
      pair build: half/bin/atomonly/newton
      stencil: half/bin/3d/newton
      bin: standard
  (2) compute rdf, occasional, copy from (1)
      attributes: half, newton on
      pair build: copy
      stencil: none
      bin: none
Setting up Verlet run ...
  Unit style    : metal
  Current step  : 0
  Time step     : 0.005
Per MPI rank memory allocation (min/avg/max) = 3.706 | 3.706 | 3.706 Mbytes
Step PotEng KinEng TotEng Temp Press Density c_msdall[4] 
       0        -91.2    4.9607458   -86.239254         1238    9680.6285    10.472245            0 
     100    -88.19131    3.3002064   -84.891104    823.59703   -12930.986    9.8949839  0.046303034 
     200   -86.525705    2.8216822   -83.704023    704.17688   -15307.378    9.6672592   0.09731203 
     300    -86.63407    3.9903669   -82.643703    995.83295    469.58551    9.8139281   0.11198788 
     400   -85.934953    4.4237843   -81.511169    1103.9963    20699.187    9.9523953   0.10220492 
     500   -85.611036    5.1022429   -80.508793    1273.3119    2017.7846    9.6740926   0.11950711 
     600   -85.275833    5.4475519   -79.828281     1359.487   -9315.0879    9.4609752   0.12049048 
     700   -85.967648    4.8403178    -81.12733    1207.9461   -18040.457    9.5042691  0.099713969 
     800   -85.976314    3.9651271   -82.011187    989.53413   -9601.0654    9.6158432   0.12003762 
     900   -84.514299    4.1388874   -80.375412    1032.8976    9001.6671    9.6385308   0.13748553 
    1000   -84.554258    5.0623267   -79.491931    1263.3505    11522.915    9.5941572   0.15043106 
    1100   -84.689341    5.6520051   -79.037336    1410.5101   -7591.1407    9.4374251   0.16087931 
    1200   -86.037813    4.0673159   -81.970497    1015.0363     5675.673    9.7856752   0.11479434 
    1300   -84.727451    3.8384143   -80.889037    957.91177   -1284.5745    9.5630768   0.15683046 
    1400   -85.321833    5.5442145   -79.777619      1383.61   -6720.6409    9.5386843   0.12163925 
    1500   -85.168661    4.6683046   -80.500356    1165.0186    2559.8791    9.6257235   0.13011348 
    1600   -85.871824    3.6234209   -82.248403     904.2582    -1346.832    9.6885889   0.11291732 
    1700   -84.869382    4.8075645   -80.061818    1199.7722   -2660.3514    9.5475678   0.15288228 
    1800   -84.669768    4.9748621   -79.694906    1241.5228    4051.3746    9.5445185   0.14861676 
    1900   -86.329282    4.7057562   -81.623526     1174.365    3714.7044    9.7977507   0.11875804 
    2000    -86.06096     4.378421   -81.682539    1092.6755    24095.527    10.008205  0.096288183 
    2100   -84.861497    5.4511561   -79.410341    1360.3864     1746.558    9.5417404   0.14869751 
    2200   -83.519174    3.5320667   -79.987108     881.4599    8982.5197    9.4762652   0.18430088 
    2300   -85.882976    3.9886111   -81.894365    995.39479   -31440.133    9.3899857   0.12944182 
    2400   -85.129071    4.8687634   -80.260308    1215.0449    13108.304     9.707017   0.14935728 
    2500   -85.036383    5.5675861   -79.468797    1389.4426    2316.2286    9.6057055   0.14041168 
    2600   -85.594952    4.6941896   -80.900762    1171.4784   -5244.9845    9.5922225   0.11321504 
    2700   -85.674203    3.8784435    -81.79576    967.90143   -316.35433    9.6921628     0.141398 
    2800   -84.204284    4.9884023   -79.215882    1244.9019   -4201.7753    9.3920644   0.13530953 
    2900   -84.159062     3.946531   -80.212531    984.89331   -6265.0316    9.4059926   0.16949709 
    3000   -86.428733    5.4250615   -81.003671    1353.8743   -10109.644    9.6549163   0.08697719 
    3100   -86.291056    3.5480618   -82.742995    885.45162    37262.153    10.158663  0.082606804 
    3200   -85.718293    3.8499189   -81.868374    960.78286    9911.7502    9.7636409   0.10763091 
    3300   -84.240388    3.6799286   -80.560459     918.3602   -33315.327    9.1476452   0.16616908 
    3400   -84.711994    4.5653745    -80.14662    1139.3314   -1473.5754    9.4915466   0.13357089 
    3500   -85.380542    6.4805861   -78.899956    1617.2902    17078.952    9.7725598    0.1309625 
    3600   -83.529815    7.1536194   -76.376196    1785.2519    26036.178    9.5986958   0.17936705 
    3700   -84.725856     4.676992   -80.048864    1167.1866    5543.1683    9.5875493   0.15102461 
    3800   -85.123737     4.796575   -80.327162    1197.0296   -32740.803    9.1961251   0.16099943 
    3900   -84.456379    4.2754517   -80.180928    1066.9785   -3939.3501    9.4386465   0.17180617 
    4000   -86.670787    4.4746791   -82.196108    1116.6976    -6602.528    9.7433737  0.084166037 
    4100   -85.841104    4.1951562   -81.645948      1046.94    22926.969    9.9734672   0.09600254 
    4200   -84.668905    4.5102097   -80.158695    1125.5645   -7779.8272    9.4649609   0.13139012 
    4300   -84.960165    5.0384654   -79.921699    1257.3956   -29860.548    9.2589324   0.16093561 
    4400   -83.255376    4.9995846   -78.255792    1247.6926    992.15667    9.3412077    0.1746652 
    4500   -82.557343    5.6869928    -76.87035    1419.2416    5545.0332    9.2550586   0.34906026 
    4600   -84.358087    4.1900779   -80.168009    1045.6727    8641.5037    9.6274389   0.14866502 
    4700   -85.516048    5.3187234   -80.197325    1327.3366   -9320.1852    9.5713175   0.13179311 
    4800   -85.882875    6.2986325   -79.584242     1571.882    11572.392    9.8023563   0.10247596 
    4900   -86.337061    4.4121247   -81.924936    1101.0865    27736.923     10.06616  0.096454448 
    5000   -85.908556    4.0722865   -81.836269    1016.2768   -26600.237    9.4297487  0.098465114 
    5100   -84.728255    4.3665928   -80.361662    1089.7236   -22525.433    9.3513186   0.16694945 
    5200   -84.901416    5.4429883   -79.458427    1358.3481    10633.568    9.6545801     0.124355 
    5300   -85.977098    5.3346356   -80.642462    1331.3077    24696.449    9.9485639   0.11933481 
    5400   -87.060403    5.1178841   -81.942519    1277.2153    -10000.77     9.725246  0.067631205 
    5500   -85.042332    5.0426579   -79.999674    1258.4419   -18622.146    9.3598382   0.14687074 
    5600   -84.685563    5.0195501   -79.666013    1252.6751   -9872.5001    9.4252886   0.15005552 
    5700   -86.323262    4.2760385   -82.047223     1067.125    7785.0058    9.8423891   0.09975734 
    5800   -85.473972    5.0521002   -80.421872    1260.7983     16242.16    9.8207463   0.12838268 
    5900   -85.566828    6.0891546   -79.477674    1519.6048   -14505.736    9.4784381   0.11056562 
    6000   -85.039522    3.7266704   -81.312851    930.02506   -8763.4487    9.5482444   0.15201545 
    6100   -85.806839    4.0125032   -81.794336    1001.3573    3449.6894    9.7660883   0.10240533 
    6200   -84.514309    5.4920543   -79.022254    1370.5929    13159.511    9.6733291   0.14391139 
    6300   -85.161077      5.21095   -79.950127    1300.4408    24017.176    9.8562065   0.12067035 
    6400   -85.491268    3.8227148   -81.668554    953.99382   -47.772436    9.6960296   0.11354627 
    6500   -84.842348    5.5426539   -79.299694    1383.2205    -17029.74    9.3628427   0.13189664 
    6600   -84.206148     5.599258    -78.60689    1397.3466    -19995.99    9.2105125   0.15934826 
    6700   -85.816922    4.4769427   -81.339979    1117.2624   -2081.8621    9.6708464   0.11072099 
    6800   -85.330378    4.9976368   -80.332741    1247.2065    37428.646    10.055883   0.14616167 
    6900   -84.179934    5.1124529   -79.067481    1275.8599    3183.8295    9.5080486   0.17072391 
    7000   -84.953478    5.1063526   -79.847125    1274.3375   -11910.481    9.4387992   0.17396374 
    7100   -86.143582    4.4028862   -81.740696     1098.781   -7482.0989    9.6619334   0.11224973 
    7200   -84.453855    4.7035667   -79.750289    1173.8186   -11849.586    9.3901689   0.18847315 
    7300   -84.473805    5.3860795   -79.087725    1344.1459   -5237.0725    9.4293259   0.13930284 
    7400   -85.375539     4.736646   -80.638893    1182.0738    -4821.655    9.5859713   0.12671742 
    7500   -85.449962    4.5310281   -80.918934      1130.76    13042.466    9.7768608   0.13381151 
    7600   -84.663234    6.6525648   -78.010669    1660.2091   -12885.573    9.3875869   0.14757413 
    7700   -84.062093    4.6779997   -79.384093    1167.4381    8924.1552    9.5104513   0.18040552 
    7800   -85.351257    4.4492256   -80.902031    1110.3454    2334.2481    9.6632492   0.13547701 
    7900    -85.17837    4.4288912   -80.749478    1105.2708    4001.8449    9.6526915   0.13548433 
    8000   -83.060314    4.8019669   -78.258347    1198.3752   -17273.051    9.1229645   0.27315025 
    8100   -85.463611    5.3279444   -80.135666    1329.6378   -35734.137    9.2519194   0.11511428 
    8200   -85.870797     5.316536   -80.554261    1326.7907    -3711.802    9.6441687   0.10018904 
    8300   -85.278701    6.5393005     -78.7394    1631.9429    23799.013    9.8523553   0.10560725 
    8400   -86.472561    6.8819261   -79.590635    1717.4483   -746.94508    9.7378636  0.093753863 
    8500   -85.847442    4.4637166   -81.383725    1113.9618    6770.3848    9.7925539   0.09164918 
    8600   -85.613311    5.5814189   -80.031892    1392.8947   -18366.456    9.4676272   0.12188986 
    8700   -84.561442    5.5254069   -79.036035    1378.9164    15680.521    9.6878387   0.15966045 
    8800   -86.656286    5.4273487   -81.228937    1354.4451    18234.224     9.977885  0.088052069 
    8900   -86.024445    4.6559769   -81.368468    1161.9421    3864.5147    9.7708502   0.11476203 
    9000   -84.712269    5.3582681   -79.354001    1337.2054    -28974.12    9.2044104   0.16153514 
    9100    -84.82703     5.012913   -79.814117    1251.0188   -13178.921    9.4064004    0.1741209 
    9200   -87.147654    5.3773356   -81.770319    1341.9638   -2005.6567     9.848839  0.080024117 
    9300   -86.321101    6.5610685   -79.760032    1637.3753   -618.15681     9.712621  0.094945474 
    9400   -84.912398    5.4057764   -79.506622    1349.0615    9172.1543    9.6750865   0.13311582 
    9500   -86.175094    4.4559103   -81.719183    1112.0136   -5299.9598    9.6572377   0.09981132 
    9600   -84.852033    4.4153229    -80.43671    1101.8846   -24817.318    9.2624221   0.15419046 
    9700   -84.221542    4.9110167   -79.310526    1225.5896    -5147.303    9.3635528   0.17023517 
    9800   -86.269124    5.5417141    -80.72741     1382.986   -18832.646    9.5278633   0.12734922 
    9900   -85.355561    5.3369206    -80.01864    1331.8779    34803.916    10.008591   0.11101728 
   10000   -84.240245     6.818082   -77.422163    1701.5154    12422.081    9.6114298   0.17299341 
   10100   -85.611485    6.9159586   -78.695526    1725.9414    -2148.577     9.615381   0.12033691 
   10200   -85.238638    4.1353867   -81.103251     1032.024    3738.7035    9.6859178    0.1526219 
   10300   -84.583913    4.7134022   -79.870511    1176.2731   -30457.088    9.1795468   0.17470514 
   10400   -82.718282    3.9598344   -78.758448    988.21329   -4329.4888    9.2033828   0.21746426 
   10500   -86.019647    5.0861449   -80.933502    1269.2945    6064.9908    9.7834451   0.13410496 
   10600   -85.575116    5.8288242   -79.746292     1454.637    28742.256     9.949754  0.095868334 
   10700   -84.221784    6.3385123   -77.883272    1581.8344    6871.7682    9.5176323   0.19494933 
   10800   -85.544682    5.3977914   -80.146891    1347.0688   -23062.247    9.4115732   0.13208928 
   10900   -84.983256    4.3136135   -80.669643    1076.5022   -8318.5452    9.5001884   0.13440556 
   11000   -84.989043    5.1864671   -79.802576    1294.3308    4713.8879    9.6243195   0.13567356 
   11100   -85.194832    5.5877927    -79.60704    1394.4853    315.55873    9.5934225   0.10800319 
   11200   -87.112852    4.9557342   -82.157118    1236.7493    17921.863    10.056088  0.065735691 
   11300   -85.029224    4.2683989   -80.760825    1065.2184   -2232.1377    9.5650703   0.14243878 
   11400   -83.908024    4.1663348   -79.741689    1039.7474   -16497.229    9.2108921   0.17797282 
   11500   -84.897925    6.0291217   -78.868804    1504.6231   -11698.714     9.386607    0.1589244 
   11600   -86.346224    4.6636045    -81.68262    1163.8456    9320.1043    9.8566405  0.098851241 
   11700   -84.996785    4.2485454    -80.74824    1060.2638   -3253.6801    9.6066411   0.13727335 
   11800   -84.630293    5.5487637   -79.081529    1384.7453   -15372.757    9.3322699   0.19132844 
   11900   -83.949318    5.1381354   -78.811182    1282.2692   -395.66279    9.3699812   0.17183271 
   12000   -86.227247    4.5580062   -81.669241    1137.4926   -1820.0711    9.7249627    0.1156136 
   12100   -85.581362    4.9633334   -80.618028    1238.6458    11856.162    9.7824699   0.10576882 
   12200   -84.796916    5.3139921   -79.482924    1326.1559    14882.034    9.7154362   0.14357484 
   12300    -85.53571    5.1053469   -80.430363    1274.0865    6026.7734    9.7307885   0.12312624 
   12400   -85.175567     3.268277    -81.90729    815.62875   -11661.153    9.5058839   0.12052441 
   12500   -85.544962    5.5121432   -80.032819    1375.6063    -12853.12    9.5230509   0.14087191 
   12600    -83.65093    3.9377514   -79.713179    982.70227    2234.8303    9.3809053   0.30225876 
   12700   -83.510525    5.4229464   -78.087578    1353.3464    3137.1346    9.3526579    0.2347496 
   12800   -85.871558    5.9889386    -79.88262     1494.595    12935.628    9.8077373   0.12555595 
   12900   -86.007654    4.6443586   -81.363296    1159.0426    1302.8709    9.7164064   0.10292604 
   13000   -83.801608    4.9572757   -78.844332     1237.134   -25699.755    9.1636056   0.20725777 
   13100   -84.431402    5.5579251   -78.873477    1387.0316   -12471.639    9.3165344   0.13310773 
   13200   -85.791841    4.6891862   -81.102655    1170.2298   -14566.993    9.5452844   0.16117602 
   13300   -84.673028    4.8634429   -79.809586    1213.7171   -3375.0259    9.4463377    0.1347239 
   13400   -85.224313    5.8686185   -79.355695     1464.568    -482.3842     9.582843   0.14506111 
   13500   -85.245407    4.2110897   -81.034317    1050.9164    61956.957    10.297153  0.084692077 
   13600   -85.936438    5.3952005   -80.541238    1346.4222    1395.0603    9.7011187   0.11405285 
   13700   -83.799534    5.1858963   -78.613638    1294.1884   -19474.352    9.2490136   0.18158869 
   13800   -85.839197     4.957591   -80.881606    1237.2127   -7208.1824    9.6172552   0.10220881 
   13900   -85.389827    4.6172572   -80.772569    1152.2792    34932.727    10.019229   0.10792306 
   14000   -83.762263      5.51919   -78.243073    1377.3649    3578.2693    9.4279552   0.16504657 
   14100   -85.576319    5.3597822   -80.216537    1337.5832   -16545.422    9.4395853   0.11184916 
   14200   -86.422926    5.6194893   -80.803436    1402.3955    3212.5172    9.7841012  0.099813681 
   14300   -84.295801    5.9002856   -78.395515    1472.4708    23580.877    9.6951423   0.14318431 
   14400   -85.064657    5.4931799   -79.571477    1370.8739    2544.8684    9.5572379   0.12621793 
   14500   -85.724248    4.8593994   -80.864848    1212.7081   -7449.6735    9.5912468   0.12548617 
   14600   -85.243808    5.5213806   -79.722427    1377.9116   -7505.8375    9.5026482   0.13049068 
   14700   -83.480308    6.2557355   -77.224573    1561.1767   -1438.4971    9.3106203   0.17303328 
   14800   -83.509392    4.0146003   -79.494792    1001.8806    43112.019    9.8680662   0.20546975 
   14900   -85.915943    5.6929908   -80.222953    1420.7385   -12278.339    9.5678181   0.11156894 
   15000   -85.508027    4.6530512   -80.854976     1161.212   -19146.318    9.4242141   0.12723209 
   15100   -83.522201    5.6367969   -77.885404    1406.7148   -3128.2406    9.3431665   0.18526538 
   15200   -85.271334    6.4829608   -78.788373    1617.8828    18562.324    9.8254693   0.13301721 
   15300   -85.468345    4.9061073   -80.562238    1224.3645   -6720.7827    9.5688368   0.13260902 
   15400   -84.757607    4.9621283   -79.795479     1238.345   -27237.669    9.2232194   0.14745738 
   15500   -83.199897    5.9334453   -77.266451    1480.7461     4493.052    9.3542118   0.19557564 
   15600   -85.039786    4.7280978   -80.311688    1179.9405    14782.223    9.7751355   0.17591803 
   15700   -84.614099    4.3500378   -80.264061    1085.5922   -4056.2174    9.5108167   0.16981165 
   15800   -83.563994    4.8501802   -78.713814    1210.4073   -7186.1367    9.2933175   0.20106113 
   15900    -83.15615    5.0390381   -78.117112    1257.5386   -13069.508    9.1211074   0.17155608 
   16000   -85.697693    4.5353177   -81.162376    1131.8305   -12545.276    9.5708354   0.15084097 
   16100   -85.242992    4.6082675   -80.634724    1150.0358     15696.99    9.8330165   0.11932531 
   16200   -85.679481    5.9167944   -79.762687    1476.5907   -1210.9795    9.6226214   0.13650821 
   16300   -83.590954    5.5431188   -78.047835    1383.3365   -13182.958    9.2149727   0.17500251 
   16400   -85.544151    4.4679539   -81.076197    1115.0192    2992.3034    9.7020851  0.092482393 
   16500   -85.976878    5.2606092   -80.716269    1312.8337    16043.367    9.8727405  0.086498139 
   16600     -85.1663    6.5523455   -78.613955    1635.1984    8431.0046    9.6478315   0.12738485 
   16700   -83.860553    4.5948119   -79.265742    1146.6778    25425.643    9.7347928   0.18697685 
   16800   -85.340899    4.1234068   -81.217492    1029.0343   -22769.776    9.3740861   0.13238179 
   16900   -83.982975    4.4680323   -79.514943    1115.0388   -21725.771    9.2419275   0.18406136 
   17000   -84.522766    5.1227862    -79.39998    1278.4387   -3874.7614    9.4139488   0.16465799 
   17100   -86.615584    5.0202435    -81.59534    1252.8482    9507.5124    9.8895903  0.081992199 
   17200   -85.518199     5.352152   -80.166047     1335.679    7433.9555    9.6763008   0.11405684 
   17300   -84.656974    5.6047105   -79.052263    1398.7073   -25378.503    9.2577274   0.18077764 
   17400   -85.762519    4.5934736   -81.169045    1146.3438    -27168.68    9.4055353   0.11235045 
   17500   -86.103261    4.9867958   -81.116466     1244.501     6894.982    9.8001903   0.10787722 
   17600   -83.955531    5.0406822   -78.914849    1257.9489    11164.109    9.5461878    0.1824984 
   17700   -85.248436    4.8903788   -80.358057    1220.4392     8955.033    9.7127436    0.1035273 
   17800   -85.782814    4.2386762   -81.544138    1057.8008    9095.6855    9.7889911   0.10218563 
   17900   -84.907968    5.5635926   -79.344376     1388.446   -808.32502     9.574028   0.12774514 
   18000   -85.111225    5.1163779   -79.994847    1276.8394   -1366.2619    9.5735558   0.15084319 
   18100   -85.947348     4.573337   -81.374011    1141.3185    19684.311    9.9723719   0.11221041 
   18200   -84.974469    6.2374255   -78.737043    1556.6072   -16989.798    9.3739376   0.15988464 
   18300   -84.829955    5.1322306   -79.697724    1280.7956   -14067.349    9.4004357   0.14970104 
   18400   -85.402316    4.3053256   -81.096991    1074.4338    1274.3313    9.6672548     0.147451 
   18500   -85.520775    5.9857383   -79.535037    1493.7963    12394.716    9.7586211  0.095757154 
   18600   -83.305537    5.1974486   -78.108088    1297.0714    28577.443    9.6476161   0.17054169 
   18700   -84.234224    3.6549233   -80.579301    912.11991   -2429.2916    9.4858622   0.15657423 
   18800   -84.116781    3.6158034   -80.500978    902.35717    1084.8061      9.50496   0.15110297 
   18900   -84.280843     6.340597   -77.940246    1582.3546   -8901.2897    9.3128567   0.18195655 
   19000   -83.926173    5.5398036   -78.386369    1382.5092   -14110.383    9.2764197   0.21187272 
   19100   -85.066044    4.4576901   -80.608354    1112.4578   -4314.6047    9.5132703   0.13172242 
   19200   -85.510968    5.2222011   -80.288766    1303.2486    14417.173    9.7698767   0.13063298 
   19300   -84.481318     6.993837   -77.487481    1745.3767   -52.641197    9.4635295   0.15264249 
   19400   -82.878529    3.6398546   -79.238674    908.35937    8801.6781    9.3540195   0.31371953 
   19500   -84.734786    4.0782003   -80.656586    1017.7526   -35331.664    9.1691912   0.15966364 
   19600   -85.956737    5.1844306   -80.772307    1293.8226   -5370.7264    9.6273027   0.12183457 
   19700   -82.864273    5.2591426    -77.60513    1312.4677    8711.0644    9.3928149   0.25438389 
   19800    -84.48488    5.1411776   -79.343703    1283.0284   -7163.8166    9.4557027   0.16848521 
   19900    -85.14595    4.6038747   -80.542076    1148.9395   -6817.5154    9.5341327   0.15889373 
   20000   -84.950823    5.8065232     -79.1443    1449.0716    5294.5962    9.5654736   0.14967822 
   20100   -84.650811    6.4837531   -78.167058    1618.0805    1347.2827    9.5184201   0.17426064 
   20200   -85.160858    4.7224369   -80.438422    1178.5278   -28971.145    9.3045395   0.17283814 
   20300   -84.156625    4.3688853    -79.78774    1090.2957   -40401.875     8.988413   0.19605728 
   20400   -83.197639    4.4241458   -78.773493    1104.0865   -12927.971    9.1870225   0.25644819 
   20500   -82.324803    5.5433476   -76.781455    1383.3937    22850.917    9.4454226   0.26824893 
   20600   -84.781134    4.5752591   -80.205875    1141.7982    14366.549     9.714613   0.14063139 
   20700   -85.543043     5.163164   -80.379879    1288.5153   -25128.665    9.3708187   0.13705259 
   20800   -84.775599     5.592999     -79.1826    1395.7846   -2805.4034    9.5038807   0.15472355 
   20900    -83.54503    5.9798245   -77.565206    1492.3205     -16312.7    9.2241085   0.20425296 
   21000   -85.443387    5.0702514   -80.373136    1265.3281   -8074.7119    9.5442109   0.10699077 
   21100   -85.158993    4.8108394   -80.348154    1200.5895    8798.3529    9.7059884    0.1425319 
   21200   -83.206577    4.7630083   -78.443569    1188.6528     26449.17    9.6800812    0.1967833 
   21300    -84.34428    5.3949133   -78.949367    1346.3505   -6162.4492    9.4031738   0.20417927 
   21400   -86.934293    5.4577586   -81.476534    1362.0341   -5999.1066     9.766161   0.11184474 
   21500   -85.170855    4.7950482   -80.375807    1196.6486    2842.5211    9.6496196   0.13442226 
   21600   -84.392933    5.0096282   -79.383305     1250.199   -26266.184    9.1753062   0.17532442 
   21700   -82.793296    5.4783747   -77.314921    1367.1791   -14668.089    9.0767265   0.20790454 
   21800   -84.288098    4.9265334   -79.361565     1229.462    25581.279      9.78942   0.15674459 
   21900   -85.618991    5.3572295   -80.261762    1336.9462    17471.536    9.8180646    0.1195934 
   22000   -85.084849    4.7631056   -80.321744     1188.677   -6654.3933    9.5281592   0.16934137 
   22100   -84.102757    5.3347059   -78.768051    1331.3252   -22887.787    9.2024996   0.17901355 
   22200   -82.353552    4.6758154   -77.677736     1166.893    -8060.451    9.0773145   0.25578597 
   22300   -85.427744    4.8077369   -80.620007    1199.8152    3349.7797    9.6581014   0.12215551 
   22400   -85.306633    4.8119462   -80.494687    1200.8657    4361.1162    9.6568622   0.13188101 
   22500   -83.763236    5.4303238   -78.332912    1355.1875   -6260.1003    9.3081058   0.17554733 
   22600   -83.683248    4.3976946   -79.285554    1097.4854    13551.125    9.5321154   0.18712003 
   22700    -85.06802    4.3800401    -80.68798    1093.0795   -3436.0776    9.5704878   0.11823363 
   22800    -85.32641     5.418401   -79.908009    1352.2121    7051.2615    9.6873031   0.11077254 
   22900   -83.166694    5.9615246   -77.205169    1487.7536    6661.1579      9.33352   0.22088883 
   23000   -84.721706    5.0700937   -79.651612    1265.2888    5326.5804    9.6067615   0.14104257 
   23100   -84.384472    3.7914244   -80.593047    946.18501    13328.225    9.6801584   0.16782273 
   23200   -84.241668    3.8468325   -80.394835    960.01263    3859.2076     9.524568   0.16116765 
   23300   -83.310361    5.9131609     -77.3972     1475.684     4503.062    9.3788516   0.21464331 
   23400   -83.878583    4.1166719   -79.761911    1027.3536    15455.036    9.6222838   0.16203866 
   23500   -84.574695     4.148097   -80.426598     1035.196    4621.8305    9.5710407   0.14279609 
   23600   -84.954251    4.5964614    -80.35779    1147.0894   -5774.2552    9.5195436   0.11372868 
   23700   -83.251093    6.1182661   -77.132827    1526.8699   -5964.6764    9.2388308   0.18812103 
   23800   -83.652488    5.1025669   -78.549921    1273.3927    9541.9242    9.4778815   0.20879775 
   23900     -84.7148    4.7266437   -79.988156    1179.5776    7391.0059    9.6181422   0.13194537 
   24000   -84.936989     4.079505   -80.857484    1018.0782    16739.158    9.7721945   0.12958289 
   24100    -85.28523    4.5989791   -80.686251    1147.7178    9807.3503    9.7229065   0.11876674 
   24200   -84.787082    6.7291121    -78.05797    1679.3122    -11405.22    9.3578945   0.14185479 
   24300   -84.694951    5.0970264   -79.597925    1272.0101    9002.1383     9.603229   0.17419126 
   24400   -85.227648    4.6933899   -80.534258    1171.2788    1966.1893     9.599693   0.12659313 
   24500   -85.572759     4.072052   -81.500707    1016.2182    8689.6284    9.7620839   0.12870843 
   24600    -84.23999    5.5048525   -78.735138    1373.7869     18139.36    9.6854027   0.15879532 
   24700     -84.2443    5.3682577   -78.876042    1339.6984    12579.236    9.5840815   0.16356618 
   24800     -84.0173    3.3409815   -80.676318    833.77284   -9331.1198    9.3482037   0.17177797 
   24900   -84.780351    4.4412412    -80.33911    1108.3528   -26221.643    9.2648868   0.20642805 
   25000   -83.921923     6.151744   -77.770179    1535.2246    7001.9488    9.4849237   0.13899274 
   25100   -84.868218    4.8264783   -80.041739    1204.4923    22006.575    9.7853948   0.17833405 
   25200   -85.215254    4.7367054   -80.478549    1182.0886   -10893.524    9.5112287   0.14171444 
   25300   -83.595658    4.5867629   -79.008895    1144.6691    15139.125    9.5660939   0.19053755 
   25400     -83.5166    5.6542474   -77.862352    1411.0697    11140.899    9.5009435   0.19666882 
   25500   -84.647267     4.681912   -79.965355    1168.4144    355.78309    9.5095014   0.13310474 
   25600   -84.988921    4.4612683   -80.527653    1113.3508    9656.9113     9.694467   0.12857451 
   25700   -85.337423    5.2712351   -80.066188    1315.4855      1713.04    9.6456624    0.1152774 
   25800    -83.71059    6.2195719   -77.491018    1552.1517      374.068    9.3385252   0.20083863 
   25900   -85.286412    5.4104601   -79.875952    1350.2303   -17539.267    9.3903474     0.156251 
   26000   -85.461222    4.8636728   -80.597549    1213.7745   -11177.622    9.5017289    0.1089775 
   26100   -86.455044    4.4618593   -81.993185    1113.4982    3656.8243    9.8024987   0.10141377 
   26200   -87.760356    4.8760017   -82.884355    1216.8513   -10344.429    9.8397083  0.057176423 
   26300   -86.363473    6.2703795   -80.093094    1564.8312    -20217.99    9.5172662   0.10034364 
   26400   -85.252111    5.2741378   -79.977974    1316.2099    8168.7048    9.7066511   0.16243497 
   26500   -85.522818    6.0834833   -79.439335    1518.1895    109.88368    9.5840036   0.11574738 
   26600   -85.726232    4.2801806   -81.446052    1068.1586    9148.9522    9.7864749   0.12377461 
   26700   -84.925568    3.2929586   -81.632609    821.78828   -12713.076    9.4431293   0.13411775 
   26800   -84.625062    4.8172791   -79.807783    1202.1965   -8093.1428    9.3849553   0.16925711 
   26900   -84.849138    4.8656397   -79.983499    1214.2654   -12901.445    9.4112368   0.17529132 
   27000   -86.207777     4.529805   -81.677972    1130.4547     24987.57    10.021811   0.11522507 
   27100   -85.927932    5.7465056   -80.181426    1434.0936    35568.599    10.069061   0.11263841 
   27200   -84.218915    4.9829557   -79.235959    1243.5427    578.94046    9.4992685    0.1509532 
   27300   -85.439733    4.5545156   -80.885217    1136.6215   -7493.0579    9.5714371    0.1289914 
   27400   -86.558528    4.9395333   -81.618994    1232.7062   -6457.4266    9.7119041  0.096553216 
   27500   -84.218555    5.2177429   -79.000812     1302.136    4512.0833    9.5266548   0.14350533 
   27600    -85.66889    5.6182126   -80.050678    1402.0769   -1932.0506    9.6338757  0.090963725 
   27700   -86.427836    4.7748812   -81.652955    1191.6158     6301.757    9.8254853  0.081274215 
   27800   -83.359625    3.9002455   -79.459379    973.34233    2957.8322    9.3745628   0.23741282 
   27900   -83.616669     4.609558   -79.007111    1150.3578   -25848.961    9.0430816   0.19587904 
   28000   -84.576447    3.8341533   -80.742294    956.84842   -22646.639    9.2805908   0.14061391 
   28100   -85.240279    4.2469145   -80.993365    1059.8568    21636.053    9.8561894   0.12642369 
   28200   -83.640695    5.9233671   -77.717328     1478.231     5848.628    9.4388005   0.17215721 
   28300   -84.581593    5.5967787   -78.984814    1396.7279    19482.063    9.7066048   0.15610862 
   28400    -85.80488    4.7324402    -81.07244    1181.0242    11970.639    9.7795233  0.090764899 
   28500   -85.245572    4.3000233   -80.945549    1073.1106    -20386.73    9.3712281   0.11435077 
   28600   -82.538857    3.6950045   -78.843852    922.12254    2032.1698    9.2785322   0.31339746 
   28700   -84.833427    5.0099357   -79.823492    1250.2758   -16245.683    9.3522152   0.13115828 
   28800   -85.234391    4.2827014    -80.95169    1068.7877   -4432.6761    9.5757269   0.11710379 
   28900   -84.063943    4.8404122   -79.223531    1207.9696    24941.272    9.7151661   0.17438725 
   29000   -84.132699    5.7092538   -78.423445    1424.7971   -7646.2669     9.343222   0.16316634 
   29100   -86.013228    4.9674751   -81.045753    1239.6794    11208.272    9.8249588   0.10898587 
   29200   -84.389484    4.1122956   -80.277188    1026.2614    1209.5135    9.5476015   0.13565052 
   29300   -84.404742    6.0830456   -78.321696    1518.0803   -14743.673     9.299668   0.14725946 
   29400   -85.544854    5.3338916   -80.210963     1331.122    1966.0273    9.6678677   0.13994055 
   29500    -85.57443     4.353012   -81.221418    1086.3344    13079.729    9.7908148   0.13361639 
   29600   -84.468763    4.6796762   -79.789087    1167.8565   -2112.2943     9.421955   0.14942643 
   29700   -83.081953    3.9163636   -79.165589    977.36474    10077.225    9.4418036   0.19020115 
   29800   -86.133775    4.2579872   -81.875788    1062.6201   -11137.128    9.6056197   0.10022233 
   29900   -85.585231    5.0811017   -80.504129    1268.0359   -1897.1502    9.6428155   0.10932788 
   30000    -83.82735    4.6694401    -79.15791     1165.302    28556.518    9.7276978   0.19072279 
   30100   -85.067283    4.5075592   -80.559724    1124.9031   -9873.3479     9.493132    0.1436345 
   30200    -85.43514    4.0523399     -81.3828    1011.2989   -23070.027      9.43602   0.14128864 
   30300   -84.407865    4.8785542    -79.52931    1217.4883    18477.852    9.6634309   0.12821639 
   30400   -85.268844    4.7408265   -80.528018    1183.1171    6238.6949    9.6444107   0.12139546 
   30500    -86.08746    3.9825894   -82.104871    993.89202    -6850.009    9.6820282  0.089219731 
   30600   -84.331792    4.7098312   -79.621961    1175.3819      4130.13    9.5537743   0.15209905 
   30700   -85.479427    5.9117424   -79.567685      1475.33    13347.304     9.765997    0.1154659 
   30800   -86.224237    4.7846041   -81.439633    1194.0422    13579.077    9.8813432  0.096568302 
   30900   -84.117533    4.6853517   -79.432181    1169.2729   -33569.995    9.0838237   0.19500262 
   31000    -83.68102    4.9819971   -78.699023    1243.3034   -23381.826    9.1519462   0.24072056 
   31100   -84.646145    4.0650023   -80.581143    1014.4589    1789.8163    9.5518597   0.14492604 
   31200   -86.386011    5.6818984   -80.704113    1417.9703   -8858.5116    9.6388802  0.096877231 
   31300   -83.154319    5.2990015   -77.855318    1322.4148    30561.015    9.6797462   0.17471766 
   31400    -85.01568     4.935675   -80.080005    1231.7433    -6456.257    9.5464364   0.13635294 
   31500   -84.747837     3.867006   -80.880831    965.04711   -4410.0582    9.5163428   0.12952176 
   31600    -84.09072    5.2884221   -78.802298    1319.7746    486.12546    9.5013816    0.1414952 
   31700   -85.218352    7.1660242   -78.052328    1788.3476    2002.8162    9.5733601   0.11869171 
   31800   -86.780123    6.1907694   -80.589354    1544.9638    7528.2456    9.8605556  0.075842728 
   31900   -84.827106    4.4498609   -80.377245    1110.5039    8882.6062    9.6768811   0.13198059 
   32000   -84.698201    5.8175927   -78.880609     1451.834   -5106.8754    9.4523573   0.16147913 
   32100   -83.670022    4.9703574   -78.699665    1240.3987   -8122.8002    9.2810453   0.19993941 
   32200   -86.309664    4.8804212   -81.429243    1217.9543   -31746.502    9.4108495   0.12818045 
   32300   -86.239636    5.8121579   -80.427478    1450.4777   -11455.884    9.5910113  0.081610231 
   32400   -85.360235    5.5445457    -79.81569    1383.6926    18506.402     9.781385   0.12867991 
   32500   -85.517594    6.4180571   -79.099537    1601.6855    7612.8702    9.7034868    0.1220481 
   32600     -83.0666    6.5917968   -76.474803    1645.0439   -3414.9585    9.2445975   0.19314626 
   32700   -84.817416    5.8503351   -78.967081    1460.0052   -3174.2503    9.4858231   0.15010404 
   32800   -85.000578    4.7936966   -80.206881    1196.3113    6236.5126    9.6632611   0.12764209 
   32900   -86.023301     4.682142   -81.341159    1168.4718   -20397.968    9.5118619   0.10813255 
   33000   -84.192204    5.1313349   -79.060869    1280.5721   -4883.0362    9.3936148   0.19741857 
   33100   -84.088088    5.4564043   -78.631684    1361.6961    16639.159    9.6110061   0.19743315 
   33200   -85.301604    4.8053548   -80.496249    1199.2207    18032.454    9.7965931   0.10648381 
   33300   -85.779249    4.7858876   -80.993362    1194.3625   -17756.601    9.5004095   0.11557722 
   33400   -83.433304    5.0608945    -78.37241     1262.993   -18365.581    9.2106559    0.2072787 
   33500   -84.745659    4.6487601   -80.096899    1160.1411    3231.1425    9.5536554   0.13925584 
   33600   -85.240691    4.2440772   -80.996614    1059.1487    2747.6097    9.6508236   0.12427689 
   33700   -84.604011    5.8920358   -78.711975     1470.412    17881.981    9.6790184   0.10938401 
   33800   -84.275504    5.0907101   -79.184794    1270.4338     42321.78    9.9563683   0.15326554 
   33900   -85.933335    4.2819831   -81.651352    1068.6085   -2389.7266    9.6825884   0.11900448 
   34000   -84.625271    4.9499894   -79.675281    1235.3156   -46407.581     9.037223   0.17039561 
   34100   -83.651049    4.7439515   -78.907097     1183.897    3339.6053    9.4009772   0.26682976 
   34200   -85.545774    4.9851573   -80.560617    1244.0921   -854.68129    9.6555149  0.096436024 
   34300   -85.868032    4.4473166   -81.420716     1109.869    18278.202    9.8993893   0.12614228 
   34400   -84.626572    5.1922755   -79.434296    1295.7804   -19892.803    9.2864431   0.12611048 
   34500   -84.553185    4.7197418   -79.833443    1177.8552    1718.0143    9.5470121   0.15898661 
   34600   -86.427954    4.6637904   -81.764164     1163.892    4742.0481    9.8267084   0.11283518 
   34700   -84.358615    4.6630631   -79.695552    1163.7105    15439.614    9.6864798    0.1594014 
   34800   -84.372772    4.9095694   -79.463203    1225.2284   -10437.512     9.377502   0.16388485 
   34900   -85.257716    3.3507871   -81.906929    836.21991   -8230.9475    9.5018473   0.10906083 
   35000   -85.327476    4.9108777   -80.416598     1225.555    12440.231    9.7285432   0.10886192 
   35100   -84.675448    5.3378176    -79.33763    1332.1017     1327.912    9.5519383   0.17527714 
   35200   -84.837938    3.9066792   -80.931259    974.94791    13801.838      9.73833    0.1337718 
   35300   -86.103551    4.3310538   -81.772497    1080.8545   -5229.1752    9.6872936   0.11107317 
   35400   -85.247613     5.265982   -79.981631    1314.1745   -22438.677    9.3649717   0.15829236 
   35500   -85.176231    5.1892075   -79.987024    1295.0147   -13215.631    9.4670717   0.15248847 
   35600   -86.118904    4.1285214   -81.990382    1030.3107     148.0137    9.7490097  0.099214203 
   35700   -84.740614    4.8091871   -79.931426    1200.1771     17743.75    9.7001115   0.13718174 
   35800   -84.841402    5.3166471   -79.524755    1326.8184   -2562.2769     9.496988   0.15352378 
   35900   -85.138768    3.7860711   -81.352697    944.84905   -26666.947    9.3205004   0.12552905 
   36000   -85.006293    4.1144957   -80.891798    1026.8105    1694.4076    9.5836885   0.12610526 
   36100   -84.547926    5.6755234   -78.872402    1416.3794    16382.127    9.6195793   0.12709748 
   36200   -86.254542    5.8405454   -80.413996    1457.5621   -7793.1137    9.6246622  0.084798415 
   36300    -86.98898    5.3170829   -81.671898    1326.9272     -7248.96    9.7452397   0.06553515 
   36400   -85.637053     6.237989   -79.399064    1556.7479   -6514.9046    9.5646342   0.13267957 
   36500   -84.567994    5.7069606   -78.861034    1424.2248   -7640.4606     9.405767   0.18035458 
   36600   -86.250786    5.4222533   -80.828533    1353.1735   -13806.211    9.5763763   0.10325799 
   36700   -85.292758    4.1431843   -81.149574    1033.9699    6717.2598    9.6982108   0.12370457 
   36800   -83.898306    4.8793589   -79.018947    1217.6891    4297.5972    9.4725315   0.20147009 
   36900   -84.775641    4.8463771   -79.929264    1209.4582   -8265.9764    9.4817057   0.12349581 
   37000   -86.535708    4.6403146   -81.895393    1158.0334    4947.7928    9.8148072  0.085514258 
   37100    -85.53837    5.5482771   -79.990093    1384.6238    3430.0272    9.6611371   0.13522462 
   37200   -84.042346    4.3570046   -79.685342    1087.3308    -5956.405     9.425153   0.20139471 
   37300   -85.405457     3.821476   -81.583981    953.68468   -15080.166    9.4756673   0.14320934 
   37400   -85.954314    4.2413439    -81.71297    1058.4666   -14408.569    9.5538346   0.12597952 
   37500   -84.865741    5.3867394   -79.479002    1344.3106    12808.403    9.7128136   0.14310039 
   37600    -86.53896    6.7498089   -79.789151    1684.4772    9688.6724    9.8504265   0.08797847 
   37700   -86.119124    4.1188723   -82.000252    1027.9027    5971.2946    9.8264728   0.12676113 
   37800   -84.261912     3.888019   -80.373893     970.2911   -24994.762    9.2424244    0.1569631 
   37900    -84.36088     4.496633   -79.864247    1122.1763   -11459.681    9.3439063   0.15681175 
   38000   -85.456668    5.0396866   -80.416981    1257.7004    11621.401    9.7227352   0.10652505 
   38100     -86.6708    4.5402364   -82.130564     1133.058     8324.857    9.8866036   0.10410181 
   38200   -84.306865    4.2445545   -80.062311    1059.2678   -10857.156    9.3460497    0.1687288 
   38300   -84.367469    4.5916543   -79.775815    1145.8898   -2324.5482    9.4462371   0.15146124 
   38400   -84.625351    3.8781226   -80.747229    967.82135    11865.517    9.6828659   0.14715074 
   38500   -85.960642    4.4262773   -81.534365    1104.6184   -4315.3501     9.688025    0.1124097 
   38600   -84.662254    5.1242236    -79.53803    1278.7974    8564.3782    9.6289872     0.129922 
   38700   -84.853316    5.8762351   -78.977081    1466.4688   -11930.689    9.3743238    0.1489356 
   38800   -84.318688    4.2770949   -80.041593    1067.3886   -12156.491    9.3471946   0.20092614 
   38900   -84.865685    4.1803885   -80.685296    1043.2546    1614.4316    9.5733389   0.14432278 
   39000    -87.20297    4.5820215   -82.620948    1143.4858    12595.651     9.992656  0.067599883 
   39100   -86.123545    5.5013917   -80.622154    1372.9232    2798.0524    9.7088695  0.093848396 
   39200   -84.781947    4.7775204   -80.004427    1192.2744   -5418.9401    9.4894037   0.15604657 
   39300   -83.773866    3.5028135   -80.271053     874.1595   -2461.5018    9.4257027    0.1767764 
   39400   -85.659595    3.4953879   -82.164207    872.30637   -2495.2817    9.6747343  0.099092887 
   39500   -85.944497    4.0424518   -81.902045    1008.8312    33733.045    10.071669  0.091299838 
   39600   -84.386446    4.3086854    -80.07776    1075.2723    24512.055    9.7667744   0.15103596 
   39700   -85.165285    4.9207179   -80.244567    1228.0107   -28385.441    9.2958548   0.15808617 
   39800     -84.3883    3.6319546   -80.756345    906.38787   -24262.817    9.2508386   0.14480483 
   39900   -86.725089    3.5865442   -83.138545    895.05527    12452.286    9.9701879   0.08009998 
   40000   -85.490562    3.6224777   -81.868084     904.0228    21969.929    9.9000562   0.11434769 
   40100   -85.719205    5.0385545   -80.680651    1257.4179    11.523612    9.6191886    0.1043487 
   40200   -85.266431     5.037783   -80.228648    1257.2253   -14092.801    9.4232617   0.16156368 
   40300   -84.007958    4.9373585     -79.0706    1232.1635   -23597.982    9.2043432    0.2205258 
   40400   -83.937225    4.0228001   -79.914425     1003.927   -20519.725    9.2739656   0.16049149 
   40500   -85.860752    4.4348492   -81.425903    1106.7576    20478.676    9.9283511  0.098200892 
   40600   -85.843693    5.6385012   -80.205192    1407.1401    22712.426    9.9422176   0.12200046 
   40700   -84.597025    5.1033069   -79.493718    1273.5774   -1447.9065    9.4731458   0.18928209 
   40800   -82.826137    4.8502046   -77.975932    1210.4134    10247.132     9.351734   0.21097362 
   40900   -85.834851    4.6695238   -81.165327    1165.3229    4728.3151    9.7451245   0.11591901 
   41000   -86.364786    5.8137944   -80.550992    1450.8862   -30909.741    9.4255878  0.098336028 
   41100   -84.172696    5.0245595   -79.148136    1253.9253     14377.22    9.6208102    0.1638535 
   41200   -84.201583     5.824046   -78.377537    1453.4445     6969.049    9.5262411    0.1468477 
   41300   -86.395466    5.2429465    -81.15252    1308.4258    1832.7142    9.7754553   0.10447355 
   41400    -85.08486    4.6804998    -80.40436     1168.062    13104.004    9.7226751   0.11266414 
   41500   -84.715554    5.5647453   -79.150808    1388.7337   -27726.139    9.2231814   0.17883657 
   41600   -82.922281    5.2371806     -77.6851    1306.9868   -32751.906    8.8862852   0.25305536 
   41700    -84.88331    4.1339959   -80.749314    1031.6769   -4217.6895    9.5306487   0.17735473 
   41800   -85.209163    4.9070168   -80.302146    1224.5914    28146.005    9.8568834   0.11598792 
   41900   -85.515505    6.0036405   -79.511864     1498.264    8920.4682     9.713093  0.097029609 
   42000   -86.373872    4.3693021    -82.00457    1090.3997     8740.151     9.881551   0.11215783 
   42100   -86.025768    4.3750453   -81.650723     1091.833   -22122.458    9.4912422   0.10535566 
   42200   -84.599302    4.4430128    -80.15629    1108.7949   -9040.2549    9.4807166   0.17757256 
   42300   -84.394297    5.3603605   -79.033937    1337.7275    5134.6614    9.5173812   0.17418238 
   42400   -84.768543     7.173253    -77.59529    1790.1516    17897.334     9.656442   0.11488812 
   42500   -85.977707    5.3191315   -80.658575    1327.4385     13790.12    9.8290501  0.095975698 
   42600    -85.34449    4.6983786   -80.646111    1172.5238    8118.2663    9.7227575   0.15270852 
   42700   -84.427155    5.0261816   -79.400973    1254.3301   -14399.919    9.3820822   0.16619166 
   42800   -84.222707    4.6335831   -79.589124    1156.3535   -9128.1651    9.3343771   0.22805724 
   42900   -85.036799    3.3505307   -81.686268    836.15593    2947.6664    9.6357762   0.12629924 
   43000   -84.872638    5.1813708   -79.691267     1293.059   -4147.5604     9.439504   0.15074011 
   43100   -83.555737    4.2375733   -79.318164    1057.5256   -4640.2461    9.2869291   0.25144778 
   43200   -85.309264    4.3343421   -80.974922    1081.6752   -16758.545    9.4499989   0.11436317 
   43300   -85.454908    3.8669203   -81.587988    965.02572    29.593365    9.6534771   0.12252393 
   43400   -85.086501    5.8024613    -79.28404    1448.0579    19025.403    9.8083116   0.15352883 
   43500   -85.211648     5.233355   -79.978293    1306.0321    13083.126    9.7563676    0.1007913 
   43600   -86.781228    5.2425475   -81.538681    1308.3262   -13459.777    9.6734262  0.091271984 
   43700   -84.215926    4.9516911   -79.264234    1235.7403   -20521.017    9.2810069   0.17046192 
   43800   -83.930536    4.4978077   -79.432728    1122.4695    8086.3672    9.5150554   0.19198606 
   43900   -85.879428    4.3110474    -81.56838    1075.8617    21709.567    9.9343898   0.10736399 
   44000   -84.603965    4.6620397   -79.941925    1163.4551    18394.289    9.6775976   0.10441085 
   44100   -83.749495    4.8928312   -78.856664    1221.0513   -17519.961    9.2147072   0.20209337 
   44200   -85.592637    4.3651278   -81.227509     1089.358   -18516.862    9.4549163    0.1426525 
   44300   -85.102098    4.0517867   -81.050312    1011.1608   -13987.344    9.4791506   0.17756851 
   44400   -83.958838    4.6872683    -79.27157    1169.7512   -2954.2365    9.3792867   0.23279607 
   44500   -84.068069    3.9477649   -80.120304    985.20125   -16870.085    9.3067747   0.15538191 
   44600   -86.594244    4.7329707   -81.861273    1181.1566    15109.332    9.9524541  0.085274662 
   44700   -85.935698    6.6049401   -79.330757    1648.3239    5663.8321    9.7146569   0.12062327 
   44800   -85.044976    5.2588016   -79.786174    1312.3826   -6478.8703    9.5100304    0.1246883 
   44900   -85.366562    3.9170374   -81.449524     977.5329   -9595.9378    9.5689009   0.13224398 
   45000   -85.132017    5.3780304   -79.753987    1342.1372   -3906.3434    9.5468478   0.15231351 
   45100   -83.532928    4.4601196   -79.072809    1113.0641   -5044.2646    9.2832926   0.18946652 
   45200   -84.783571    4.0127228   -80.770849    1001.4121   -10948.576     9.417631   0.14746577 
   45300   -85.463809    4.2830389    -81.18077     1068.872     16557.25    9.8457973   0.11318471 
   45400   -84.607645    6.5187758   -78.088869    1626.8208    21181.682    9.7588669   0.17905424 
   45500   -84.409524    4.8530126   -79.556511    1211.1142    24758.317      9.79625   0.10725995 
   45600   -85.242737    4.2570817   -80.985656    1062.3941   -1550.3202    9.6208318   0.13224602 
   45700   -84.987888    5.9000203   -79.087867    1472.4046   -11266.904    9.4117406   0.13640379 
   45800   -83.282633    4.3916174   -78.891015    1095.9687    17644.769    9.5189459   0.26511709 
   45900   -84.588864     3.731421   -80.857443    931.21062   -9779.4551    9.3843395   0.15735819 
   46000   -85.361258    4.4336705   -80.927588    1106.4635   -20945.868    9.4071278   0.14051412 
   46100   -82.929546    4.4754814   -78.454064    1116.8978   -6436.1499    9.2245189   0.28701099 
   46200   -84.793725    4.8742115   -79.919514    1216.4045   -9279.8701    9.4272047   0.15760308 
   46300    -85.04036     3.967373   -81.072987    990.09461    22034.247    9.8847853   0.12588336 
   46400   -84.268298    5.1904762   -79.077822    1295.3313    6705.6994    9.5765867   0.15612646 
   46500    -84.83025    5.8543052   -78.975945     1460.996   -20397.186    9.3273787   0.15000344 
   46600   -85.853129     4.996383   -80.856746    1246.8936   -8066.4755    9.5388072   0.10918862 
   46700   -83.909456     4.225159   -79.684297    1054.4275   -6526.2033    9.3594081   0.21032583 
   46800   -83.554447    5.3419468   -78.212501    1333.1322    -14083.68    9.2452537   0.20909398 
   46900   -86.065658    5.4005313   -80.665126    1347.7525    6753.8556    9.7753888  0.096507719 
   47000   -85.999443    5.8128922   -80.186551     1450.661    13532.946    9.8585763   0.10992903 
   47100    -83.69377    5.1696201    -78.52415    1290.1265    4011.7927    9.4445795   0.17657863 
   47200   -84.560211    4.3243475   -80.235864    1079.1809   -33425.421    9.1545561   0.19403786 
   47300   -85.211161    4.3612792   -80.849882    1088.3976   -5410.5937     9.531498   0.14355507 
   47400   -85.737357    6.9849299   -78.752427    1743.1538    7114.5219    9.6781659   0.11689713 
   47500   -85.223051    5.0854449   -80.137606    1269.1198    22700.624     9.850986   0.11562248 
   47600   -85.759592    4.4871032   -81.272489    1119.7981   -14487.636    9.5479096   0.11800629 
   47700   -84.766787    5.0336864     -79.7331     1256.203   -11682.653     9.406355   0.15756335 
   47800   -84.999803    6.4421364   -78.557667    1607.6947   -1943.4488     9.465756   0.15050233 
   47900   -86.260104    5.0558111   -81.204293    1261.7244    17345.453    9.9407831  0.095859291 
   48000   -85.591373    4.3891564   -81.202216    1095.3546    9147.9858    9.7608984   0.11269022 
   48100   -84.082688    4.3783134   -79.704375    1092.6486   -10190.419    9.3390648   0.21625393 
   48200   -84.024565    4.8914204   -79.133144    1220.6992   -22328.108     9.139022   0.18153282 
   48300   -86.274417    4.6432149   -81.631202    1158.7572   -3365.7667    9.7098262    0.1067268 
   48400   -85.674402    5.2255805   -80.448821    1304.0919     16779.09    9.8202196   0.10201485 
   48500   -85.520564    6.1599253   -79.360639    1537.2663   -5557.8972    9.5685965   0.13841546 
   48600   -84.231556    4.7036805   -79.527875     1173.847    6484.9639    9.5309963   0.13468317 
   48700   -85.629362    3.8083958   -81.820966     950.4204   -20137.523     9.484597   0.13750274 
   48800   -84.844845    4.3981045    -80.44674    1097.5877    15190.009    9.7337959   0.14605395 
   48900   -85.149704    5.8759427   -79.273761    1466.3959    8135.9483    9.6484272   0.11966251 
   49000   -86.139751    4.6475349   -81.492217    1159.8353   -15502.132    9.5792652   0.11945401 
   49100   -85.488388    4.4352104   -81.053177    1106.8478   -1902.7202    9.6371004   0.10736044 
   49200   -83.975869    4.8906063   -79.085263     1220.496    36546.415    9.8246576   0.14802859 
   49300   -85.093192    4.2084654   -80.884726    1050.2614    29504.802    9.9293067   0.12285824 
   49400   -84.905283    3.6506991   -81.254584    911.06572   -20594.754    9.3733047   0.15467648 
   49500   -83.940833    4.7190894   -79.221744    1177.6924   -27030.774    9.1434469   0.17657188 
   49600   -85.485405    5.2151721   -80.270233    1301.4944    8925.1339    9.7215926   0.12209206 
   49700   -87.166294    5.5180548   -81.648239    1377.0816    488.00102    9.8525489  0.075346222 
   49800   -84.737866    5.5621339   -79.175732     1388.082   -6467.2598    9.4555867   0.12348229 
   49900   -85.379165    5.7666102   -79.612555    1439.1109   -14456.801    9.4767247   0.14242946 
   50000   -86.308614    5.0119588   -81.296656    1250.7807    17700.531    9.9468347  0.093873787 
   50100   -83.833094    3.8187271   -80.014367    952.99866    22717.329    9.6899223   0.14617598 
   50200    -84.23457    5.8953018   -78.339268    1471.2271   -28489.257    9.1454607   0.18639634 
   50300   -85.635108    5.2468143   -80.388294     1309.391   -16606.686    9.4533984   0.11836216 
   50400   -85.421809    4.2610136   -81.160795    1063.3754    14694.168    9.7686478   0.14354764 
   50500   -84.054065    5.8058211   -78.248244    1448.8963    24477.877    9.7188191   0.15711503 
   50600   -86.293634    6.0380902   -80.255544    1506.8612    11645.332    9.8380654  0.083426437 
   50700   -84.694108    3.9311124   -80.762996    981.04545   -18751.731     9.372128   0.14002319 
   50800   -84.596075    5.7415826   -78.854492     1432.865   -23418.188    9.2303942   0.18730351 
   50900   -83.796586    5.4794956    -78.31709    1367.4588     7445.915    9.4523895   0.20286975 
   51000   -86.086732    5.2377632   -80.848969    1307.1322   -4749.4001    9.6707975   0.12037591 
   51100   -85.015314    4.9180539    -80.09726    1227.3458    12871.312    9.6787862   0.10973211 
   51200   -84.350983    5.2825043   -79.068479    1318.2978    16134.972    9.6439532   0.14606491 
   51300   -84.855467    4.2954709   -80.559996    1071.9745    556.84384    9.5768488   0.15648747 
   51400   -85.859492    4.4189174   -81.440575    1102.7817   -8381.8938     9.621594   0.11058971 
   51500   -85.746755    5.7128748    -80.03388    1425.7007     15014.54    9.8071844   0.10329613 
   51600   -85.665263    6.5992403   -79.066023    1646.9014    16050.573    9.8138729     0.106944 
   51700   -85.580212    3.7365513   -81.843661    932.49094    20401.977    9.8872804   0.12791212 
   51800   -85.265086    4.1391009   -81.125985    1032.9509   -22560.906     9.345218   0.12776107 
   51900   -84.353704     4.653074    -79.70063    1161.2176   -15217.503    9.3084693   0.18238401 
   52000   -85.666884    6.6336027   -79.033281    1655.4769    9621.8332    9.6989243  0.094780928 
   52100   -86.265139    4.7468022   -81.518337    1184.6084    1060.4053     9.746409  0.079718643 
   52200   -84.111405    4.1948819   -79.916523    1046.8716   -14290.464    9.3313059   0.19142176 
   52300   -83.409798    4.2603605   -79.149437    1063.2124    10478.048    9.4627761   0.18219677 
   52400   -86.022396    4.7098004   -81.312595    1175.3742    14523.004    9.8309978   0.11835643 
   52500   -85.701303    5.5723586   -80.128945    1390.6336   -8672.5598      9.55459   0.09626324 
   52600   -84.755172    6.0071956   -78.747976    1499.1512    12914.554    9.6615884   0.14280137 
   52700   -85.951214    4.7974309   -81.153783    1197.2432    9955.6914    9.8129835   0.12175821 
   52800   -84.552997    3.8861117   -80.666885    969.81512   -26176.731    9.2613494   0.16315441 
   52900    -82.47581    3.5534043   -78.922406     886.7849    3684.3295     9.279409   0.21506684 
   53000    -85.51303    4.9976408   -80.515389    1247.2075     15798.88    9.8049132   0.11563916 
   53100   -86.118103    4.9627228    -81.15538    1238.4934    16688.669    9.9044081  0.096701314 
   53200   -83.786309    5.2647269   -78.521582    1313.8613     7278.834    9.4709418   0.15293894 
   53300   -84.286061    4.3453673   -79.940694    1084.4266    22184.837    9.7337851   0.13634226 
   53400   -85.127677    3.9358134   -81.191863    982.21864    1697.3003    9.6603467   0.12213497 
   53500    -84.26251    5.3045194    -78.95799    1323.7919   -1805.9852     9.394722   0.16955189 
   53600   -85.085686    5.8270751   -79.258611    1454.2005   -18882.364    9.3544579   0.15959804 
   53700   -85.153005    3.9905432   -81.162462    995.87695     21867.37    9.8761663   0.13075356 
   53800   -85.957938    6.5168453   -79.441093     1626.339    -8135.218    9.5968073   0.12124019 
   53900   -84.730552    5.8812454   -78.849306    1467.7192   -26568.094     9.245718   0.15961443 
   54000   -85.827974     4.414266   -81.413708    1101.6209    13982.652    9.8404036   0.13019501 
   54100   -85.837039    5.6934092    -80.14363    1420.8429    549.15268    9.6595211   0.13987257 
   54200   -84.177886     5.255246    -78.92264    1311.4952    178.39749    9.4589636   0.17675565 
   54300   -85.426935     3.989614   -81.437321    995.64506    26292.096     9.958245   0.11270087 
   54400   -85.861875    4.6718665   -81.190009    1165.9075   -1281.2125    9.7054191   0.10267172 
   54500   -84.722135    5.6653693   -79.056766    1413.8453   -12613.145     9.376014   0.16054087 
   54600    -84.80114     4.368015   -80.433125    1090.0785    4636.5336    9.6104138   0.14503876 
   54700   -86.549128    5.1091287   -81.439999    1275.0303    10733.215    9.8754092    0.0770282 
   54800   -84.241542    5.2362076   -79.005335     1306.744   -19580.136    9.2705136   0.20908154 
   54900   -83.633273    4.2127486   -79.420525    1051.3304    -3792.129    9.2820318   0.13153339 
   55000   -86.685223    5.2870221   -81.398201    1319.4253    2604.1106     9.804578  0.074941812 
   55100   -85.834951    6.3101981   -79.524753    1574.7683    19220.806    9.8766138  0.096098341 
   55200   -84.485642    5.4639554   -79.021686    1363.5806   -615.79286    9.4753864   0.13571193 
   55300   -85.580269    3.9696223   -81.610647    990.65595    1237.6804    9.6686651   0.14223524 
   55400   -85.054828    4.7592326   -80.295596    1187.7105   -15991.436    9.4090644   0.16340734 
   55500   -84.776796    5.5348071   -79.241989    1381.2623   -6038.6815    9.4051605   0.17704794 
   55600   -84.969669    4.3824825   -80.587186     1093.689    29004.209    9.9187702   0.13873533 
   55700   -85.835982    3.7486954   -82.087287     935.5216    5073.2397    9.7764428   0.10982964 
   55800   -84.836984     4.852707   -79.984277    1211.0379   -7327.2355     9.473367   0.15962418 
   55900   -83.693821    4.0062391   -79.687582    999.79401    9979.3557     9.532094   0.17310547 
   56000   -85.668144    3.6494109   -82.018733    910.74425    198.83636    9.6850334   0.13788325 
   56100   -85.018247    4.0420341   -80.976213     1008.727   -5544.0996    9.5417577   0.13647437 
   56200   -84.033976    4.4754704   -79.558506     1116.895     7833.748     9.544593   0.21247878 
   56300   -84.817885    5.4886621   -79.329223    1369.7464   -21946.441    9.3065514   0.20406155 
   56400   -84.748346    3.8732199   -80.875126    966.59784   -14663.336    9.3680215   0.15465457 
   56500    -85.86083    4.4119175   -81.448913    1101.0348    9484.6165    9.8028132   0.10922957 
   56600   -85.655697    6.0003995   -79.655298    1497.4552    32679.096     10.02752   0.10054241 
   56700   -84.960495    5.1302766   -79.830218     1280.308    5964.7525    9.5933547   0.14445894 
   56800   -86.325835    4.1756797   -82.150156    1042.0795   -13037.377    9.6007071  0.098436336 
   56900    -85.57935    4.0655586   -81.513792    1014.5978    10815.017     9.791532   0.10390237 
   57000   -84.825991    4.9788668   -79.847124    1242.5222    13128.415    9.7024896   0.14373072 
   57100   -85.186084    4.9547246   -80.231359    1236.4973   -8435.0454    9.5072518   0.12342297 
   57200   -86.707447    4.4470643   -82.260382     1109.806    -19541.13     9.615276   0.12657091 
   57300   -84.788437    4.9492978   -79.839139     1235.143   -14794.316    9.3984054   0.15083854 
   57400   -85.005265    5.3583149    -79.64695     1337.217    7198.4704    9.6478556   0.12675645 
   57500   -86.455081    5.1990187   -81.256062    1297.4632    5471.1157     9.826912  0.096193547 
   57600    -84.95416    5.3818423   -79.572318    1343.0885   -10886.987    9.4801144   0.13451721 
   57700   -84.531103    5.8335201   -78.697583    1455.8089   -18032.087    9.2347872   0.20599828 
   57800   -85.670567    4.6769066   -80.993661    1167.1653   -4721.9279    9.5604775   0.10676026 
   57900   -85.114915    4.4975128   -80.617402    1122.3959   -19163.588    9.3668458   0.15433255 
   58000   -83.844972    5.0133368   -78.831635    1251.1246   -4179.4666    9.3422012   0.17324573 
   58100   -85.757698    4.9071612   -80.850537    1224.6275    3868.8287     9.718711   0.11403253 
   58200    -86.13815    5.2225317   -80.915618    1303.3311    2487.3809    9.7370812   0.13157302 
   58300   -83.377187    4.5419633   -78.835224    1133.4889   -2656.3661    9.2954202   0.22689409 
   58400   -83.536157    3.6848325   -79.851325    919.58403   -28909.125    9.0596896   0.19796509 
   58500   -85.944367    4.6111113   -81.333256    1150.7455   -4624.9821    9.6419998   0.12390699 
   58600   -84.363398    5.6583918   -78.705007     1412.104     25321.08    9.7802847   0.14717461 
   58700   -84.667639    5.5666971   -79.100942    1389.2207    14109.863    9.6846501   0.17691713 
   58800   -86.175675    4.7975756   -81.378099    1197.2794    -10126.94    9.6246633   0.11207816 
   58900   -84.986576    5.0696436   -79.916932    1265.1764    -9764.931    9.4665026   0.16340331 
   59000    -83.48629    4.5635664   -78.922724    1138.8802    25551.632    9.6022402   0.19389682 
   59100   -85.178339    4.1933332   -80.985006    1046.4851   -20872.395    9.3892372   0.17154056 
   59200   -84.605328    4.2478375   -80.357491    1060.0871   -16214.118     9.347319   0.14826461 
   59300   -83.285385    4.6186863   -78.666699    1152.6359    3511.5769    9.3981619   0.19880711 
   59400   -85.925038    6.0405796   -79.884459    1507.4825   -916.86098    9.6485747   0.13536471 
   59500   -86.068078    4.4261278    -81.64195    1104.5811     21497.86    9.9810591   0.11256199 
   59600   -85.200459     5.820601   -79.379858    1452.5848   -907.48259    9.5879183   0.11676714 
   59700    -84.84875    5.6116861   -79.237064    1400.4482    9109.6675    9.6207953   0.13871618 
   59800   -86.567786    4.8824057    -81.68538    1218.4495    19672.447    9.9929457   0.08050992 
   59900   -85.214625    4.6183866   -80.596239    1152.5611   -2906.1712    9.6066234   0.12722331 
   60000   -83.770107    4.6687224   -79.101385    1165.1228   -13236.809    9.2545634   0.23485199 
   60100   -84.467743    4.0674656   -80.400277    1015.0737   -8726.7987    9.4263505   0.15817991 
   60200    -85.55953    4.0510386   -81.508492    1010.9741   -6336.2097    9.6199126   0.14545666 
   60300   -84.400948    5.1059202   -79.295028    1274.2296    7297.3536    9.6118409   0.18038568 
   60400   -84.934263    5.6631222   -79.271141    1413.2845    10239.142    9.6541838   0.14192918 
   60500   -85.092047    4.1366694   -80.955377    1032.3441   -45265.013    9.1326131   0.14031437 
   60600   -84.367765    4.6308707   -79.736895    1155.6766   -35572.984    9.1039421   0.19881618 
   60700   -83.128228    4.5739351   -78.554293    1141.4678      16809.7    9.4566647   0.23973542 
   60800   -84.896457    3.9097193   -80.986737    975.70661    9706.4621    9.7151336   0.12933987 
   60900   -85.644289    4.8323183   -80.811971    1205.9497    8735.8881    9.7546226   0.12700419 
   61000   -84.863103    5.8207471   -79.042356    1452.6213    10760.714     9.649391   0.14303012 
   61100   -85.928864    5.2370194   -80.691845    1306.9466   -4735.2907    9.6438074   0.10845765 
   61200    -86.19812    4.7172484   -81.480871     1177.233   -10804.007    9.6332176   0.11655047 
   61300   -85.242774    5.7611233   -79.481651    1437.7416   -28053.184      9.28172    0.1295287 
   61400    -84.15686    5.1112214   -79.045639    1275.5526    24088.629    9.7444785   0.18440687 
   61500   -86.542896    5.2989494   -81.243947    1322.4018     23098.11    10.025985  0.085494507 
   61600   -86.561244    6.2101779   -80.351066    1549.8073   -19015.387    9.5499905    0.1098507 
   61700   -84.335451    5.3252678   -79.010183    1328.9698   -21657.673    9.2278504   0.17670685 
   61800   -84.540419    4.1723128   -80.368106    1041.2392    -4466.703    9.4679605   0.19550966 
   61900   -86.142747    4.7019696   -81.440777      1173.42    -20016.68    9.5015862  0.098260041 
   62000   -84.419748    5.8066436   -78.613105    1449.1016   -7367.9417    9.3364312   0.17858543 
   62100    -83.93808    4.5928252   -79.345255     1146.182    3460.2164    9.4655548     0.218276 
   62200   -85.554939    4.7011406   -80.853799    1173.2131   -2553.2765    9.6285386   0.11884114 
   62300   -86.738643    5.0604051   -81.678238    1262.8709   -6470.9246    9.7375795  0.076255172 
   62400   -84.853399    6.1021168   -78.751282    1522.8397   -8830.5082    9.4234512   0.13212923 
   62500   -84.971772    5.2347982   -79.736974    1306.3923    37997.673    9.9966403   0.10174264 
   62600   -85.679519    5.0025396   -80.676979      1248.43    27579.413    9.9569566   0.11000445 
   62700   -84.640699    5.7317083   -78.908991    1430.4008   -26755.166     9.213797   0.15882176 
   62800    -83.98032    5.8607548   -78.119565    1462.6056   -15286.432    9.2624892   0.18626742 
   62900   -84.809235    4.3383389   -80.470896    1082.6726    7729.7497    9.6360766   0.14567832 
   63000   -85.464615    5.4112285   -80.053387    1350.4221   -1636.2079    9.6057996   0.10815735 
   63100   -83.828348    5.7748168   -78.053531    1441.1589    17332.859    9.5559076   0.17847765 
   63200   -84.389806    5.4581004   -78.931706    1362.1194   -8451.4266    9.4090134   0.16807845 
   63300   -85.288679     4.720105   -80.568574    1177.9459   -11782.592    9.4772254   0.16977255 
   63400   -85.139119    5.0244511   -80.114668    1253.8982   -10839.955     9.483237   0.10231784 
   63500   -85.493342    4.5857824    -80.90756    1144.4244     14078.72    9.7955588   0.13117426 
   63600   -86.759219    3.7298579   -83.029361    930.82053    27792.751    10.154501  0.078747651 
   63700   -86.076206    4.7705361    -81.30567    1190.5314    -32058.44    9.3836549   0.13413937 
   63800   -84.850412    4.4871756   -80.363237    1119.8162    -30867.73    9.2199464   0.16336139 
   63900    -84.97691    4.8449105   -80.131999    1209.0922    1523.5241    9.6102366   0.12576096 
   64000   -86.044799    4.4266711   -81.618128    1104.7167    5240.7318    9.8017071  0.091268042 
   64100      -86.144    3.7733614   -82.370638    941.67723    3542.7649    9.8014194  0.092834174 
   64200   -85.429361    4.9071096   -80.522252    1224.6146   -3124.2553    9.6233039   0.13663199 
   64300   -84.806551    4.8402456   -79.966306    1207.9281   -7806.6932    9.4790265   0.14758585 
   64400   -85.434175      5.38224   -80.051935    1343.1878   -22305.007    9.4035146   0.11993548 
   64500   -86.911583    4.4036432   -82.507939    1098.9699    7600.7274    9.9492815  0.088239257 
   64600   -85.530411    4.5719721   -80.958439    1140.9779    5154.1842    9.6983001    0.1199007 
   64700    -84.28256    4.6090557   -79.673504    1150.2325   -8745.3113    9.4094266    0.1807032 
   64800   -83.554415    3.2802521   -80.274163    818.61725    8053.4107    9.4720785   0.18770707 
   64900   -86.703063    4.7440517   -81.959011     1183.922    6898.1492    9.8742325  0.080067567 
   65000   -85.162984    5.5769842      -79.586     1391.788     11874.27    9.7003828   0.14354648 
   65100   -85.046804    5.8060958   -79.240708    1448.9649   -21383.081    9.3553734   0.14848371 
   65200   -85.584916     3.953605   -81.631311    986.65868   -12111.948    9.5559533   0.14198689 
   65300   -85.133956    4.7954972   -80.338458    1196.7607    6583.2979    9.6844651   0.12970657 
   65400   -84.860336    5.5932659   -79.267071    1395.8512    19068.632    9.7625492   0.17252409 
   65500   -86.104747    4.4713687   -81.633378    1115.8714   -13392.435    9.6093262   0.10445876 
   65600    -84.98736     3.535385   -81.451975    882.28803   -18619.495    9.3797004   0.13139016 
   65700    -84.70028    5.1191255   -79.581154    1277.5251   -2287.2908    9.4684705   0.17147838 
   65800   -85.211671     4.800767   -80.410904    1198.0758   -4065.9166    9.5366444   0.12041582 
   65900   -86.451232    4.7225587   -81.728674    1178.5582    13144.806    9.9128936  0.086425621 
   66000   -84.709371    5.7677942   -78.941576    1439.4064   -10149.854     9.421903   0.17082934 
   66100   -84.340247    4.6081194   -79.732128    1149.9988   -10894.066     9.405048   0.15122876 
   66200    -85.28522    3.9751781   -81.310041    992.04246   -15651.318    9.4777464   0.13356965 
   66300   -84.128367    4.2449939   -79.883373    1059.3775    9216.0444    9.5756377     0.170664 
   66400    -84.48639    5.5155701   -78.970819    1376.4615   -14870.439     9.313891   0.16292821 
   66500   -85.803239    4.8962308   -80.907008    1221.8997    16642.488    9.8749543  0.096618563 
   66600    -86.21161    5.3141126   -80.897498    1326.1859    18563.495    9.9142697  0.097605271 
   66700   -84.229635    5.3259926   -78.903642    1329.1507   -17621.094    9.2344581   0.21641307 
   66800   -84.847611    4.2804339   -80.567178    1068.2219   -10212.949    9.4132865   0.15611442 
   66900   -85.250508    3.9146266   -81.335882    976.93126   -6911.2108    9.5246265   0.12952494 
   67000   -84.539111    5.6907828   -78.848328    1420.1875    11384.494    9.6429777   0.11250815 
   67100   -85.349953    5.3081665   -80.041786     1324.702    21909.333     9.828741   0.11770708 
   67200   -85.716765    4.1308849    -81.58588    1030.9005    2465.8087     9.727999   0.10590556 
   67300   -83.926582    4.6119285   -79.314653    1150.9494   -11015.717    9.2405305   0.19687855 
   67400    -84.30414    4.9904115   -79.313728    1245.4033   -26649.694    9.2018686   0.19040071 
   67500   -85.555123    4.1210556   -81.434068    1028.4475    9263.1948    9.7544373  0.097743696 
   67600   -85.764701    5.3256006   -80.439101    1329.0529    6068.4219    9.7326409   0.11599456 
   67700   -84.277511    5.4880084   -78.789502    1369.5833    18717.305    9.6183672   0.13024047 
   67800   -85.261967    4.2397884   -81.022178    1058.0784    9666.0135    9.7565538   0.13651357 
   67900   -85.314018    4.3184436   -80.995575    1077.7075   -6693.4829    9.5394499   0.12625331 
   68000   -84.631025    6.0856768   -78.545348    1518.7369   -11971.701    9.4200134   0.14816852 
   68100   -86.162108    5.6953827   -80.466726    1421.3354    16161.103    9.8886449    0.1120481 
   68200   -85.564589    4.6660049   -80.898584    1164.4447    6582.8108    9.7210505   0.11202253 
   68300   -83.449243    5.0607233    -78.38852    1262.9503    -17224.53    9.1250492   0.16535741 
   68400   -84.073208    4.0446779    -80.02853    1009.3868     764.7779    9.4566826   0.17609311 
   68500   -85.597219    4.5551676   -81.042051    1136.7842   -23248.817    9.3931166   0.13484069 
   68600   -84.059818    4.8506709   -79.209147    1210.5298    10706.369    9.5603977    0.1896389 
   68700   -83.600036    4.9635746   -78.636462    1238.7059    11835.832    9.4991186   0.18898545 
   68800   -85.640124    4.7477085   -80.892415    1184.8346    17729.064    9.8507256   0.11548958 
   68900   -84.283813    4.1987614   -80.085051    1047.8397    12154.714    9.6323157   0.16157841 
   69000   -84.506674     6.115455   -78.391219    1526.1684   -9138.2826    9.3957681   0.17124597 
   69100   -85.965895    5.2668723   -80.699023    1314.3967   -183.94495    9.6795734   0.08211368 
   69200   -86.060815    5.0847846    -80.97603     1268.955    4759.9722    9.7556682   0.11432687 
   69300   -84.153175    5.8209709   -78.332205    1452.6771    -12556.92    9.2908359   0.15416341 
   69400   -84.961746    4.6712228   -80.290524    1165.7468   -2916.3647    9.5446705   0.13067622 
   69500   -85.670614    4.5591534   -81.111461    1137.7789   -2688.2235    9.6231541    0.1002492 
   69600   -84.989546    6.0986716   -78.890874    1521.9799    7336.5344    9.5949947   0.17073387 
   69700   -84.065731    4.5313477   -79.534383    1130.8397   -6884.2684    9.3741033   0.18453509 
   69800   -85.583032    4.5817373   -81.001295    1143.4149   -33499.405      9.27292   0.14011054 
   69900   -84.429554    4.4503472   -79.979207    1110.6253   -7452.3857    9.4150793   0.16242941 
   70000   -84.640048    6.0988709   -78.541177    1522.0296    31349.754    9.8318557   0.13153407 
   70100   -85.801371    4.6651594   -81.136212    1164.2337    20747.675     9.936184   0.10125217 
   70200   -84.964144    4.5202615   -80.443882    1128.0731   -12184.309    9.4257287   0.12564806 
   70300   -83.341866    4.8575079   -78.484358     1212.236   -7364.7671    9.2504546   0.21736486 
   70400    -85.49077    5.2998504    -80.19092    1322.6267    4615.1855    9.6681312   0.13542295 
   70500   -86.078852    4.8347767   -81.244076    1206.5632    43997.868    10.192205  0.086022828 
   70600   -84.705127    5.6118626   -79.093264    1400.4922    5007.6568     9.565248   0.16401961 
   70700    -84.18926    4.7261416   -79.463118    1179.4523   -4550.9372    9.3835592   0.15681042 
   70800   -85.238942     3.815989   -81.422953    952.31535    3533.9083    9.6543155   0.11765302 
   70900   -84.153608    4.7863236   -79.367284    1194.4713    7418.9152    9.5781594   0.15869254 
   71000   -84.285462    5.2562881   -79.029174    1311.7553   -1158.4594    9.4448142   0.18581032 
   71100   -85.627738    4.1638807   -81.463858    1039.1349    23785.451    9.9296612   0.11406016 
   71200   -85.482404    5.3486184   -80.133786    1334.7972   -7426.8061    9.5438663   0.14543608 
   71300   -83.871938     4.703587   -79.168351    1173.8236   -35381.565    9.0366154   0.20841488 
   71400    -84.86958    3.9770254   -80.892554    992.50346   -12548.725    9.4280377    0.1761679 
   71500   -86.143528    4.3937683    -81.74976    1096.5055    22851.938    10.016401   0.10980186 
   71600   -84.493956    5.6478409   -78.846115    1409.4709    2740.0307    9.5215149   0.13413421 
   71700   -84.908397    4.9206594   -79.987738     1227.996    16888.638    9.7411625   0.14109709 
   71800   -85.623352    4.2938743   -81.329478     1071.576     10505.54     9.756167   0.11842598 
   71900   -84.180561     4.737691    -79.44287    1182.3346   -829.10999    9.4728987   0.20975916 
   72000   -84.089553     5.559642   -78.529911    1387.4601   -15585.061    9.2914498   0.13384083 
   72100   -84.459819    4.0414088    -80.41841    1008.5709   -5482.5307    9.4706795   0.17197635 
   72200   -85.453419    4.5082406   -80.945178    1125.0731   -1499.0632    9.5956129   0.11599092 
   72300    -83.71054    5.6541123   -78.056428     1411.036    15903.985    9.5930416   0.16552343 
   72400   -85.559704    6.8183604   -78.741344    1701.5849    30082.647    9.9463433    0.1390641 
   72500   -85.105145    4.3188174   -80.786327    1077.8008    -12406.73    9.4781452   0.12739905 
   72600   -84.073702    4.5079676   -79.565735     1125.005   -22329.474    9.2174542   0.16545904 
   72700   -84.523191    6.0332998   -78.489891    1505.6658   -15805.858    9.3129503   0.13891987 
   72800   -85.538472    4.7633642   -80.775108    1188.7416    24568.108    9.9178459   0.11164463 
   72900    -84.88703    4.6248917   -80.262138    1154.1845     16039.93     9.736238   0.13582251 
   73000   -83.401483    5.1193752   -78.282108    1277.5874     6884.637    9.4254038   0.22688518 
   73100   -84.874464    4.5476203   -80.326844    1134.9007   -12320.292    9.4138704   0.14657337 
   73200   -85.454501    4.5867657   -80.867736    1144.6698   -4577.2459    9.5714046   0.13137928 
   73300   -84.251544    4.8830121   -79.368532    1218.6008    22159.153    9.7253813   0.13108596 
   73400   -84.589086    5.2433295   -79.345757    1308.5214    17956.185    9.7038595    0.1579984 
   73500   -86.107329    4.3476849   -81.759644     1085.005   -15812.309    9.5508417  0.094833852 
   73600   -85.201625    5.2563017   -79.945323    1311.7587   -38970.318    9.1790408     0.135225 
   73700   -85.163344    5.7067685   -79.456575    1424.1769   -11377.664    9.4253462   0.14738678 
   73800   -86.723479    5.3386073   -81.384871    1332.2988    24087.977      10.0637  0.082880922 
   73900   -84.639594    4.4345418   -80.205052    1106.6809    39651.499    9.9518272   0.12660646 
   74000   -82.893651    4.1327363   -78.760915    1031.3626    -13100.48    9.2042508   0.18927785 
   74100   -85.191827    4.2633114   -80.928516    1063.9488    -27046.94    9.3486708   0.14760944 
   74200   -85.468335    4.7110959   -80.757239    1175.6975    4562.8534    9.7142786   0.12355784 
   74300   -84.151159    5.6672575   -78.483902    1414.3165     1433.798    9.4427408   0.13982894 
   74400   -85.463609    4.7702179   -80.693392     1190.452    4078.1835    9.6670576    0.1326676 
   74500   -86.471619    5.5038099   -80.967809    1373.5267   -7636.3129     9.701071   0.10640338 
   74600   -85.196852    6.7448491   -78.452003    1683.2395   -6478.5996    9.4942733   0.13039479 
   74700    -85.09402    4.6843245   -80.409696    1169.0165    32546.359    9.9265386   0.10888934 
   74800   -85.832806    4.6500764   -81.182729    1160.4696    2904.2339    9.7304111   0.10733791 
   74900   -84.028587    5.3607269    -78.66786     1337.819   -18036.685    9.2082229   0.19158322 
   75000   -82.955967    3.4419985   -79.513969    858.98256   -3937.0156    9.2219961   0.22592397 
   75100   -84.406017    3.2322087   -81.173808    806.62756    -16858.03    9.3082198   0.13669163 
   75200    -84.93438    5.6280055   -79.306375    1404.5208    5466.9519    9.6282516   0.17066492 
   75300   -84.710716    5.5765533   -79.134163    1391.6804    4126.0519    9.5551628   0.14290527 
   75400   -86.445065    4.7314746    -81.71359    1180.7832    10124.348    9.8764638  0.088565453 
   75500   -85.034162    4.6882503   -80.345912    1169.9962   -8439.2985    9.4460603   0.13069745 
   75600   -83.343002    4.0279446   -79.315057    1005.2108   -4569.2095    9.3549645     0.188657 
   75700   -86.271896    4.6887227   -81.583173    1170.1141    7768.3589    9.8235896   0.10577069 
   75800   -85.471436    4.7529033   -80.718533     1186.131    24982.619    9.9082345   0.10176978 
   75900   -84.452182    5.1081124    -79.34407    1274.7767    17690.318    9.6935763     0.147247 
   76000   -85.966511    5.0482835   -80.918227    1259.8458   -17854.744    9.5031123   0.08703146 
   76100   -86.067237    4.3056955   -81.761541    1074.5261   -4420.2236     9.694736     0.100275 
   76200   -86.424052    7.0152895   -79.408763    1750.7304    1235.9621    9.7384889  0.090389743 
   76300   -85.214405    5.6198861   -79.594519    1402.4946     45147.27    10.086794   0.11001911 
   76400   -86.136487    4.1386213   -81.997865    1032.8312   -12946.345    9.6107311   0.11511397 
   76500   -84.671458    4.9363346   -79.735123    1231.9079   -37278.046    9.1353213   0.15807194 
   76600   -84.067245    4.4945387   -79.572707    1121.6537    8844.4342    9.5120149    0.1956747 
   76700   -85.661452    4.4315349   -81.229917    1105.9305    6427.7737    9.7205255   0.13922857 
   76800   -84.901462    3.5951478   -81.306314    897.20238    8576.2635    9.6344301   0.13176246 
   76900   -84.120653     5.108246   -79.012407      1274.81   -15138.531    9.2799545    0.1784157 
   77000   -85.165322     4.641422     -80.5239    1158.3098    4658.3856     9.630182   0.11711925 
   77100   -85.975475     4.966245    -81.00923    1239.3724     29888.04    10.030152   0.10837441 
   77200   -84.451667    6.3059918   -78.145675    1573.7186    20868.197    9.6869351   0.12806828 
   77300   -85.166623    5.4225943   -79.744029    1353.2586   -6289.3373    9.5271231    0.1272904 
   77400   -85.054448    4.0807617   -80.973686    1018.3918   -14432.619     9.443907   0.11254951 
   77500   -84.359901    4.3143146   -80.045586    1076.6771     16429.35     9.706795   0.16608343 
   77600   -85.444304     7.431003   -78.013301    1854.4755    5334.0932    9.6212687   0.10095414 
   77700   -84.609379    4.8017495   -79.807629     1198.321    53965.568    10.159148   0.10798155 
   77800   -86.154439      5.56534   -80.589099    1388.8821   -6376.0639    9.6366655  0.088180321 
   77900   -83.433468    5.1189594   -78.314509    1277.4837    -20547.72    9.0642295   0.22755174 
   78000   -83.490824    5.2944454   -78.196378    1321.2778   -6406.3918    9.2522251   0.16627851 
[...]
  481400   -83.036342    3.8400794   -79.196263    958.32733   -3634.7747     9.250474     0.200464 
  481500   -82.925567    4.1398463   -78.785721    1033.1369   -4049.1457    9.2555538    0.2553624 
  481600   -86.441242    4.9778254   -81.463416    1242.2624    -8814.001    9.6708721   0.11257598 
  481700   -85.629359    5.1119082    -80.51745     1275.724    6815.9839    9.7327733   0.11679843 
  481800   -85.239678    6.1406671   -79.099011    1532.4603   -6876.3068    9.5147479   0.12187961 
  481900    -85.88001    4.8459857   -81.034024    1209.3605   -11460.709    9.5793655   0.15021483 
  482000   -86.249885    4.7245064   -81.525379    1179.0443   -11493.725    9.6368887   0.12431047 
  482100   -85.104209    5.5526854   -79.551524     1385.724   -27258.163    9.2797024    0.1271188 
  482200   -83.462412    3.9209041   -79.541508    978.49787   -5310.9198     9.254396   0.28917537 
  482300   -82.678735    4.4676352     -78.2111    1114.9397   -5266.3169    9.0930085   0.25564302 
  482400   -86.319241    4.8925665   -81.426674    1220.9852    373.82219     9.762474  0.097724191 
  482500   -86.962166    6.1386631   -80.823503    1531.9601    9003.5608      9.88731  0.077638544 
  482600   -83.887099    3.7829778   -80.104122    944.07708    12530.744    9.5825686    0.1470396 
  482700   -83.329229    4.4351389    -78.89409    1106.8299   -28089.033     9.031944   0.19963685 
  482800   -85.781786    4.2551102   -81.526676    1061.9021   -26444.572    9.4176959   0.15419603 
  482900   -85.480111    4.5449304   -80.935181    1134.2294    13944.458    9.8314418   0.14019787 
  483000   -84.331701    4.6823639   -79.649337    1168.5272    17531.769    9.6599312   0.16729941 
  483100   -84.341592     4.771119   -79.570473    1190.6769   -12791.224    9.3288685   0.17527155 
  483200   -86.615043     4.406867   -82.208176    1099.7744   -817.67355    9.8039186  0.092842381 
  483300   -85.693959    5.1462603   -80.547698    1284.2968   -2073.2278    9.6349423   0.11210681 
  483400   -84.835262    5.4014828   -79.433779      1347.99   -3506.3312    9.5253054   0.13647897 
  483500   -85.291308    3.6865743   -81.604734     920.0187    14223.619    9.8021208  0.095725823 
  483600   -85.612966    4.3637322   -81.249234    1089.0097    6315.5955    9.7445182   0.10109336 
  483700   -83.904277    4.6479742   -79.256302    1159.9449    24759.892    9.6950755   0.17674603 
  483800   -85.126256    5.1908432   -79.935413    1295.4229    20282.567    9.7875367   0.12892393 
  483900   -85.497685    4.1734221   -81.324262    1041.5161   -1103.0061    9.6650209    0.1047194 
  484000   -84.073359    5.0371278   -79.036232    1257.0618    3731.2943    9.3973528   0.16425543 
  484100   -84.268387    4.7639222   -79.504465    1188.8809   -19544.717    9.2283319   0.19689893 
  484200   -85.660819    4.6596908   -81.001128    1162.8689   -15660.648    9.4569819   0.12124433 
  484300   -85.451572    5.8755886   -79.575983    1466.3075    9624.6324    9.7243901   0.10505969 
  484400   -83.930045     6.052651   -77.877394     1510.495    21282.284    9.5751612   0.16335097 
  484500   -85.729353    5.0899489   -80.639404    1270.2438    9367.5008    9.7697309    0.1242375 
  484600   -84.966536    4.6697519   -80.296785    1165.3798   -28574.103    9.2700844   0.15053619 
  484700   -82.936941    4.5531592   -78.383782     1136.283   -15058.113    9.1333054   0.25035497 
  484800   -85.135847     4.470798   -80.665049     1115.729    17023.637      9.78871   0.15348635 
  484900   -86.050975    5.3092462   -80.741729    1324.9715    2494.8374    9.7630606   0.11633095 
  485000   -84.955531    6.5586179   -78.396914    1636.7638   -20.378235    9.5266011   0.12027016 
  485100   -84.898437     4.611628   -80.286809    1150.8744    9883.2693    9.6825246   0.14482157 
  485200   -85.700268    4.4504362   -81.249832    1110.6475   -5027.3985    9.6113121   0.12122218 
  485300    -84.65573    5.7608555   -78.894875    1437.6748   -14651.595    9.3289978   0.19254782 
  485400   -84.934926    5.1203268   -79.814599    1277.8249   -1327.4325    9.5209333   0.13624912 
  485500   -85.358479    4.0686904   -81.289789    1015.3793    3855.5346    9.6978205   0.13190741 
  485600   -84.520911    5.2526466   -79.268264    1310.8465   -10573.231    9.3657526   0.15967989 
  485700   -84.527147    4.9590225   -79.568125    1237.5699    15966.926    9.6605106   0.12821595 
  485800   -85.581449    4.2883623   -81.293087    1070.2005     11088.99    9.7873121    0.1193258 
  485900   -84.649041    4.9576826   -79.691358    1237.2355   -4155.6016    9.4861554   0.16370865 
  486000   -84.950491    6.6262487   -78.324242    1653.6416   -19353.858    9.3468603    0.1416914 
  486100   -84.912593    3.9104851   -81.002108    975.89771    9222.5328    9.6436256   0.14614533 
  486200   -85.031138    4.7496424   -80.281495    1185.3172   -955.71185    9.5666652   0.14041644 
  486300   -83.853719    5.0678011   -78.785918    1264.7166   -13165.718    9.2479089   0.20292417 
  486400   -85.491926    4.3085747   -81.183352    1075.2447   -23990.922    9.3773043   0.16987958 
  486500   -84.952835    4.0614996   -80.891335    1013.5848    4127.7735    9.6378333   0.11928109 
  486600    -85.93879     7.162113   -78.776677    1787.3715    7574.6112    9.7575521   0.11187838 
  486700    -84.70753    5.1217999   -79.585731    1278.1925    35996.022    9.9043575   0.12893066 
  486800   -86.187204    4.6195345   -81.567669    1152.8476   -19140.471    9.5210432   0.11553119 
  486900   -84.281145    4.5968123   -79.684332     1147.177   -16422.059    9.2666681   0.16484935 
  487000   -84.276871    5.0543389   -79.222532     1261.357   -3436.2374     9.424874   0.18425039 
  487100   -85.894282    4.1195878   -81.774695    1028.0812    4772.5878    9.7494786   0.11577197 
  487200   -85.844464    5.5306482   -80.313816    1380.2244   -24570.366    9.3987662    0.1297765 
  487300    -83.80382    4.5824855   -79.221335    1143.6016    7028.3443     9.520605    0.1615578 
  487400   -85.950078    4.7729025   -81.177175    1191.1219    19922.945    9.9031376   0.11508803 
  487500   -85.747793    4.3021676   -81.445625    1073.6457    6191.0751    9.7651452   0.12198796 
  487600   -84.161401    4.7372292   -79.424171    1182.2193   -39.351036    9.4478431   0.17199558 
  487700   -85.217222    4.6374336   -80.579789    1157.3144    6699.4826    9.6731083   0.12285167 
  487800   -86.763842    5.3597894   -81.404052     1337.585    38731.835    10.215394  0.072056334 
  487900   -85.644626    6.3857209   -79.258905    1593.6157    276.51576    9.6393309  0.098664428 
  488000   -84.512733    4.5540894   -79.958643    1136.5151   -15503.211    9.3478495   0.13480334 
  488100   -85.247072    3.7854285   -81.461643    944.68868   -11964.119    9.4500802   0.15336371 
  488200   -83.690758     4.581729   -79.109029    1143.4128    10986.434    9.5181765   0.16276846 
  488300   -85.236373     5.844232   -79.392141    1458.4821    9665.2091    9.6827901   0.13310986 
  488400   -86.340746    5.3161827   -81.024563    1326.7026    11202.812    9.8731892  0.092114564 
  488500   -84.963924    5.4830803   -79.480844    1368.3534   -14526.481    9.3853337   0.14473244 
  488600   -84.489465    5.6523071   -78.837158    1410.5855   -15487.877    9.3187897   0.18477759 
  488700   -85.949912    4.7422124   -81.207699     1183.463    -13928.49     9.563168   0.10376573 
  488800   -85.569845    5.2763336   -80.293512    1316.7578    7896.3077    9.7090543   0.11811868 
  488900   -84.673766    6.2715896   -78.402176    1565.1332    15009.633    9.6535849   0.16593093 
  489000   -85.682307    5.2538909   -80.428416    1311.1571   -7548.4627    9.5571556   0.10141151 
  489100   -86.218853    4.8686247   -81.350229    1215.0103   -18338.785     9.571884   0.12068948 
  489200   -84.234533    5.5410277   -78.693505    1382.8147    598.31938    9.4300366   0.14009517 
  489300   -84.535963    4.2607865   -80.275177    1063.3187    6976.5221    9.5714114   0.13653402 
  489400   -86.154015    4.8661938   -81.287822    1214.4037   -8291.1143    9.6453218   0.10131689 
  489500   -84.870669     6.244946   -78.625723     1558.484   -14178.077    9.3887575   0.12672952 
  489600   -84.530451    5.3786078   -79.151843    1342.2813    17886.232      9.70573   0.15351461 
  489700   -85.958741    4.8102054   -81.148535    1200.4312   -5343.1105    9.6540534    0.1036445 
  489800    -84.84015    4.9421292   -79.898021     1233.354   -2111.4776    9.5378899   0.13772097 
  489900   -84.609174    6.1992915   -78.409882    1547.0905   -9078.9194     9.398835    0.1572228 
  490000    -85.76106    4.7334914   -81.027568    1181.2865    8988.5292    9.7691863   0.13204184 
  490100   -84.676192    4.3802232   -80.295969    1093.1252    4476.5727    9.5482717   0.16234286 
  490200   -83.481777    4.7910256   -78.690752    1195.6448   -27667.177    9.0444018   0.21596468 
  490300    -85.31762    4.8903849   -80.427235    1220.4408   -19140.612    9.4222376    0.1344606 
  490400   -86.597286    5.2400405   -81.357246    1307.7006    12685.247    9.9115609   0.10219478 
  490500   -84.541063    5.2474382   -79.293625    1309.5467    22772.934    9.7147757   0.13485292 
  490600   -84.278075    4.5619456    -79.71613    1138.4757   -3185.3447    9.4689333   0.16742233 
  490700   -86.201537    4.4227053   -81.778832     1103.727   -19166.691    9.5382366   0.13259237 
  490800   -84.460101    4.8196007     -79.6405    1202.7759   -775.72808    9.4898203   0.18223808 
  490900    -84.72319    5.7973374   -78.925853    1446.7792   -6793.8468    9.4374451   0.16720952 
  491000   -85.630858    4.2254323   -81.405426    1054.4957   -201.31882    9.6435065  0.092429351 
  491100   -85.635381     5.317695   -80.317686      1327.08     3274.777    9.6862029   0.13075029 
  491200   -84.685591    5.7750655   -78.910526     1441.221   -9768.3771    9.4166913   0.13934754 
  491300   -85.995234    4.6198718   -81.375363    1152.9317    4011.4204    9.7550513   0.12018699 
  491400   -84.676035    4.3161963   -80.359839    1077.1467    19598.306    9.6871048   0.16133611 
  491500   -84.321641    5.4366874   -78.884954    1356.7756   -23103.945    9.2129844   0.16068683 
  491600   -85.509228    4.5075699   -81.001658    1124.9057   -11961.352    9.5096422   0.11725589 
  491700   -86.235023    5.7153144   -80.519709    1426.3096    35630.712    10.130215  0.098736913 
  491800   -84.782944    6.3726434   -78.410301    1590.3521     31952.22    9.8605958   0.12404054 
  491900   -85.676959    5.0530773   -80.623882    1261.0422   -12986.229    9.4960501   0.10841774 
  492000   -85.526989    4.0909134   -81.436076    1020.9253   -18246.588    9.4640931   0.12802449 
  492100   -84.228597    5.3790361   -78.849561    1342.3882   -13791.139    9.2574285    0.1927133 
  492200   -85.152939    5.1069892    -80.04595    1274.4964    268.32448    9.6050775   0.15144632 
  492300   -85.712724    4.6027148   -81.110009      1148.65    23996.453    9.9547204   0.09005277 
  492400    -83.83682     4.857573   -78.979247    1212.2523    15704.082    9.5979706   0.16684512 
  492500   -84.613773    5.4960616   -79.117711     1371.593   -3772.9662    9.4502546   0.14418344 
  492600   -84.755518    4.0106509   -80.744867     1000.895   -22279.294    9.3304868   0.17942979 
  492700   -84.610356     5.138324   -79.472032    1282.3163   -6299.2961     9.388241   0.13658384 
  492800   -83.672673    6.2724401   -77.400233    1565.3454    10755.637    9.4830935   0.18015208 
  492900   -85.557541    5.1799539   -80.377587    1292.7054    9836.0278    9.7482253   0.11334474 
  493000   -85.192846    4.6943972   -80.498449    1171.5302    3787.3377    9.6533139   0.13084711 
  493100   -84.308474    4.9733688   -79.335105    1241.1502   -8364.0437    9.3900478   0.13756953 
  493200   -81.774427    4.3176208   -77.456807    1077.5022   -4738.3176     9.068662   0.28032044 
  493300   -83.974476    4.5621476   -79.412328    1138.5261   -15870.521    9.2903541   0.19339922 
  493400   -85.140812    4.8459856   -80.294826    1209.3605     15705.63    9.7772818   0.15234981 
  493500   -85.527473     5.690624   -79.836849    1420.1478    3872.5025    9.6987903   0.14098399 
  493600   -84.020806    6.5014554    -77.51935    1622.4983    6856.1497    9.4948774   0.18334849 
  493700   -83.976409    5.2503491   -78.726059    1310.2732    18093.275      9.61115   0.16614585 
  493800   -86.143075    5.5322472   -80.610828    1380.6235    -3251.934    9.6846838   0.11439875 
  493900   -86.256154    6.0566702   -80.199484    1511.4981   -6057.4287    9.6351056  0.097657815 
  494000   -84.218583    4.9172705   -79.301313    1227.1503   -24588.205    9.1893044   0.16498161 
  494100   -81.037042    4.1163507   -76.920691    1027.2734   -11500.267    8.8433576   0.30618611 
  494200   -84.499986    4.6692683   -79.830717    1165.2591    -2142.717    9.4848638   0.17040676 
  494300   -85.591967     5.325216   -80.266751    1328.9569    6241.5912     9.724415    0.1068446 
  494400   -85.352705      5.09458   -80.258125    1271.3995    10050.714    9.6896046   0.11765227 
  494500   -83.581987    6.1929544   -77.389033     1545.509   -406.70636    9.3518287   0.20871235 
  494600   -84.082833    5.1446057   -78.938228    1283.8839   -11776.908    9.3113398   0.17361115 
  494700   -84.959303    4.8025929    -80.15671    1198.5315   -12772.342    9.3613826   0.14398531 
  494800   -85.298862    4.7551751   -80.543687    1186.6979   -121.72293    9.6428624   0.13788966 
  494900   -87.161509    4.5707537   -82.590755    1140.6739    -1455.033    9.8615365  0.083141912 
  495000   -86.295686    5.0476566   -81.248029    1259.6894    8892.7208    9.8268874   0.11014416 
  495100   -85.906597    5.6145872    -80.29201    1401.1722   -11195.913    9.5817316   0.12425411 
  495200   -84.694807    4.7548375   -79.939969    1186.6137   -29553.693    9.2080971    0.1628105 
  495300   -83.813864    5.5063032   -78.307561    1374.1489    -16275.01     9.190318   0.22667836 
  495400    -84.04651    6.3244544   -77.722056    1578.3261    11382.983     9.526677   0.15051801 
  495500   -85.557483    6.0292589   -79.528224    1504.6573    8947.8329    9.7230203   0.11981389 
  495600   -85.607112    5.2805045   -80.326607    1317.7987   -9686.9487    9.5542603   0.12080829 
  495700   -86.270975    4.8228083   -81.448167    1203.5764   -27448.619    9.4685989   0.10443653 
  495800   -87.515945    4.7227667   -82.793178    1178.6101   -8922.9481    9.8194705  0.071064157 
  495900   -84.924284    4.3772339    -80.54705    1092.3792    19331.625    9.7994776   0.14394525 
  496000   -85.189097    5.2515849   -79.937512    1310.5816   -2785.8564     9.579129   0.11324731 
  496100   -86.124626    5.3540277   -80.770598    1336.1471    1234.6637    9.7110203   0.10267767 
  496200   -86.407082    3.9799125    -82.42717    993.22397    1348.5936    9.7754181  0.081235953 
  496300   -85.403067    5.3411147   -80.061952    1332.9246   -5188.6795    9.5763578   0.14591604 
  496400   -84.499864     4.448601   -80.051263    1110.1895   -1508.1754    9.5115736   0.16227723 
  496500   -84.566832    3.2174985   -81.349334    802.95649    11715.117    9.6386581   0.14247526 
  496600   -87.142738    4.7616425   -82.381095    1188.3119   -1007.6609    9.8418216  0.073897812 
  496700   -85.410056    5.5810142   -79.829042    1392.7937   -5017.0915    9.5689288   0.13715699 
  496800   -85.856154    5.7765134   -80.079641    1441.5823   -988.48151    9.6519419   0.12004995 
  496900   -86.241377     4.911091   -81.330286    1225.6082   -6721.1947    9.6591507   0.11275343 
  497000   -85.968418    3.3900321   -82.578386    846.01386   -24684.118    9.4659419   0.13401724 
  497100   -84.801004    4.9407097   -79.860294    1232.9998   -6554.9711    9.4727225   0.14199362 
  497200   -86.090266    6.5995853   -79.490681    1646.9875    4275.3984      9.74676   0.11164462 
  497300    -85.96631    5.3699273   -80.596383     1340.115    3594.9213    9.7167671   0.10041358 
  497400   -87.058869    4.7940529   -82.264816    1196.4002   -872.29893    9.8311384  0.090511449 
  497500   -86.401335    4.3774844   -82.023851    1092.4417    -7065.121    9.7090587   0.10041024 
  497600   -85.710278    5.5410573   -80.169221    1382.8221    15121.419    9.8301272   0.10164735 
  497700   -84.771725    4.3619462   -80.409779     1088.564    8277.9493    9.6550822    0.1755321 
  497800   -83.681896    4.6743656    -79.00753    1166.5312   -31615.189    9.0468682   0.23875065 
  497900   -82.461213    5.1389494   -77.322264    1282.4723   -14648.255    9.0320955   0.27202797 
  498000   -86.253915    5.5897331   -80.664182    1394.9696   -19314.087    9.5449413   0.10901097 
  498100   -85.456759    4.8661263   -80.590632    1214.3868   -18059.971    9.4674114   0.12526467 
  498200   -84.832367    5.5912645   -79.241103    1395.3518    3531.6427    9.5935869   0.11582814 
  498300   -85.495706    5.7634335   -79.732272    1438.3181    14392.226    9.8126762   0.13447999 
  498400   -85.696959    4.2166663   -81.480293    1052.3081   -10816.901    9.5684186    0.1333703 
  498500   -83.906406    4.5618826   -79.344523      1138.46   -39026.126    8.9689419   0.17049289 
  498600   -84.647251    5.3696057   -79.277646    1340.0348   -27083.949    9.1978409   0.19629484 
  498700   -86.764181    5.1386864   -81.625494    1282.4067    7065.9231    9.8790194  0.079753513 
  498800   -86.947861    6.3676027   -80.580258    1589.0941   -7138.3854     9.720206  0.088084079 
  498900   -84.190059     4.857521   -79.332538    1212.2393    499.39504    9.4599056    0.1192649 
  499000   -85.698303    4.2315834    -81.46672    1056.0308    3716.4756    9.7282681   0.12658512 
  499100   -85.802932     4.910549   -80.892383    1225.4729   -10528.267    9.6164038   0.10645338 
  499200   -84.957785    6.3364976   -78.621287    1581.3316    5237.6625    9.5291924   0.10675013 
  499300   -85.568055    5.3994746   -80.168581    1347.4888    -6251.699    9.5847019    0.1066099 
  499400   -86.430181    5.1742727   -81.255909    1291.2876   -2627.2881    9.7366499    0.1019971 
  499500   -84.741345     6.122996   -78.618349    1528.0503   -11228.141    9.3869973   0.13593961 
  499600   -85.276888    5.6022081    -79.67468    1398.0828   -7049.8478    9.5266799   0.13135484 
  499700   -86.364894    4.8679118   -81.496983    1214.8324   -7497.3408    9.6839408  0.094203482 
  499800   -85.220867    5.7973876   -79.423479    1446.7917    3454.7442    9.6039402   0.14307316 
  499900   -85.434713      7.04764   -78.387073    1758.8037    17923.178    9.7819194    0.1062479 
  500000   -86.274287    5.4365491   -80.837738    1356.7411   -298.65348    9.7504691  0.092295937 
Loop time of 47.3737 on 1 procs for 500000 steps with 32 atoms

Performance: 4559.495 ns/day, 0.005 hours/ns, 10554.386 timesteps/s
100.0% CPU use with 1 MPI tasks x no OpenMP threads

MPI task timing breakdown:
Section |  min time  |  avg time  |  max time  |%varavg| %total
---------------------------------------------------------------
Pair    | 27.655     | 27.655     | 27.655     |   0.0 | 58.38
Neigh   | 1.0895     | 1.0895     | 1.0895     |   0.0 |  2.30
Comm    | 1.591      | 1.591      | 1.591      |   0.0 |  3.36
Output  | 0.11746    | 0.11746    | 0.11746    |   0.0 |  0.25
Modify  | 16.531     | 16.531     | 16.531     |   0.0 | 34.90
Other   |            | 0.3893     |            |       |  0.82

Nlocal:    32 ave 32 max 32 min
Histogram: 1 0 0 0 0 0 0 0 0 0
Nghost:    633 ave 633 max 633 min
Histogram: 1 0 0 0 0 0 0 0 0 0
Neighs:    1513 ave 1513 max 1513 min
Histogram: 1 0 0 0 0 0 0 0 0 0

Total # of neighbors = 1513
Ave neighs/atom = 47.2812
Neighbor list builds = 14350
Dangerous builds = 0
Total wall time: 0:00:47
