LAMMPS (3 Mar 2020)
Reading data file ...
  orthogonal box = (0 0 0) to (16.36 16.36 16.36)
  1 by 1 by 1 MPI processor grid
  reading atoms ...
  256 atoms
  read_data CPU = 0.000976666 secs
Reading potential file /usr/share/lammps-stable/potentials/Ag_u3.eam with DATE: 2007-06-11
Neighbor list info ...
  update every 1 steps, delay 10 steps, check yes
  max neighbors/atom: 2000, page size: 100000
  master list distance cutoff = 7.55
  ghost atom cutoff = 7.55
  binsize = 3.775, bins = 5 5 5
  2 neighbor lists, perpetual/occasional/extra = 1 1 0
  (1) pair eam, perpetual
      attributes: half, newton on
      pair build: half/bin/atomonly/newton
      stencil: half/bin/3d/newton
      bin: standard
  (2) compute rdf, occasional, copy from (1)
      attributes: half, newton on
      pair build: copy
      stencil: none
      bin: none
Setting up Verlet run ...
  Unit style    : metal
  Current step  : 0
  Time step     : 0.001
Per MPI rank memory allocation (min/avg/max) = 3.744 | 3.744 | 3.744 Mbytes
Step PotEng KinEng TotEng Temp Press Density c_msdall[4] 
       0       -729.6    40.872058   -688.72794         1240    9969.9544    10.472245            0 
     100   -705.08687    25.322807   -679.76407    768.25788    41412.305    10.472245  0.071600508 
     200   -695.86088    37.058605   -658.80228    1124.3053    58104.414    10.472245  0.092892165 
     300     -684.361    43.190458   -641.17055     1310.337    73755.802    10.472245   0.12309525 
     400   -682.70223    42.059001   -640.64323    1276.0102    76680.609    10.472245   0.11777202 
     500   -692.80971    39.549062   -653.26065    1199.8622    62216.012    10.472245  0.085877706 
     600   -692.69196    38.876055   -653.81591    1179.4441    62528.381    10.472245  0.081608602 
     700   -689.33758    45.015952   -644.32163    1365.7198    68798.928    10.472245  0.092124417 
     800   -688.06128    39.304634   -648.75664    1192.4466    68776.289    10.472245   0.11238747 
     900   -689.96661    43.117373   -646.84923    1308.1197    66778.977    10.472245   0.11512257 
    1000   -687.22169    43.629664   -643.59202    1323.6618     72048.59    10.472245   0.11123233 
    1100   -690.71769    41.896634   -648.82106    1271.0842    66166.467    10.472245   0.08978454 
    1200   -690.01915    39.122802   -650.89634    1186.9301     66305.81    10.472245  0.093532066 
    1300   -686.72126    40.503261     -646.218    1228.8112    71372.226    10.472245   0.10188241 
    1400   -688.64009    37.268602   -651.37149    1130.6763    67973.869    10.472245   0.10361996 
    1500   -691.74139    43.774432   -647.96696    1328.0539    65835.964    10.472245  0.083767164 
    1600   -689.87924    40.812736    -649.0665    1238.2003    67124.671    10.472245  0.085744084 
    1700   -694.12543    42.083871   -652.04156    1276.7647    61583.029    10.472245  0.080570423 
    1800   -688.12545    40.072907   -648.05254    1215.7549    69142.003    10.472245  0.093861567 
    1900   -687.25249    44.187327   -643.06516    1340.5805      72661.7    10.472245  0.093067185 
    2000   -688.15779    39.277877   -648.87991    1191.6348    71016.265    10.472245  0.086968767 
    2100   -688.47388    34.643685   -653.83019      1051.04    68366.986    10.472245   0.08898985 
    2200   -687.74257    38.923134   -648.81944    1180.8724    70262.303    10.472245  0.090766983 
    2300   -687.40694    43.043026   -644.36392    1305.8641    71685.067    10.472245  0.092538988 
    2400    -689.5861    40.368394   -649.21771    1224.7196    68307.797    10.472245  0.090797086 
    2500   -691.02405    41.275936   -649.74811    1252.2531     64937.84    10.472245  0.088590148 
    2600   -691.51647    45.910871    -645.6056    1392.8704    65402.132    10.472245  0.092689034 
    2700   -690.78981    38.182096   -652.60771    1158.3904    64662.135    10.472245   0.10372184 
    2800   -691.70944    44.023696   -647.68574    1335.6162    65430.822    10.472245  0.085872868 
    2900   -689.57941    39.715152   -649.86426    1204.9011    67118.885    10.472245  0.089813988 
    3000   -685.66225    44.196157    -641.4661    1340.8484    74200.117    10.472245  0.093352988 
    3100   -689.88989    43.442598   -646.44729    1317.9865    68729.167    10.472245  0.094829392 
    3200   -687.96979     39.24719   -648.72259    1190.7038    69026.634    10.472245   0.10125266 
    3300   -688.16276    43.127973   -645.03479    1308.4412    70259.415    10.472245  0.094507535 
    3400   -690.08035    38.967528   -651.11282    1182.2193    65675.935    10.472245  0.091056017 
    3500   -691.69938    43.546541   -648.15283      1321.14    65765.303    10.472245  0.080947981 
    3600    -688.5332    42.411092   -646.12211    1286.6921    68979.841    10.472245   0.10317381 
    3700    -689.6768    41.163437   -648.51337      1248.84     67554.34    10.472245   0.10293856 
    3800   -690.69494    45.860231   -644.83471    1391.3341    67853.851    10.472245   0.09343043 
    3900   -686.55033    40.136145   -646.41418    1217.6735    71612.129    10.472245   0.10805341 
    4000   -686.69921    41.916116    -644.7831    1271.6752    71839.138    10.472245  0.099437014 
    4100   -692.08905    39.833155   -652.25589    1208.4812     63932.31    10.472245  0.088250825 
    4200   -689.72479    41.536709   -648.18809    1260.1646     68083.85    10.472245  0.091851929 
    4300    -685.6714    38.775093    -646.8963    1176.3811    71916.668    10.472245   0.10743046 
    4400     -685.439    40.767902    -644.6711    1236.8401    73653.636    10.472245   0.10267953 
    4500   -690.97233    39.637761   -651.33457    1202.5532    65354.895    10.472245  0.094523151 
    4600   -689.46675    41.319533   -648.14722    1253.5758    67919.845    10.472245  0.096226557 
    4700   -687.62893      39.2438   -648.38513     1190.601    69571.621    10.472245   0.10557003 
    4800   -687.80159    42.011904   -645.78968    1274.5813    70880.457    10.472245   0.11253536 
    4900   -685.41098    41.571235   -643.83975     1261.212    73209.967    10.472245   0.11625835 
    5000   -690.67509    41.342203   -649.33289    1254.2635    66496.203    10.472245   0.10318069 
    5100    -693.0071    41.884783   -651.12232    1270.7246    63241.111    10.472245    0.0917816 
    5200   -687.82267    42.246948   -645.57572    1281.7122    70708.601    10.472245   0.09807892 
    5300   -688.39986    41.045832   -647.35403    1245.2721     69343.89    10.472245   0.10151724 
    5400   -692.06147    44.073603   -647.98787    1337.1303     64832.94    10.472245  0.091595929 
    5500   -688.22137    44.825553   -643.39581    1359.9434    71994.233    10.472245   0.09722459 
    5600   -692.67433    44.039028   -648.63531    1336.0814    63914.123    10.472245  0.090292529 
    5700   -691.88044     40.87027   -651.01017    1239.9458    64048.125    10.472245  0.090912699 
    5800   -689.68403    41.368445   -648.31558    1255.0597    68353.602    10.472245   0.09983977 
    5900    -687.8928    43.517958   -644.37484    1320.2728    70443.461    10.472245   0.09695499 
    6000   -691.74139    43.436267   -648.30512    1317.7945    65119.181    10.472245  0.096990029 
    6100    -690.1069    44.302394   -645.80451    1344.0715    67968.994    10.472245   0.10079587 
    6200   -689.43757    42.391249   -647.04632    1286.0901    68229.124    10.472245   0.10104526 
    6300   -690.88875    38.466382   -652.42237    1167.0152    65741.275    10.472245  0.093472561 
    6400   -687.32641    39.629715   -647.69669    1202.3091    69857.463    10.472245  0.092886917 
    6500   -684.83917    42.310366   -642.52881    1283.6362      74793.3    10.472245  0.098319353 
    6600   -690.41695    42.702061   -647.71488    1295.5197    67107.488    10.472245  0.089708319 
    6700   -692.36289    42.654362   -649.70853    1294.0726    64079.914    10.472245  0.085784061 
    6800   -692.13794    40.007464   -652.13048    1213.7694    63677.429    10.472245   0.09573973 
    6900   -689.23052    44.819451   -644.41107    1359.7583    68867.001    10.472245  0.098335478 
    7000   -691.09454    42.965783   -648.12875    1303.5206    66396.482    10.472245  0.091308777 
    7100    -694.8956     39.24921   -655.64639    1190.7651    59073.282    10.472245   0.07940852 
    7200   -693.13707    39.665094   -653.47197    1203.3824    62083.279    10.472245   0.07658561 
    7300   -690.23609    41.012932   -649.22315    1244.2739    67188.513    10.472245  0.096087022 
    7400    -684.1887     40.98544   -643.20326    1243.4398    74325.488    10.472245   0.10971423 
    7500    -690.5308    42.050018   -648.48078    1275.7376    66664.592    10.472245  0.093918742 
    7600   -688.45636    39.399211   -649.05715    1195.3159    68828.848    10.472245   0.09486837 
    7700    -688.6876    41.481678   -647.20592     1258.495    68325.214    10.472245   0.08808285 
    7800   -692.36846    38.103627   -654.26484    1156.0098    63229.045    10.472245  0.084565299 
    7900   -693.53246    37.047981   -656.48448     1123.983    61288.255    10.472245  0.084017266 
    8000   -689.15836    40.480418   -648.67794    1228.1182    67583.767    10.472245   0.08937617 
    8100   -686.94849     41.87141   -645.07708    1270.3189    71675.661    10.472245  0.093503707 
    8200   -692.10612    40.335588   -651.77053    1223.7243    63974.208    10.472245  0.089419691 
    8300   -690.26019    39.477445   -650.78274    1197.6894    65258.611    10.472245  0.092270365 
    8400   -690.55036    40.789314   -649.76105    1237.4897    66552.756    10.472245  0.093264034 
    8500   -687.68076    43.592592   -644.08817    1322.5371    70150.641    10.472245  0.099262577 
    8600   -689.41671    40.663736   -648.75297    1233.6798    67923.433    10.472245  0.093100943 
    8700   -688.43683    39.144902   -649.29193    1187.6006    68362.812    10.472245   0.10214449 
    8800   -687.82411    41.630876   -646.19324    1263.0215     70800.94    10.472245  0.098395387 
    8900   -687.45269    37.993554   -649.45914    1152.6703    70346.592    10.472245   0.10334074 
    9000   -688.58601    44.252667   -644.33335    1342.5629     69524.77    10.472245    0.1058106 
    9100   -686.91165    46.613881   -640.29777    1414.1987    73036.839    10.472245   0.11706245 
    9200   -689.86396    42.300563    -647.5634    1283.3388     67075.44    10.472245   0.10343731 
    9300   -692.03794    40.314643    -651.7233    1223.0888    63547.438    10.472245  0.092116902 
    9400    -690.8067    45.322412   -645.48429    1375.0174    66434.474    10.472245  0.095020915 
    9500   -687.18666    42.037842   -645.14882    1275.3682    71304.053    10.472245   0.11412061 
    9600   -686.84039    41.083748   -645.75664    1246.4224    71051.561    10.472245   0.11625579 
    9700   -693.05791    42.721096   -650.33681    1296.0972    63538.875    10.472245   0.10014592 
    9800   -692.48274    44.512218   -647.97053    1350.4373    64459.794    10.472245  0.091518788 
    9900   -687.88405     42.00931   -645.87474    1274.5026    69699.556    10.472245  0.098600209 
   10000   -693.77685    39.589621   -654.18723    1201.0927    60978.649    10.472245  0.093026404 
Loop time of 4.93129 on 1 procs for 10000 steps with 256 atoms

Performance: 175.208 ns/day, 0.137 hours/ns, 2027.868 timesteps/s
100.0% CPU use with 1 MPI tasks x no OpenMP threads

MPI task timing breakdown:
Section |  min time  |  avg time  |  max time  |%varavg| %total
---------------------------------------------------------------
Pair    | 3.3037     | 3.3037     | 3.3037     |   0.0 | 67.00
Neigh   | 0          | 0          | 0          |   0.0 |  0.00
Comm    | 0.061296   | 0.061296   | 0.061296   |   0.0 |  1.24
Output  | 0.0025209  | 0.0025209  | 0.0025209  |   0.0 |  0.05
Modify  | 1.5478     | 1.5478     | 1.5478     |   0.0 | 31.39
Other   |            | 0.01592    |            |       |  0.32

Nlocal:    256 ave 256 max 256 min
Histogram: 1 0 0 0 0 0 0 0 0 0
Nghost:    1431 ave 1431 max 1431 min
Histogram: 1 0 0 0 0 0 0 0 0 0
Neighs:    11008 ave 11008 max 11008 min
Histogram: 1 0 0 0 0 0 0 0 0 0

Total # of neighbors = 11008
Ave neighs/atom = 43
Neighbor list builds = 0
Dangerous builds = 0
Total wall time: 0:00:04
