LAMMPS (3 Mar 2020)

# ---------- 1. Initialize simulation ----------
units metal
atom_style atomic
dimension 3
boundary p p p
read_data /home/modeler/RemLabs/Project/Si_3x3x3_supercell_MD/1800/20201204-034103/lammps.data
  orthogonal box = (0 0 0) to (17.469 17.469 17.469)
  1 by 1 by 1 MPI processor grid
  reading atoms ...
  217 atoms
  read_data CPU = 0.000992618 secs

pair_style meam/c
pair_coeff * * library.meam Li Si LiSi.meam Li Si
Reading potential file library.meam with DATE: 2012-06-29
Reading potential file LiSi.meam with DATE: 2020-11-07

group Li type 1
1 atoms in group Li

velocity all create 1800 3320 dist gaussian

# ---------- 2. Describe computed properties----------
compute msdli Li msd
thermo_style custom step pe ke etotal temp press density c_msdli[4]
thermo 100

# ---------- 3. Specify ensemble  ----------
#fix 1 all nve
fix 1 all nvt temp 1800 1800 0.03125
#fix 1 all npt temp 1800 1800 0.03125 tchain 2 iso 1.0 1.0 1.0 pchain 2

# ---------- 4. Run -------------
timestep 0.000625
run 1600
Neighbor list info ...
  update every 1 steps, delay 10 steps, check yes
  max neighbors/atom: 2000, page size: 100000
  master list distance cutoff = 6
  ghost atom cutoff = 6
  binsize = 3, bins = 6 6 6
  2 neighbor lists, perpetual/occasional/extra = 2 0 0
  (1) pair meam/c, perpetual
      attributes: full, newton on
      pair build: full/bin/atomonly
      stencil: full/bin/3d
      bin: standard
  (2) pair meam/c, perpetual, half/full from (1)
      attributes: half, newton on
      pair build: halffull/newton
      stencil: none
      bin: none
Per MPI rank memory allocation (min/avg/max) = 9.266 | 9.266 | 9.266 Mbytes
Step PotEng KinEng TotEng Temp Press Density c_msdli[4] 
       0   -951.06911    50.256344   -900.81276         1800    -114182.3    1.8918427            0 
     100   -918.24983    31.318483   -886.93135    1121.7145   -85980.392    1.8918427   0.11510136 
     200   -911.26809    49.984502   -861.28359    1790.2636   -71787.826    1.8918427   0.11568454 
     300   -901.52562    57.440933   -844.08469    2057.3259    -61327.58    1.8918427   0.79382083 
     400   -905.99998    52.655679    -853.3443    1885.9355   -67020.786    1.8918427  0.088243317 
     500   -910.93293    51.266189   -859.66674     1836.169   -68939.308    1.8918427    0.2616651 
     600   -898.45074    45.291127   -853.15961    1622.1639   -63064.174    1.8918427   0.20577112 
     700   -909.43666    59.421764   -850.01489    2128.2721   -65109.496    1.8918427   0.48568425 
     800   -904.46623    49.328997   -855.13724    1766.7858   -66849.858    1.8918427   0.69823508 
     900   -904.09182     52.38473   -851.70709    1876.2311   -63804.147    1.8918427   0.36233124 
    1000   -904.62103    46.871702   -857.74933    1678.7744   -65415.658    1.8918427   0.12736355 
    1100   -901.19122    51.071669   -850.11955     1829.202   -60595.739    1.8918427   0.63606705 
    1200   -902.41914    49.195375   -853.22377    1761.9999   -63038.149    1.8918427   0.12369053 
    1300   -909.71004    50.113091   -859.59695    1794.8692   -70457.228    1.8918427   0.54005679 
    1400   -910.95549    54.262608   -856.69289    1943.4898   -71120.546    1.8918427   0.15033363 
    1500   -901.33827    47.454895   -853.88338    1699.6622   -64106.081    1.8918427   0.12296532 
    1600   -899.36885    46.995207   -852.37365    1683.1979   -59217.404    1.8918427   0.11659137 
Loop time of 0.880493 on 1 procs for 1600 steps with 217 atoms

Performance: 98.127 ns/day, 0.245 hours/ns, 1817.164 timesteps/s
100.0% CPU use with 1 MPI tasks x no OpenMP threads

MPI task timing breakdown:
Section |  min time  |  avg time  |  max time  |%varavg| %total
---------------------------------------------------------------
Pair    | 0.85819    | 0.85819    | 0.85819    |   0.0 | 97.47
Neigh   | 0.0055676  | 0.0055676  | 0.0055676  |   0.0 |  0.63
Comm    | 0.0070326  | 0.0070326  | 0.0070326  |   0.0 |  0.80
Output  | 0.00047417 | 0.00047417 | 0.00047417 |   0.0 |  0.05
Modify  | 0.0070371  | 0.0070371  | 0.0070371  |   0.0 |  0.80
Other   |            | 0.002189   |            |       |  0.25

Nlocal:    217 ave 217 max 217 min
Histogram: 1 0 0 0 0 0 0 0 0 0
Nghost:    932 ave 932 max 932 min
Histogram: 1 0 0 0 0 0 0 0 0 0
Neighs:    3626 ave 3626 max 3626 min
Histogram: 1 0 0 0 0 0 0 0 0 0
FullNghs:  7252 ave 7252 max 7252 min
Histogram: 1 0 0 0 0 0 0 0 0 0

Total # of neighbors = 7252
Ave neighs/atom = 33.4194
Neighbor list builds = 10
Dangerous builds = 0
Total wall time: 0:00:00
