LAMMPS (3 Mar 2020)

# ---------- 1. Initialize simulation ----------
units metal
atom_style atomic
dimension 3
boundary p p p
read_data /home/modeler/RemLabs/Project/eval_timestep_npt/n3_T1800_timestep5.000000e-04_steps30001/20201205-223727/lammps.data
  orthogonal box = (0 0 0) to (17.469 17.469 17.469)
  1 by 1 by 1 MPI processor grid
  reading atoms ...
  217 atoms
  read_data CPU = 0.00684355 secs

pair_style meam/c
pair_coeff * * library.meam Li Si LiSi.meam Li Si
Reading potential file library.meam with DATE: 2012-06-29
Reading potential file LiSi.meam with DATE: 2020-11-07

group Li type 1
1 atoms in group Li

velocity all create 1800 3320 dist gaussian

# ---------- 2. Describe computed properties----------
compute msdli Li msd
thermo_style custom step pe ke etotal temp press density c_msdli[4]
thermo 100

# ---------- 3. Specify ensemble  ----------
fix 1 all npt temp 1800 1800 0.024999999999999994 tchain 2 iso 1.0 1.0 1.0 pchain 2
# fix 1 all nvt temp 1800 1800 0.024999999999999994
# fix 1 all nve

# ---------- 4. Run -------------
timestep 0.0004999999999999999
run 30001
Neighbor list info ...
  update every 1 steps, delay 10 steps, check yes
  max neighbors/atom: 2000, page size: 100000
  master list distance cutoff = 6
  ghost atom cutoff = 6
  binsize = 3, bins = 6 6 6
  2 neighbor lists, perpetual/occasional/extra = 2 0 0
  (1) pair meam/c, perpetual
      attributes: full, newton on
      pair build: full/bin/atomonly
      stencil: full/bin/3d
      bin: standard
  (2) pair meam/c, perpetual, half/full from (1)
      attributes: half, newton on
      pair build: halffull/newton
      stencil: none
      bin: none
Per MPI rank memory allocation (min/avg/max) = 9.27 | 9.27 | 9.27 Mbytes
Step PotEng KinEng TotEng Temp Press Density c_msdli[4] 
       0   -951.04357    50.256344   -900.78722         1800   -114161.75    1.8918427            0 
     100   -927.26139    25.241068   -902.02032    904.04352   -71122.797    1.9553454   0.24109846 
     200   -948.97279     40.03335   -908.93944    1433.8494   -25874.174    2.1059798   0.10704847 
     300   -949.61858    43.224838   -906.39374    1548.1569    23608.098     2.236532   0.12744267 
     400   -949.39622    46.890625   -902.50559    1679.4521    45966.905    2.2897214   0.62494862 
     500   -948.16599    47.139591    -901.0264    1688.3692    39326.781    2.2737882   0.52214203 
     600   -950.45626    49.454508   -901.00175    1771.2811    14158.768    2.2118701   0.35169669 
     700   -945.40939    51.250532   -894.15886    1835.6082   -9531.1636    2.1387245   0.27087424 
     800   -938.97848    48.439938   -890.53855    1734.9429   -25884.767    2.0863012  0.076385487 
     900   -935.73387    54.515547   -881.21832    1952.5492   -29259.142    2.0697339   0.13484418 
    1000   -938.35615    53.240662   -885.11549    1906.8874   -21185.865    2.0888258   0.16271958 
    1100   -940.17999    49.143925   -891.03606    1760.1572   -8643.7717    2.1345401  0.093435737 
    1200   -947.19633    47.611867   -899.58446    1705.2844    7139.4193    2.1900873   0.27867105 
    1300   -947.21056    51.718652   -895.49191    1852.3746    25579.346    2.2328617   0.35227351 
    1400   -947.48099    51.420588   -896.06041     1841.699    27335.008    2.2405159   0.48543698 
    1500   -946.55958     52.76455   -893.79503    1889.8348    17903.634    2.2086271  0.089131295 
    1600   -943.15763    44.006829    -899.1508     1576.165   -3296.1411    2.1557881   0.15062813 
    1700   -940.41446    52.096409   -888.31805    1865.9044   -18582.655    2.1102609   0.49518405 
    1800   -939.54362    53.667452   -885.87616    1922.1735   -24064.195    2.0878887   0.22295008 
    1900   -935.58359    48.035197   -887.54839    1720.4466    -19766.93    2.0960504    1.0486562 
    2000   -938.45207    55.413845   -883.03823     1984.723    -4681.835    2.1282887  0.090854745 
    2100   -940.33865    49.945539   -890.39311    1788.8681    5117.5514    2.1681054   0.16092668 
    2200   -942.56623    47.346984   -895.21925    1695.7973    14878.921    2.2018979   0.20844087 
    2300   -945.05069    51.805398   -893.24529    1855.4815    21253.253    2.2160401   0.10094291 
    2400   -947.55296    50.491893   -897.06107    1808.4365    11383.052    2.2019983    0.1652358 
    2500   -948.88906    49.725707   -899.16335    1780.9945   -892.90784    2.1703314   0.16583103 
    2600   -940.69655    49.629603   -891.06695    1777.5524   -8107.5822    2.1394515   0.15676845 
    2700   -937.53123    49.134994   -888.39623    1759.8373   -12291.535    2.1193137   0.15175927 
    2800   -940.14515    52.674096   -887.47106    1886.5951   -14140.394    2.1162464  0.088536158 
    2900   -939.74928    44.132347   -895.61693    1580.6606   -9523.6783    2.1318453   0.17142188 
    3000   -938.97912    51.115856   -887.86327    1830.7846    4062.9112     2.162336   0.19886508 
    3100   -945.42861    50.692685   -894.73592    1815.6281    8232.9804     2.189844   0.25387765 
    3200   -948.37295    50.818149    -897.5548    1820.1218    13153.224    2.2040149   0.36711492 
    3300   -943.34673    54.285919   -889.06081    1944.3247    15540.103    2.1985701   0.38440873 
    3400   -942.20692    45.882802   -896.32411    1643.3556    4009.8547    2.1736693   0.11118178 
    3500   -942.94345    53.097021   -889.84642    1901.7427    -5604.847    2.1442057  0.083098444 
    3600   -937.46777    48.800684   -888.66709    1747.8635   -10837.406     2.122449   0.44101973 
    3700   -935.89211     52.69267   -883.19944    1887.2604   -10134.792     2.115451   0.30051892 
    3800   -943.11486    52.129791   -890.98507    1867.1001   -14556.368    2.1243029   0.15931708 
    3900   -940.12161    51.601229   -888.52038    1848.1689   -1599.8681    2.1496827   0.32037958 
    4000   -939.89451    52.305207    -887.5893    1873.3828    9179.4025    2.1777078   0.29829651 
    4100   -947.55681    51.438499   -896.11831    1842.3405    9606.2298    2.1945673   0.43710783 
    4200   -941.16038    45.579512   -895.58087    1632.4928    14641.697    2.1974752   0.19790266 
    4300   -940.61919    49.868677   -890.75051    1786.1152    12151.659    2.1838284   0.35683789 
    4400   -939.32352    42.236516     -897.087    1512.7588   -268.92647    2.1588948   0.34393294 
    4500   -939.38945    48.607144   -890.78231    1740.9316   -7239.5165    2.1366491   0.26183979 
    4600   -938.73833    51.013805   -887.72453    1827.1295   -10575.492    2.1262229   0.42556225 
    4700   -933.10326    47.319647   -885.78361    1694.8181   -5829.7532    2.1296825   0.11031349 
    4800   -946.23627    51.558271     -894.678    1846.6303    -9159.269    2.1442807   0.12416264 
    4900   -942.71471    46.818752   -895.89596    1676.8779    1766.7562    2.1700217   0.26460089 
    5000   -939.93082    48.170479   -891.76034    1725.2919    15249.151    2.1938452   0.35687889 
    5100   -946.08189     50.54623   -895.53566    1810.3827    11648.198    2.2003415   0.10604167 
    5200    -948.8731     50.92131   -897.95179    1823.8167    6805.4458     2.190069   0.21380784 
    5300   -938.95644     49.77063   -889.18581    1782.6035    5985.6458    2.1687618   0.27508359 
    5400    -940.3923    48.277213   -892.11508    1729.1147   -8049.1546     2.141928   0.18799549 
    5500   -943.08826    57.746765   -885.34149    2068.2797   -13267.031    2.1238586  0.088530164 
    5600   -936.98309    52.099436   -884.88366    1866.0128   -11946.313    2.1213087   0.42461444 
    5700   -938.44194    48.505007   -889.93693    1737.2735   -8426.3384    2.1326139   0.30003187 
    5800   -938.92412    48.096299   -890.82782     1722.635   -152.74715    2.1553931   0.15418663 
    5900   -942.50954     48.61803   -893.89151    1741.3215    6660.4092    2.1813185   0.28797583 
    6000   -946.74846    51.182574   -895.56589    1833.1742    10226.486    2.1988326   0.38822935 
    6100   -940.31655    55.034973   -885.28158    1971.1532    16849.907    2.2001463    0.4156973 
    6200    -943.6423    50.763092   -892.87921    1818.1499    5776.7977    2.1800614   0.14496122 
    6300   -944.39841    43.487984   -900.91043    1557.5819   -6597.3225    2.1524142  0.048133722 
    6400   -938.96044    47.924152   -891.03629    1716.4693   -9122.5305    2.1354063 0.0021524965 
    6500   -937.63983    49.803181   -887.83665    1783.7693   -7897.1602    2.1322619   0.43958265 
    6600   -939.65709     53.39352   -886.26357    1912.3623   -4348.3424     2.140609    0.5262109 
    6700   -940.64784    45.048018   -895.59982    1613.4566   -3805.8998    2.1569556   0.28472734 
    6800   -945.55792    52.942299   -892.61562    1896.2011    3546.0186    2.1774703   0.43320184 
    6900   -943.75464    49.391762   -894.36288    1769.0338    9984.8224    2.1917678   0.34581548 
    7000   -937.94851    52.745102   -885.20341    1889.1383    17262.822    2.1919431    0.3615689 
    7100   -942.30177    49.515213   -892.78656    1773.4553     4320.693    2.1743953   0.31768869 
    7200     -938.848    47.163019   -891.68498    1689.2083   -2908.5035    2.1504143    0.5835356 
    7300   -939.62447    55.393575   -884.23089     1983.997   -8348.7498    2.1319878   0.36648039 
    7400   -939.17938    45.423449   -893.75593    1626.9032   -13135.725    2.1241522   0.75702534 
    7500   -937.74169     47.63507   -890.10662    1706.1155   -7415.6416    2.1340868   0.18174826 
    7600    -941.4185    52.203339   -889.21517    1869.7343   -357.83193    2.1565631   0.55257314 
    7700   -945.57123    47.450352   -898.12088    1699.4995    3836.7249    2.1806194   0.25573576 
    7800   -944.22161     53.41109   -890.81052    1912.9915    13952.857    2.1982104   0.27054198 
    7900   -944.50525    48.114071   -896.39118    1723.2715    12020.342    2.1983344   0.60186971 
    8000   -940.12036    49.737912   -890.38245    1781.4316    10913.097    2.1816258   0.32772739 
    8100   -941.59528    47.644757   -893.95053    1706.4624   -1901.8819    2.1558112   0.21895639 
    8200    -934.7708     48.95442   -885.81638    1753.3698    -5583.624     2.134016  0.074435326 
    8300   -932.77895    51.553448    -881.2255    1846.4576   -5242.5574    2.1227414  0.087635754 
    8400   -941.83241     49.75823   -892.07418    1782.1593   -16118.793    2.1230715   0.38628961 
    8500   -938.69074    49.472894   -889.21784    1771.9396   -5314.6286    2.1414131   0.52615966 
    8600   -941.33343    54.407403   -886.92603    1948.6759    4542.3976    2.1664941   0.25742902 
    8700   -945.18818    49.726536   -895.46165    1781.0242    7465.2272    2.1867189   0.43191038 
    8800   -945.19264    51.886502   -893.30614    1858.3863    12688.881    2.1960808   0.86732059 
    8900   -944.38382    48.979032   -895.40479    1754.2513    8417.2576    2.1888469   0.22710707 
    9000    -948.7335     43.75482   -904.97868     1567.139    -2236.401    2.1711662   0.22415225 
    9100   -946.93052    50.517029   -896.41349    1809.3368   -5724.1043    2.1560418    0.1256778 
    9200   -938.21168    45.999063   -892.21262    1647.5196   -2848.0585    2.1483592   0.19430703 
    9300   -939.52756    51.548592   -887.97897    1846.2836   -3137.1864    2.1468665   0.35586226 
    9400   -940.10253    43.766584   -896.33595    1567.5603   -2828.1365    2.1512902   0.47731587 
    9500   -942.64307    50.487183   -892.15589    1808.2678   -466.41388    2.1631218  0.090313306 
    9600   -938.87017    49.055236   -889.81493    1756.9806    7093.4855    2.1747955   0.16373939 
    9700   -945.99444    48.758605   -897.23584    1746.3564    2571.0463    2.1785999   0.25384855 
    9800    -946.1648    47.703406   -898.46139     1708.563    2767.0931    2.1784685   0.16302813 
    9900   -938.97661    49.818109    -889.1585     1784.304    6293.0428    2.1742342   0.19561256 
   10000   -941.72219    48.436663   -893.28553    1734.8256    1002.2481    2.1625941   0.21437845 
   10100   -942.04741    50.248369   -891.79904    1799.7143   -2577.9257    2.1508116   0.22706784 
   10200   -937.05518    48.867425   -888.18775    1750.2539   -3057.7094    2.1447309   0.23995293 
   10300   -933.21457    50.609036   -882.60553    1812.6322    83.691499    2.1430629  0.082876176 
   10400   -939.52509     47.04531   -892.47978    1684.9924   -3214.0017    2.1448624   0.21651182 
   10500   -937.88469    48.468056   -889.41663      1735.95    2564.3546    2.1537406    0.3010215 
   10600   -938.33712    49.303769   -889.03335    1765.8822     4023.731    2.1634951    2.2543907 
   10700   -943.66549    46.877108   -896.78838     1678.968    1607.3612     2.170135    2.5296184 
   10800   -939.71948    51.644814   -888.07466      1849.73    9251.6664    2.1737005    5.5732362 
   10900   -941.06949    47.958205   -893.11128     1717.689     1975.345    2.1691985    4.2134837 
   11000   -941.75993    52.607709   -889.15222    1884.2174    106.93376    2.1601329    5.3308351 
   11100   -942.71629    49.021207   -893.69508    1755.7619    -5672.212    2.1504927    5.8992931 
   11200     -937.529    53.437937   -884.09106    1913.9531   -1383.1494    2.1461184    5.5236063 
   11300   -934.73205     50.69461   -884.03744    1815.6971      44.1011    2.1448648    6.9287308 
   11400   -939.89516    46.762884   -893.13228    1674.8769    -5067.063    2.1462497    5.3750116 
   11500   -940.14084    50.282343    -889.8585    1800.9312    1510.0296    2.1547793    4.3523964 
   11600   -941.52589    47.462317   -894.06358    1699.9281    2964.6494    2.1650295    6.1516442 
   11700   -946.50337    49.635712   -896.86766    1777.7712    1488.5994    2.1744656    5.3531809 
   11800   -941.13477    52.113901   -889.02087    1866.5309    8585.9618    2.1801764    3.9107072 
   11900    -940.8715    52.527709   -888.34379     1881.352    5679.6394    2.1741985    3.1944274 
   12000   -941.59641    44.434867   -897.16155    1591.4958   -4105.2966    2.1591513    6.9909053 
   12100   -944.79355    50.456964   -894.33659    1807.1855   -6821.9463    2.1476854     3.967942 
   12200   -938.31406    52.195538   -886.11852    1869.4549   -3599.8054    2.1457264     5.476433 
   12300   -936.83377    48.130245   -888.70352    1723.8508   -1340.7795    2.1488107    5.8350915 
   12400   -942.04975    45.395044   -896.65471    1625.8859    -6035.369    2.1557257    4.0628235 
   12500   -946.39803    55.316437   -891.08159    1981.2341    16.144337     2.168292    5.2125323 
   12600   -941.70487    49.418038   -892.28683    1769.9749    5974.5058    2.1787701    4.7360541 
   12700   -939.74881    57.838566   -881.91025    2071.5677    10380.257    2.1816239    4.6403764 
   12800   -941.54072    52.135004   -889.40572    1867.2868     2068.853    2.1701452    5.9491836 
   12900   -941.03715    50.116174   -890.92098    1794.9796   -3526.1734    2.1526839    4.2561361 
   13000   -941.21196    48.278808   -892.93315    1729.1718   -8353.1631    2.1402664    5.0892144 
   13100   -940.57319    54.821675   -885.75152    1963.5136   -7710.9258    2.1395325     5.833887 
   13200   -939.48484     51.86743   -887.61741    1857.7032   -4990.9809    2.1482132    7.2008471 
   13300   -945.91308    53.667669   -892.24541    1922.1813   -2659.5304    2.1607875    3.9992848 
   13400   -944.28467     51.05863   -893.22604     1828.735    2635.1232    2.1736147    5.6094269 
   13500   -940.88096    50.528317   -890.35265    1809.7411    7342.0147    2.1826604    4.5721091 
   13600   -942.16152     56.50284   -885.65869    2023.7268    9192.5951    2.1789928    4.8628816 
   13700   -943.67026    50.600429   -893.06983    1812.3239      454.364    2.1642227    7.5533973 
   13800   -937.76572    47.464794   -890.30093    1700.0168    -2115.258    2.1483502    5.5534478 
   13900   -940.16795    53.749944     -886.418    1925.1281   -6980.5358    2.1373646    3.4865546 
   14000   -939.15168    45.994854   -893.15683    1647.3689   -9941.8294    2.1356654    3.1700673 
   14100   -936.21088    50.593967   -885.61691    1812.0924   -1187.6516    2.1459497    6.4939869 
   14200   -940.83186    48.266975   -892.56488     1728.748    20.773969    2.1605662       3.5171 
   14300   -946.02905    53.815653    -892.2134    1927.4815    2690.4312    2.1757157    6.7046086 
   14400    -940.2606    46.755255   -893.50534    1674.6037     8407.705    2.1850955    3.8856294 
   14500   -940.86472    54.693875   -886.17085    1958.9362     11459.97    2.1815515    9.5476681 
   14600   -943.86234    50.272818   -893.58952      1800.59   -592.21795    2.1637521    12.982872 
   14700   -939.46329    49.574433   -889.88885    1775.5764    -5840.623    2.1456266    20.583361 
   14800    -934.5542    49.247509   -885.30669    1763.8672   -3006.6886    2.1342092    20.186466 
   14900   -938.50641    45.937576   -892.56883    1645.3174   -7259.7687    2.1316112    14.448412 
   15000   -938.60123      49.8745   -888.72673    1786.3237   -3696.1187    2.1421918    11.068291 
   15100   -938.73041    53.788663   -884.94175    1926.5149    1638.3477    2.1584552    9.1904621 
   15200   -941.92817    48.810473    -893.1177    1748.2141    4901.4982     2.171318    11.229862 
   15300   -940.95126    48.420719   -892.53054    1734.2546    8691.1606    2.1786503    12.867615 
   15400   -941.71593    55.972568   -885.74336    2004.7344    5108.7541    2.1759187     13.03259 
   15500   -946.33866     50.96735   -895.37131    1825.4656   -2092.7158     2.162704    9.3648742 
   15600   -943.27995    48.104999   -895.17495    1722.9466   -6659.4616    2.1508378    11.519291 
   15700   -938.40479     48.37627   -890.02852    1732.6626   -3652.0686    2.1466435     12.68818 
   15800   -939.93652    52.688826    -887.2477    1887.1227    -4902.603    2.1483654    13.038496 
   15900   -936.98784    55.517666   -881.47017    1988.4415    1652.4545    2.1531157    13.051236 
   16000   -939.96564    47.093158   -892.87248    1686.7061   -824.10251    2.1558808    7.7348086 
   16100   -939.51836    47.553226   -891.96514    1703.1841    14.163806    2.1605368    9.5433475 
   16200   -940.48241    54.560504   -885.92191    1954.1594     2615.055    2.1653252    7.5744543 
   16300   -937.35335    44.091479   -893.26187    1579.1969    3947.4458     2.166208    9.3273907 
   16400   -943.56434    52.844343      -890.72    1892.6927   -45.106151    2.1638661    8.0685604 
   16500   -940.96824    51.366683   -889.60156    1839.7683    1537.1235    2.1599232    7.6582293 
   16600    -939.0413    52.578688   -886.46261    1883.1779   -1376.1653    2.1540129    8.7376999 
   16700    -942.9891    49.424326   -893.56477    1770.2001   -8122.9191    2.1485598    6.6233416 
   16800   -936.59779    50.310058   -886.28773    1801.9238   -936.19197    2.1499184    5.6203851 
   16900   -941.69172    54.227831   -887.46388    1942.2443   -5002.2858    2.1531331     7.067901 
   17000   -942.26717    54.703052   -887.56412    1959.2649   -768.00064    2.1571163    9.8331796 
   17100   -944.97206    49.816739   -895.15532    1784.2549   -3812.3166    2.1602256    11.057079 
   17200   -940.83303     52.92432   -887.90871    1895.5572    1929.2691    2.1637398    12.309149 
   17300   -940.70505    50.208398   -890.49665    1798.2827     911.1314    2.1646278    12.312373 
   17400   -940.37114    56.368117   -884.00302    2018.9015    2777.2863    2.1625884    12.068268 
   17500   -942.83842    50.568738   -892.26969    1811.1888   -3578.9945    2.1565441    11.298397 
   17600     -944.067    51.104266   -892.96273    1830.3695   -5853.2218    2.1520359     11.23393 
   17700   -932.58181    48.808742   -883.77307    1748.1521    3124.3095    2.1530804    11.834328 
   17800   -936.87591    49.606139   -887.26977     1776.712   -265.62168    2.1527183    9.5430747 
   17900    -939.9749    48.469237   -891.50567    1735.9923   -2834.2082    2.1527987    11.064136 
   18000   -939.13328    52.742231   -886.39105    1889.0354      2408.31    2.1572945    11.955912 
   18100   -941.53869    47.761967   -893.77672    1710.6604   -1348.9483     2.162019    10.641253 
   18200   -939.06852    51.310404   -887.75811    1837.7526    2155.7653     2.166721    11.590888 
   18300   -939.10651    50.434856   -888.67165    1806.3936    4463.4508     2.167453    11.035774 
   18400   -943.26856    49.582719   -893.68584    1775.8732    562.58526    2.1640686    11.710666 
   18500   -938.30031    51.432258   -886.86806     1842.117    2219.6856     2.159993    13.271255 
   18600   -936.93922    50.286531   -886.65269    1801.0812   -342.77538    2.1533813    10.150333 
   18700   -943.21345     47.87176   -895.34169    1714.5929   -8260.7087    2.1481928    11.474467 
   18800   -938.30465    48.870265   -889.43438    1750.3557   -1349.7576    2.1517402    13.696637 
   18900   -936.34478     53.12443   -883.22035    1902.7244    2249.1707    2.1601336    14.572912 
   19000   -938.25266    51.018062    -887.2346     1827.282    2842.0397    2.1654767    11.959039 
   19100   -939.15125    47.077938   -892.07331     1686.161     3939.877     2.166374    8.3052954 
   19200   -940.33119    51.009158   -889.32203    1826.9631    2980.4904    2.1652358    12.509887 
   19300   -935.02978     49.33424   -885.69554    1766.9736    4469.2713    2.1603714     12.72474 
   19400   -941.57934    48.429811   -893.14952    1734.5802   -3322.2747    2.1523313    9.5798004 
   19500   -940.49816    46.839902   -893.65826    1677.6354   -5019.0225    2.1497443    10.609302 
   19600   -938.94351     52.42744   -886.51607    1877.7608   -1822.9267    2.1530695    11.691315 
   19700   -941.69916    53.577902   -888.12126    1918.9662   -1844.1872    2.1575907     10.90437 
   19800   -941.70939    46.908302   -894.80109    1680.0853   -291.78395    2.1626834    9.7115138 
   19900   -940.68742    50.819001   -889.86842    1820.1523    2347.0157    2.1691874    11.624647 
   20000   -936.83463    50.331804   -886.50283    1802.7027    6554.6688    2.1728125     12.04076 
   20100   -941.19483    49.492815   -891.70201    1772.6531    2613.3319    2.1684902      11.5331 
   20200    -946.2153    48.681885   -897.53341    1743.6086   -6056.3052    2.1622006    10.812712 
   20300   -939.73191    50.299523   -889.43239    1801.5465    240.66449      2.15977    11.517239 
   20400    -932.5523    48.365778   -884.18652    1732.2868    4875.6804    2.1570264    13.084366 
   20500   -939.34427    46.446881   -892.89739    1663.5588   -3143.3276    2.1527025    9.9940587 
   20600   -939.55053    46.595197   -892.95533     1668.871   -3608.3129    2.1535414    12.382425 
   20700   -935.14573    50.361951   -884.78378    1803.7824    3488.0547    2.1596832    16.249101 
   20800   -937.51694    47.927692   -889.58925    1716.5961    2595.6761    2.1647082     14.70997 
   20900   -941.50908    49.419338   -892.08974    1770.0215    688.49867    2.1676254    14.187254 
   21000   -944.83633    48.221053   -896.61528    1727.1032   -635.37222    2.1694585    11.097004 
   21100   -939.47104    52.043302   -887.42774    1864.0024    5314.0035     2.170259    11.544588 
   21200    -937.7622    49.532418   -888.22978    1774.0716    2116.6682    2.1648513    10.619774 
   21300   -940.61227    45.437042   -895.17523    1627.3901    -2308.707    2.1565965    9.9731879 
   21400   -943.32233    47.790131    -895.5322    1711.6692   -5110.5013    2.1526556    14.240277 
   21500   -935.82167    48.941495   -886.88017    1752.9069    1701.6896    2.1555293    12.169933 
   21600   -942.60935    55.156615   -887.45273    1975.5099   -2609.6711    2.1578412    12.048136 
   21700   -946.59167    53.198055   -893.39361    1905.3614   -6076.6103    2.1603225    11.561441 
   21800   -940.34166     50.51589   -889.82577     1809.296    2075.7704    2.1649188    11.831818 
   21900   -938.74234     57.81381   -880.92853     2070.681    4306.6285    2.1666314    11.768395 
   22000    -938.3774     49.84488   -888.53252    1785.2628    2160.9705     2.160456    12.482157 
   22100   -943.48162    50.266497   -893.21513    1800.3636   -4871.6368     2.151767    12.157153 
   22200    -940.5576    51.122266   -889.43533    1831.0142   -6240.2318    2.1494901    13.314283 
   22300   -938.52793    52.679558   -885.84838    1886.7907   -1731.6924    2.1527585     12.81952 
   22400   -940.94166    50.594653   -890.34701     1812.117    -2553.861    2.1590188    13.473766 
   22500   -940.02305    52.170072   -887.85298    1868.5428    2704.9851    2.1664122    11.244931 
   22600   -942.79972    45.325504   -897.47422    1623.3952   -151.69003    2.1704005     11.19694 
   22700   -943.40423    48.456319   -894.94792    1735.5296    1765.2283    2.1730587    11.326703 
   22800   -935.41382    49.862748   -885.55107    1785.9028    9414.0895    2.1722015    12.445542 
   22900   -942.66266    51.196026   -891.46663     1833.656   -1798.2054    2.1631221    16.494802 
   23000   -941.20203    48.707721    -892.4943    1744.5339   -4871.1748    2.1536287     14.10262 
   23100   -936.13443    53.100787   -883.03365    1901.8776    965.16297    2.1484107    11.603421 
   23200   -938.40844    49.430648    -888.9778    1770.4266   -6255.4294    2.1438861     10.45847 
   23300    -938.4859    52.983478   -885.50243     1897.676   -3255.5689    2.1462293    10.719275 
   23400   -936.23893    48.692031    -887.5469     1743.972   -837.88446    2.1533071    10.134761 
   23500    -941.4903    49.937157   -891.55314    1788.5679   -273.64207    2.1629362    11.545105 
   23600   -943.45201    45.657449   -897.79456    1635.2843    1464.6491    2.1734124    13.797498 
   23700   -937.24224     49.32584    -887.9164    1766.6727    11242.387    2.1807426    12.800838 
   23800   -941.00867    51.443913   -889.56476    1842.5344    7065.7901    2.1771593    7.7165647 
   23900   -942.51788    50.320844   -892.19704    1802.3101    769.49192    2.1634543    6.2555881 
   24000   -935.86678    52.281266   -883.58551    1872.5254   -1850.0495    2.1467156    6.5591097 
   24100   -939.59452    49.621609   -889.97291    1777.2661   -11681.195    2.1329958    9.0999999 
   24200   -943.54355    49.151188   -894.39236    1760.4173   -13564.752    2.1320336    8.8899121 
   24300   -935.68403    51.086629    -884.5974    1829.7378   -1871.0308    2.1458559    9.0319252 
   24400   -937.26879     48.50782   -888.76097    1737.3742    4324.5996    2.1634473    6.7954808 
   24500   -944.31071    52.245727   -892.06498    1871.2525    6247.5307    2.1772235    7.7676839 
   24600    -943.7258    47.767274   -895.95852    1710.8505    5973.5177    2.1829674     7.774259 
   24700   -939.31834    53.076314   -886.24203    1901.0011    9387.8819    2.1793721    5.7948405 
   24800    -937.9507    51.460725   -886.48997    1843.1366    1926.9126    2.1643255     7.462111 
   24900   -938.34157    45.890674   -892.45089    1643.6375   -6036.9196    2.1454766    7.9854382 
   25000   -940.07568    53.923025   -886.15265    1931.3272   -9160.0232    2.1341149    9.3631751 
   25100   -937.70434    55.809474   -881.89486     1998.893   -6682.7098    2.1335655    8.5961945 
   25200   -935.39406    49.769103   -885.62495    1782.5488   -4865.5844    2.1397093     8.945555 
   25300   -942.04032    52.649794   -889.39052    1885.7247   -5577.4627    2.1503963     9.874702 
   25400   -943.34152    53.417805   -889.92372    1913.2321   -534.47357    2.1647408    8.8571286 
   25500   -940.17999    51.890576   -888.28941    1858.5322    8432.7761    2.1756653    8.4823947 
   25600   -942.33121    49.302401   -893.02881    1765.8332    4489.7133    2.1761139     7.835664 
   25700   -941.01974    55.207573   -885.81216    1977.3351     2481.005    2.1694575    7.4972781 
   25800    -938.6954     46.45526   -892.24014    1663.8589   -2057.2989    2.1572597    10.113825 
   25900   -942.44375    48.439903   -894.00384    1734.9417   -6550.2363    2.1469751    7.7736629 
   26000   -931.40557    46.690637   -884.71493    1672.2893    997.23445     2.144255    5.9033062 
   26100   -938.88502     49.32036   -889.56466    1766.4764   -3895.8793    2.1445795    6.6292688 
   26200   -936.60144    47.834845   -888.76659    1713.2707   -1302.0727    2.1508106    11.695792 
   26300   -939.28395    52.392153    -886.8918    1876.4969   -123.16233    2.1606006    11.597309 
   26400    -941.0198    48.282772   -892.73703    1729.3138    357.67399    2.1708132    14.693667 
   26500   -937.96874    53.882982   -884.08576     1929.893    9714.5361    2.1789019    10.932859 
   26600   -939.66961    49.771684   -889.89792    1782.6412    6704.4731    2.1752399    10.350142 
   26700   -946.25935    48.268493   -897.99086    1728.8024   -4617.2162    2.1631547    6.5860428 
   26800   -942.28405    52.396775   -889.88728    1876.6625   -1910.1264    2.1535367    6.6523721 
   26900    -934.5121    48.214131   -886.29796    1726.8553   -2343.2551    2.1468056    6.6267556 
   27000   -940.75721    52.800024   -887.95718    1891.1054   -5232.5208    2.1432814    8.5209694 
   27100   -944.13473    54.837281   -889.29745    1964.0725   -10139.668    2.1452929    12.103067 
   27200   -934.57879    47.444912   -887.13388    1699.3047    1334.9387    2.1546984    13.720587 
   27300   -936.12666    56.651737   -879.47493    2029.0598    8474.7487    2.1639775    9.7776853 
   27400   -941.39572    51.171481   -890.22424    1832.7769     888.1444    2.1655506    6.3725997 
   27500   -943.08054    51.770535      -891.31    1854.2328   -846.81888    2.1632838    5.4741424 
   27600   -935.60641    51.247486   -884.35893    1835.4991    3791.5978    2.1592588    8.0676999 
   27700   -938.83602    54.522522    -884.3135     1952.799   -709.96858    2.1511615    10.630243 
   27800   -939.48392    47.308007   -892.17591    1694.4012   -7051.9771    2.1429385    11.516737 
   27900   -939.65737    53.173009   -886.48436    1904.4644   -4689.4335    2.1428148     12.86784 
   28000   -938.14469    52.268886    -885.8758     1872.082   -2155.5353    2.1482674    9.7579726 
   28100   -935.92223    46.885556   -889.03668    1679.2706    681.06975    2.1552159     8.585387 
   28200   -940.22579    48.251364   -891.97443    1728.1889    642.18226    2.1628748    8.4675758 
   28300   -937.31983    50.338932    -886.9809     1802.958    7210.0316    2.1710731    8.4122476 
   28400   -933.80088    46.846048   -886.95483    1677.8556    6754.3234    2.1722769    11.202044 
   28500   -944.97752    48.675382   -896.30214    1743.3757   -4229.6556    2.1678918    10.226528 
   28600   -938.64913    49.731964   -888.91717    1781.2186    489.34722    2.1662997    8.8172499 
   28700   -937.39687    50.208106   -887.18876    1798.2723    1844.0884    2.1649317    6.6818427 
   28800   -940.11068    51.550621   -888.56006    1846.3563   -350.58398    2.1599642    9.3276654 
   28900   -945.13599    52.282696   -892.85329    1872.5766   -7120.2658    2.1541075    6.9118684 
   29000   -935.86242    52.279312   -883.58311    1872.4554   -1735.9255    2.1526654    5.7462702 
   29100   -936.07779    52.906859   -883.17094    1894.9318    -1663.629    2.1522392    9.4806307 
   29200   -939.88148    50.494277   -889.38721    1808.5219   -4009.8624    2.1546701    10.690379 
   29300   -938.72106    50.639604   -888.08145     1813.727    1339.8605    2.1610523    7.6231708 
   29400   -941.79521    48.403745   -893.39146    1733.6466   -154.96177    2.1668921    7.6043881 
   29500   -944.13306    44.430707   -899.70235    1591.3468    1409.8808     2.172052    6.4541561 
   29600   -936.08302    47.083394   -888.99962    1686.3564    6568.4055    2.1758716    5.7876308 
   29700   -940.17154    52.797793   -887.37374    1891.0255     3657.775    2.1726494    4.9507978 
   29800   -942.54615    49.895561   -892.65059     1787.078   -2532.9714    2.1632966    8.3388934 
   29900   -938.47662     53.68341   -884.79321    1922.7451   -1860.2908    2.1538231    7.1983898 
   30000   -937.77635    52.278587   -885.49776    1872.4294   -5530.2048    2.1460509     13.04349 
   30001   -937.74127    52.209789   -885.53148    1869.9653   -5337.9051    2.1459902    13.083899 
Loop time of 20.5243 on 1 procs for 30001 steps with 217 atoms

Performance: 63.147 ns/day, 0.380 hours/ns, 1461.731 timesteps/s
100.4% CPU use with 1 MPI tasks x no OpenMP threads

MPI task timing breakdown:
Section |  min time  |  avg time  |  max time  |%varavg| %total
---------------------------------------------------------------
Pair    | 19.991     | 19.991     | 19.991     |   0.0 | 97.40
Neigh   | 0.085009   | 0.085009   | 0.085009   |   0.0 |  0.41
Comm    | 0.12637    | 0.12637    | 0.12637    |   0.0 |  0.62
Output  | 0.0086816  | 0.0086816  | 0.0086816  |   0.0 |  0.04
Modify  | 0.2687     | 0.2687     | 0.2687     |   0.0 |  1.31
Other   |            | 0.0443     |            |       |  0.22

Nlocal:    217 ave 217 max 217 min
Histogram: 1 0 0 0 0 0 0 0 0 0
Nghost:    949 ave 949 max 949 min
Histogram: 1 0 0 0 0 0 0 0 0 0
Neighs:    4144 ave 4144 max 4144 min
Histogram: 1 0 0 0 0 0 0 0 0 0
FullNghs:  8288 ave 8288 max 8288 min
Histogram: 1 0 0 0 0 0 0 0 0 0

Total # of neighbors = 8288
Ave neighs/atom = 38.1935
Neighbor list builds = 145
Dangerous builds = 0
Total wall time: 0:00:20
