LAMMPS (3 Mar 2020)

# ---------- 1. Initialize simulation ----------
units metal
atom_style atomic
dimension 3
boundary p p p
read_data /home/modeler/RemLabs/Project/arrhenius_4/T1500.0/n3_T1500.0_timestep3.000000e-03_eqsteps3200_time600_rseed3324/20201205-114655/lammps.data
  orthogonal box = (0 0 0) to (17.469 17.469 17.469)
  1 by 1 by 1 MPI processor grid
  reading atoms ...
  217 atoms
  read_data CPU = 0.00103572 secs

pair_style meam/c
pair_coeff * * library.meam Li Si LiSi.meam Li Si
Reading potential file library.meam with DATE: 2012-06-29
Reading potential file LiSi.meam with DATE: 2020-11-07

group Li type 1
1 atoms in group Li
group Si type 2
216 atoms in group Si

velocity all create 1500.0 3324 dist gaussian

# ---------- 2. Specify equilibration ensemble  ----------
fix 1 all npt temp 1500.0 1500.0 0.15 tchain 2 iso 1.0 1.0 1.0 pchain 2
# fix 1 all nvt temp 1500.0 1500.0 0.15

# ---------- 3. Run equilibration -------------
timestep 0.003
run 3200
Neighbor list info ...
  update every 1 steps, delay 10 steps, check yes
  max neighbors/atom: 2000, page size: 100000
  master list distance cutoff = 6
  ghost atom cutoff = 6
  binsize = 3, bins = 6 6 6
  2 neighbor lists, perpetual/occasional/extra = 2 0 0
  (1) pair meam/c, perpetual
      attributes: full, newton on
      pair build: full/bin/atomonly
      stencil: full/bin/3d
      bin: standard
  (2) pair meam/c, perpetual, half/full from (1)
      attributes: half, newton on
      pair build: halffull/newton
      stencil: none
      bin: none
Per MPI rank memory allocation (min/avg/max) = 8.895 | 8.895 | 8.895 Mbytes
Step Temp E_pair E_mol TotEng Press Volume 
       0         1500   -951.04357            0   -909.16328   -115839.99    5330.9442 
    3200    1636.7878   -952.50483            0    -906.8054    2215.6032    4604.2389 
Loop time of 2.30685 on 1 procs for 3200 steps with 217 atoms

Performance: 359.555 ns/day, 0.067 hours/ns, 1387.171 timesteps/s
100.0% CPU use with 1 MPI tasks x no OpenMP threads

MPI task timing breakdown:
Section |  min time  |  avg time  |  max time  |%varavg| %total
---------------------------------------------------------------
Pair    | 2.2465     | 2.2465     | 2.2465     |   0.0 | 97.38
Neigh   | 0.013027   | 0.013027   | 0.013027   |   0.0 |  0.56
Comm    | 0.013758   | 0.013758   | 0.013758   |   0.0 |  0.60
Output  | 2.4127e-05 | 2.4127e-05 | 2.4127e-05 |   0.0 |  0.00
Modify  | 0.028875   | 0.028875   | 0.028875   |   0.0 |  1.25
Other   |            | 0.004707   |            |       |  0.20

Nlocal:    217 ave 217 max 217 min
Histogram: 1 0 0 0 0 0 0 0 0 0
Nghost:    957 ave 957 max 957 min
Histogram: 1 0 0 0 0 0 0 0 0 0
Neighs:    4183 ave 4183 max 4183 min
Histogram: 1 0 0 0 0 0 0 0 0 0
FullNghs:  8366 ave 8366 max 8366 min
Histogram: 1 0 0 0 0 0 0 0 0 0

Total # of neighbors = 8366
Ave neighs/atom = 38.553
Neighbor list builds = 22
Dangerous builds = 0

# ---------- 4. Describe computed properties----------
compute msdli Li msd
compute msdsi Si msd
thermo_style custom step pe ke etotal temp press density c_msdli[4] c_msdsi[4]
thermo 100

# ---------- 3. Run production -------------
timestep 0.003
run 200000
Per MPI rank memory allocation (min/avg/max) = 9.665 | 9.665 | 9.665 Mbytes
Step PotEng KinEng TotEng Temp Press Density c_msdli[4] c_msdsi[4] 
    3200   -952.50483    45.699427    -906.8054    1636.7878    2215.6032    2.1904398            0 8.6484954e-32 
    3300   -952.92606    40.512721   -912.41333    1451.0187   -2911.0952    2.1833127   0.10502203  0.080914202 
    3400   -952.42653    38.894624    -913.5319    1393.0644   -3464.2988    2.1799756   0.11523052  0.085600668 
    3500   -949.34527    41.365851   -907.97942    1481.5748     2114.282    2.1913914  0.079338268   0.10358014 
    3600   -948.47807    39.789006   -908.68907    1425.0979    5977.7284    2.2008135   0.40027501   0.12242161 
    3700   -955.20294     38.60444    -916.5985     1382.671   -393.47904    2.1959501   0.13946978  0.084972402 
    3800   -948.14805    39.266344    -908.8817     1406.378   -6732.0384    2.1646713   0.31196226  0.091514695 
    3900   -951.09998    42.980446   -908.11953    1539.4037   -321.34724    2.1824801   0.10290924  0.093942757 
    4000   -955.99324    43.749917   -912.24332    1566.9633    5548.4017    2.2095867  0.024255488  0.088828136 
    4100   -955.73417    40.035791   -915.69838    1433.9368    2955.6237    2.2049438   0.11467623  0.099107162 
    4200   -946.05762    39.306651   -906.75097    1407.8217   -8029.0558     2.157253  0.099725375  0.096140816 
    4300   -950.24593    40.881536    -909.3644    1464.2284   -4030.4538    2.1720819  0.048732578  0.076908444 
    4400   -953.93073    43.796101   -910.13463    1568.6175    7548.4481    2.2096604   0.11113925  0.094277302 
    4500   -944.12882    43.416455   -900.71236      1555.02    8226.4646    2.1917902   0.12697603   0.10397885 
    4600   -949.38957    43.157859   -906.23171     1545.758   -2323.6566    2.1774924  0.086762934   0.10826049 
    4700   -948.75172     38.42532    -910.3264    1376.2556   -6316.5561    2.1691779   0.23091267    0.1135621 
    4800   -946.95167    38.557324   -908.39434    1380.9835    2175.4387    2.1873798   0.13106198   0.10917958 
    4900   -944.64396    44.351874   -900.29209    1588.5233    8417.8288    2.1932472   0.05990676   0.11037261 
    5000   -951.54777    42.916771     -908.631    1537.1231    3517.9096    2.1969139  0.040299934  0.088935285 
    5100    -951.1083    40.817523   -910.29078    1461.9357   -5942.8495    2.1738845   0.14394878  0.090861797 
    5200   -949.66704    44.764379   -904.90266    1603.2977   -5488.7836     2.170388  0.018341784  0.099694913 
    5300   -949.07031    45.818294   -903.25202    1641.0451    3175.0553    2.1880202   0.17897738   0.10476745 
    5400   -951.67407    41.855311   -909.81876    1499.1055    6020.6212    2.2033337    0.1317614   0.11226705 
    5500   -951.86796    42.731865    -909.1361    1530.5004   -1504.5472    2.1844882   0.31218509  0.092261744 
    5600   -949.35074    45.568909   -903.78183    1632.1131   -6747.9324    2.1660383  0.077327268  0.098729895 
    5700    -950.4245     45.76176   -904.66274    1639.0203   -1890.3242    2.1767079   0.29249811   0.10666807 
    5800    -952.1959    42.066194   -910.12971    1506.6585    4477.0713     2.201279   0.11910815    0.1137813 
    5900   -950.08608    41.367797   -908.71829    1481.6445    3268.2541    2.1932497  0.023276357   0.11454266 
    6000   -951.10224    43.138037   -907.96421    1545.0481   -5793.0249    2.1731835  0.084838106  0.097449086 
    6100   -952.43923    35.448593   -916.99064      1269.64   -1207.7734    2.1892095  0.088007089  0.093105449 
    6200   -954.26739    41.568892   -912.69849     1488.847   -135.04055    2.1936092   0.04502326  0.087424771 
    6300   -950.45256      41.9745   -908.47806    1503.3744    5159.1095    2.2016871  0.078482705   0.11308252 
    6400   -953.25846    44.118891   -909.13957    1580.1787   -219.11014     2.191708   0.24592766  0.099212394 
    6500   -953.42903    36.758133    -916.6709     1316.543   -1556.3954    2.1898984   0.19972145  0.093257503 
    6600   -951.13852    41.801796   -909.33672    1497.1887   -4874.4903    2.1743654   0.39311079  0.089818647 
    6700   -949.52165    41.892421   -907.62923    1500.4346    3341.0984     2.197461  0.024675952   0.10507887 
    6800    -952.0986     38.99171   -913.10689    1396.5417    8877.3247    2.2122427  0.051769094   0.10411447 
    6900   -950.78459    37.297974   -913.48662    1335.8782   -1014.8873    2.1880743   0.24740803    0.1081085 
    7000   -951.87522    44.503461   -907.37176    1593.9526   -9570.2406    2.1633023   0.15199149   0.10926804 
    7100   -951.96966    42.148109   -909.82155    1509.5924   -1555.6104    2.1840157   0.10337354  0.099590178 
    7200   -952.28396    40.162569   -912.12139    1438.4776    10851.225     2.220188   0.15113907   0.10597589 
    7300   -946.01971    43.460028   -902.55968    1556.5806    3484.8867    2.1845812   0.26238244    0.1083696 
    7400   -948.30249    41.246812   -907.05567    1477.3112   -6464.3596    2.1672595   0.31153099   0.11472092 
    7500   -949.74048    38.937003   -910.80347    1394.5822   -3107.6386    2.1810997  0.083999082  0.099934793 
    7600   -952.60062    43.972919    -908.6277    1574.9505    6910.2536    2.2116982  0.056338312   0.10207284 
    7700   -949.79095    48.111498   -901.67945    1723.1794    4793.3992    2.1940799   0.13074035   0.10419228 
    7800   -949.37088    40.033183    -909.3377    1433.8434   -9223.3349    2.1661304   0.19371541   0.10686913 
    7900   -949.09852    38.933943   -910.16458    1394.4727   -10294.111    2.1630988  0.082369406   0.11255551 
    8000   -948.00888    43.984066   -904.02481    1575.3497    9497.8366    2.2047121    0.5780846   0.10567797 
    8100   -947.17083    42.338126   -904.83271    1516.3981     15478.58    2.2177371  0.058886495   0.11100673 
    8200   -952.70322    41.685352   -911.01787    1493.0181   -6648.0006    2.1717407   0.12702943  0.098828605 
    8300   -949.94457    40.395891   -909.54868    1446.8343   -8571.9591     2.163852  0.065284556   0.11297818 
    8400   -947.63166    42.566748   -905.06491    1524.5865    4424.3749      2.18971  0.062474753  0.097010423 
    8500   -953.30301    42.331404    -910.9716    1516.1574    2549.3683    2.2003855  0.043219683  0.097584489 
    8600   -951.76102    39.210815    -912.5502    1404.3892   -1285.7411    2.1854335  0.051092712  0.095443854 
    8700   -950.28951    41.513582   -908.77593    1486.8659   -2980.8679    2.1800957   0.20680617   0.10506372 
    8800   -949.73641    43.214435   -906.52197    1547.7843     2344.321    2.1874808   0.31870553   0.10086251 
    8900   -957.64925    42.138727   -915.51052    1509.2564    3531.8795    2.2088637   0.10123736  0.092039138 
    9000   -949.21612     39.44538   -909.77074    1412.7905   -1248.3456    2.1790638   0.12089533   0.11066057 
    9100   -950.58651    42.939388   -907.64712    1537.9332   -4587.2793    2.1723071   0.27651863   0.10826712 
    9200   -951.18963     38.04216   -913.14747    1362.5322    1805.8494    2.1972227   0.13054154   0.10884874 
    9300   -953.55674    40.745151   -912.81159    1459.3435    6164.2032    2.2092019   0.29159144   0.11080327 
    9400   -951.11789    44.343858   -906.77403    1588.2362   -304.71302    2.1853225   0.23319008   0.10492117 
    9500   -952.58351    41.414651   -911.16886    1483.3226   -10683.724    2.1635064   0.12510067   0.10183273 
    9600    -953.4287     40.72525   -912.70345    1458.6308    -4881.305    2.1809576   0.17528468  0.087554598 
    9700   -950.92365    46.736749    -904.1869    1673.9409     10592.24    2.2063141   0.03912847  0.093526145 
    9800   -951.28153    43.458617   -907.82291      1556.53    8729.3761    2.2067744  0.061426346  0.097852663 
    9900   -952.81091     40.79032   -912.02059    1460.9613   -10461.471     2.161689   0.16250142  0.091014459 
   10000   -946.24163    41.488803   -904.75283    1485.9785   -9306.5195    2.1512732   0.18677443   0.10759888 
   10100   -950.55743    44.546365   -906.01106    1595.4893     6776.045     2.201767   0.12011414   0.10519457 
   10200   -951.86226    41.571353    -910.2909    1488.9351    9634.9775    2.2112841   0.16980025   0.10605042 
   10300   -949.72809     41.43704   -908.29105    1484.1245   -2907.5227    2.1785291   0.21623598   0.10721768 
   10400   -948.20021    45.146801   -903.05341    1616.9947   -8079.2929    2.1603959 0.0096417356   0.10565366 
   10500   -951.75193     39.19771   -912.55422    1403.9198    4767.8075    2.2023794   0.13161811  0.096470108 
   10600   -950.51508     40.75329   -909.76179     1459.635    3295.7617    2.1972195  0.093309368   0.10472666 
   10700   -947.43296    40.994421   -906.43854    1468.2715   -667.83728    2.1808583    0.3387925   0.10715338 
   10800   -953.01432    39.894147   -913.12018    1428.8637   -4289.3685    2.1844823   0.43860433   0.10617246 
   10900   -949.98429    37.589662   -912.39463    1346.3254    1596.0998    2.1910737   0.16077247  0.095021147 
   11000   -951.82621    44.562316   -907.26389    1596.0606    2023.5775    2.1944507   0.17270926   0.11036024 
   11100   -950.75425    40.258262   -910.49599     1441.905    1762.2978     2.195282   0.20715736   0.11274555 
   11200    -954.8045    39.486738   -915.31777    1414.2718   -2429.5994    2.1924537  0.077068302   0.10107159 
   11300   -949.05036    41.530523   -907.51984    1487.4727   -3480.2408    2.1749321   0.13123334   0.12355779 
   11400   -950.50249    41.429524   -909.07297    1483.8553    1295.4304    2.1911253    0.3301457   0.10209301 
   11500   -951.38565    36.851568   -914.53408    1319.8895    9468.4023     2.216375  0.031936458   0.10088142 
   11600   -946.97086    40.913178   -906.05769    1465.3617   -1967.5649    2.1773279   0.12349925   0.10062018 
   11700    -947.1968    39.526828   -907.66997    1415.7076   -7374.9893    2.1625533   0.11317104    0.1125304 
   11800   -953.47457    42.432272    -911.0423    1519.7701   -1180.0124    2.1914205   0.16497788  0.094580512 
   11900   -951.12505    38.935625   -912.18942    1394.5329    12768.308    2.2211295   0.11895724  0.097513553 
   12000   -949.62395    45.945117   -903.67883    1645.5875   -3080.5222    2.1772003   0.30798568   0.11121712 
   12100   -950.15793    40.936446   -909.22148     1466.195   -10462.613    2.1612799    0.3977923   0.10865792 
   12200   -952.71111    42.221827   -910.48928    1512.2327   -2009.2005    2.1883946   0.35667769   0.12091831 
   12300   -947.58817    42.529322   -905.05885    1523.2461    13123.484    2.2141021   0.13522887   0.12161676 
   12400   -947.71344    43.618242    -904.0952    1562.2472    1778.7828    2.1869096   0.20279041    0.1218926 
   12500   -950.11149    39.411674   -910.69982    1411.5832   -8034.4981    2.1686599   0.16644476   0.11691948 
   12600   -953.83431    44.855534   -908.97878    1606.5626    -5135.001    2.1802009  0.086668041  0.096306178 
   12700   -945.03367    43.324634   -901.70903    1551.7313    8412.9473    2.1922919  0.099236304   0.11537908 
   12800   -950.29361    41.359867   -908.93374    1481.3604    3502.2255    2.1967259    0.3128784    0.1172319 
   12900   -951.10389    40.507686    -910.5962    1450.8384   -5729.7615    2.1755437   0.11549542  0.091636764 
   13000   -950.92368    43.574513   -907.34917     1560.681   -3556.5307     2.178563   0.14339428  0.099718905 
   13100   -946.19633    42.088038   -904.10829    1507.4409    5826.1514    2.1921191   0.18922205   0.10394383 
   13200   -955.57683    42.248112   -913.32871    1513.1742     1706.936    2.2016327   0.10100289  0.097563715 
   13300   -951.15615    39.614088   -911.54206     1418.833   -5784.0756    2.1750791  0.026379429   0.10632063 
   13400   -950.82671    41.755332   -909.07138    1495.5246   -3522.7435      2.17993  0.038598981   0.10991858 
   13500   -948.67234    42.467653   -906.20469    1521.0373    5510.7949    2.1974745   0.15937731   0.12595719 
   13600   -953.57525     44.49048   -909.08477    1593.4877   -277.27117    2.1937374  0.063107813  0.095738648 
   13700    -954.0723    40.219776   -913.85253    1440.5265   -3332.4325    2.1883762   0.13995121    0.1085503 
   13800   -949.77966    39.598846   -910.18081    1418.2871    2295.4937    2.1928174   0.30607678   0.10590305 
   13900   -950.03868    42.727859   -907.31082     1530.357    1828.1358    2.1897795    0.1720584   0.10730366 
   14000   -951.52982    40.612248   -910.91757    1454.5835   -1750.5852    2.1882934   0.38690394    0.1030112 
   14100   -951.97397    37.663923   -914.31004    1348.9851    1078.7364    2.1935067   0.22558341  0.093678867 
   14200   -948.34034    39.694973   -908.64537      1421.73    1651.8434    2.1904114   0.12487969   0.10984891 
   14300   -947.58578    39.716307   -907.86947    1422.4941    1890.6259    2.1898459   0.15290901   0.11481338 
   14400   -953.32272    37.207975   -916.11475    1332.6547    1863.5515    2.1991017  0.029942344  0.097486647 
   14500   -951.81504    41.127875   -910.68717    1473.0513   -3400.9592    2.1842558    0.2406936    0.1114953 
   14600    -949.2654    41.463807    -907.8016    1485.0832    1286.6257     2.188312  0.095076653   0.12598779 
   14700   -953.62804    41.904351   -911.72369    1500.8619    123.71736    2.1946863   0.19435523    0.1063192 
   14800   -958.14547    41.959613   -916.18586    1502.8412   -279.99487    2.2029968  0.054279875   0.10458051 
   14900   -952.20744    44.626293   -907.58114     1598.352   -5613.8367    2.1771928    0.3228947   0.10098479 
   15000   -951.17948    41.997127   -909.18235    1504.1848   -940.05926    2.1858455  0.096260951  0.096790332 
   15100   -952.24609    40.078379   -912.16771    1435.4622    2352.3336    2.1994258    0.1267481   0.10879327 
   15200   -952.88914      38.1505   -914.73864    1366.4126    1351.8179      2.20083  0.071057627   0.10606181 
   15300   -949.55992    44.490676   -905.06924    1593.4947   -7179.6714    2.1654614  0.090771421    0.1022335 
   15400   -950.73568    42.800272   -907.93541    1532.9505    -2898.095    2.1814449   0.18141446   0.11030161 
   15500   -954.47707    44.777676   -909.69939     1603.774     3694.235    2.2059681   0.15930782   0.11122448 
   15600   -955.53876    42.623244   -912.91552      1526.61    2187.3427    2.2057219  0.082801909   0.12017134 
   15700   -945.74671    39.319412    -906.4273    1408.2788   -4837.9581    2.1659533   0.13225695   0.14063844 
   15800   -950.16361    44.457031   -905.70658    1592.2896   -7755.3619    2.1662497  0.084417556   0.10730318 
   15900   -950.53038    42.182492   -908.34789    1510.8239    10009.785    2.2103858   0.28197245    0.1020468 
   16000   -954.55098    44.848498   -909.70248    1606.3105    11200.441     2.219139  0.081520584  0.098583669 
   16100   -945.44004    42.274501   -903.16554    1514.1193   -6180.0059    2.1591452  0.073756291   0.10692515 
   16200   -947.55602     42.67795   -904.87807    1528.5694   -13088.331    2.1477363   0.21234072   0.11886992 
   16300   -955.49074    45.692386   -909.79835    1636.5355   -147.97543    2.1939575  0.038428735  0.089299178 
   16400   -950.24397    41.622972     -908.621    1490.7839    11980.497    2.2156801   0.12562345   0.10194343 
   16500   -948.45224     47.20398   -901.24826    1690.6754   -1565.3953    2.1753427   0.24846956   0.11843606 
   16600   -949.70335    41.928767   -907.77458    1501.7364   -7258.0279    2.1641603   0.20932905   0.11547969 
   16700   -950.47379    40.284009   -910.18978    1442.8271   -3357.6365    2.1753752  0.044998798    0.1132274 
   16800   -952.41637    44.909004   -907.50737    1608.4777    4640.7168    2.2008174  0.020600789    0.1128214 
   16900   -948.81814     48.45983   -900.35831    1735.6554    3405.1819    2.1868337  0.058941872   0.10626425 
   17000   -949.08557    41.218737   -907.86683    1476.3057   -3788.0184     2.174017  0.012021229   0.10714549 
   17100   -953.43271    43.644953   -909.78776     1563.204   -11084.904    2.1665958  0.029358817   0.10375751 
   17200   -953.04047    44.633473     -908.407    1598.6091   -25.705592    2.1904928  0.010638744   0.09648762 
   17300    -950.3096     40.61494   -909.69466    1454.6799    7957.4321    2.2045883   0.23034873   0.11091798 
   17400   -954.95532    38.336576   -916.61875    1373.0771    2947.4142    2.2046976   0.16231412  0.096728245 
   17500   -949.10609    38.180747   -910.92534    1367.4959   -2484.8005    2.1799859   0.17993519   0.11282774 
   17600    -952.0016    43.791094    -908.2105    1568.4382   -3049.5064    2.1790503   0.32348427   0.10881239 
   17700   -949.13361    40.411695   -908.72192    1447.4004    2944.2176    2.1923048   0.20244655   0.11384739 
   17800   -954.49751    38.115509     -916.382    1365.1593    5748.4777    2.2111373   0.11097956   0.10217905 
   17900   -953.01494     43.54059   -909.47435     1559.466   -3253.8346     2.181005  0.045180514  0.088636682 
   18000   -951.37787    43.118915   -908.25896    1544.3632   -3562.3964    2.1752744   0.19254276  0.095210997 
   18100   -956.44749    43.059813   -913.38768    1542.2464   -1942.0709    2.1934931  0.033092501  0.090940893 
   18200   -954.00161    39.768691   -914.23292    1424.3703    4387.1167    2.2063866   0.25777231   0.09009921 
   18300   -948.93026    41.141185   -907.78907     1473.528    1352.1834    2.1874433   0.12668631  0.093760666 
   18400   -952.63478    42.960796   -909.67398    1538.6999   -5002.9241    2.1767275   0.11903118  0.090263013 
   18500   -952.81779    37.553459   -915.26433    1345.0287   -2028.6911    2.1926566   0.11615199  0.099136588 
   18600   -953.86669    42.278911   -911.58778    1514.2773    4537.6206      2.20906   0.14682898   0.10560226 
   18700   -953.29444    45.563573   -907.73087     1631.922    4880.7003    2.2037588   0.16085717   0.10570116 
   18800   -949.77875    40.106152    -909.6726    1436.4569   -8804.0811    2.1672355   0.13183491   0.10809974 
   18900   -948.80279    39.365099   -909.43769    1409.9151   -12993.619    2.1542024   0.10154894   0.10786555 
   19000   -947.25806    46.861768   -900.39629    1678.4186    10229.582    2.2049068   0.10166062   0.11564364 
   19100   -950.55242    45.722765   -904.82966    1637.6236    21487.082    2.2379943   0.20777975   0.10932113 
   19200    -948.8559    38.768251   -910.08765    1388.5382   -4805.1306    2.1775068   0.19823344   0.10682859 
   19300   -948.32206    39.105352   -909.21671    1400.6119   -10501.622    2.1598678   0.14640786   0.10273503 
   19400   -945.74049    44.571154   -901.16934    1596.3771     1357.846     2.179837   0.22164162   0.10082378 
   19500   -950.08123    42.246129    -907.8351    1513.1031    10486.241    2.2137873   0.19633974    0.1081177 
   19600   -950.91074    40.748537    -910.1622    1459.4648   -1756.4194    2.1886258   0.11928666   0.10839785 
   19700   -949.41933    40.895402   -908.52392     1464.725   -6970.7688    2.1694214    0.2919252   0.10876966 
   19800   -948.90645    47.568212   -901.33824    1703.7209   -148.56382    2.1774647   0.31938479  0.094355597 
   19900   -950.53109    43.153548   -907.37754    1545.6036    8368.8484    2.2056374   0.25565006  0.098005038 
   20000   -949.81749    40.082074   -909.73541    1435.5945   -1254.3239    2.1829788   0.34628049   0.10364241 
   20100   -952.85482    43.471638   -909.38319    1556.9964   -7258.7565    2.1698613   0.14703963   0.10397463 
   20200   -950.27547    45.858023   -904.41745    1642.4681    -1.435316    2.1847559   0.15536972   0.10612143 
   20300   -945.70105    44.159629   -901.54142    1581.6378    6075.4543    2.1898194   0.26903811  0.096383919 
   20400   -950.44227    41.395443   -909.04683    1482.6346    248.01266    2.1872196   0.12180941  0.095963251 
   20500   -953.36817    43.826937   -909.54123     1569.722   -5588.4037    2.1781136   0.18851601  0.085712624 
   20600   -948.94958    40.948016   -908.00156    1466.6094    1437.1326    2.1844401   0.11785135   0.10062849 
   20700   -944.96351    46.154212   -898.80929    1653.0765    2377.5059    2.1788532   0.11379311   0.10906072 
   20800   -949.07023    42.188824   -906.88141    1511.0507    8548.5882    2.2036331   0.11004827    0.1126849 
   20900   -954.06742    44.444686   -909.62274    1591.8475   -6015.9828    2.1764621   0.37547442  0.098470545 
   21000   -950.18254    40.271175   -909.91136    1442.3674   -12554.057    2.1576216 0.0078903158  0.092984023 
   21100   -950.00901     47.11423   -902.89478    1687.4608    3639.2161    2.1930994   0.29359045  0.099222182 
   21200   -949.73915    46.142596   -903.59655    1652.6605    14029.933    2.2157512   0.30303263  0.099592221 
   21300   -949.64936    40.544353   -909.10501    1452.1517   -2975.6574    2.1809599    0.1386355   0.10307685 
   21400   -949.45061    39.153089   -910.29752    1402.3217    -10570.86     2.162728   0.17009114   0.10000659 
   21500   -949.55725    44.735594   -904.82166    1602.2667    150.57722    2.1836305   0.15595471   0.10886905 
   21600   -948.47109    45.002867   -903.46822    1611.8395    6452.1013    2.1976727   0.28993584   0.10484664 
   21700   -949.00531    39.376213    -909.6291    1410.3132    1753.9266    2.1902571   0.14898599   0.10990119 
   21800   -952.71803    43.279206   -909.43883    1550.1042   -4541.1806    2.1784497  0.047035294  0.099198774 
   21900   -948.79459    46.267289   -902.52731    1657.1265   -2488.4286    2.1770628   0.21090157   0.11055372 
   22000   -947.93981    41.062624   -906.87718    1470.7143    3573.4342    2.1904084  0.058868919   0.10101691 
   22100   -949.97989     39.95105   -910.02884    1430.9017    758.52886    2.1865565   0.33801471  0.095771751 
   22200   -951.15337    42.533528   -908.61984    1523.3967   -2403.2334    2.1819548   0.20940833   0.10152064 
   22300   -946.85166    44.378437   -902.47322    1589.4747    1760.5777    2.1799897   0.18130884    0.1005894 
   22400    -948.6138    43.700515   -904.91328     1565.194    1089.5943    2.1800337  0.058377854  0.097725854 
   22500   -953.05964    43.487228   -909.57242    1557.5548   -3578.7861    2.1773361   0.08240283  0.094132052 
   22600   -952.61293    43.313872   -909.29906    1551.3458    585.76913     2.190504   0.11459455   0.10484901 
   22700   -948.81852    41.899868   -906.91866    1500.7013     7999.459    2.2025254   0.04834094   0.10550689 
   22800   -941.55198    41.554902   -899.99708    1488.3459    -1129.383     2.164827   0.17432442   0.11644041 
   22900   -951.64211    42.739733   -908.90238    1530.7822    -8298.532    2.1706215   0.16804977  0.096452353 
   23000    -950.5925    41.824781   -908.76772     1498.012    536.97721    2.1922704   0.64934863   0.10954927 
   23100   -947.33973    43.679413   -903.66032    1564.4382    7596.7982    2.1992744   0.37502772   0.11479661 
   23200   -948.97003     41.58148   -907.38855    1489.2978    -2598.281    2.1783085  0.052474083   0.10568475 
   23300   -952.35568    40.812925   -911.54276     1461.771   -10215.624    2.1669644   0.13680563  0.090858636 
   23400   -952.96346    45.111681   -907.85177    1615.7368    495.96629    2.1885536  0.033304066  0.085580518 
   23500   -950.54992    44.411611   -906.13831    1590.6629    10493.151    2.2078752  0.046954819  0.094899059 
   23600   -953.62578    38.366993   -915.25879    1374.1666    1875.9948     2.200785   0.10046314  0.098802942 
   23700   -947.75269    37.089907   -910.66278    1328.4259   -9389.1757     2.157494 0.0046771612   0.10582022 
   23800   -949.03604    41.276969   -907.75907    1478.3913   -3398.6186    2.1719958  0.010355023  0.096779539 
   23900   -952.12469    40.314049   -911.81064     1443.903    7800.0276     2.207998  0.086112317  0.092276425 
   24000   -953.61658    38.758176    -914.8584    1388.1773    6620.5067    2.2107514   0.17116373   0.10032586 
   24100   -951.78104    43.958957   -907.82208    1574.4504   -4462.6961    2.1739578   0.24463273   0.10294861 
   24200   -951.90517    42.428209   -909.47697    1519.6246   -5496.1365     2.174379   0.20079976   0.10237225 
   24300   -954.40763    39.151137   -915.25649    1402.2517    1742.6923     2.199536  0.067050908  0.088019533 
   24400   -951.43482      43.5778   -907.85702    1560.7988    2915.8943    2.1950618  0.086620089  0.096814219 
   24500   -949.63726    42.012275   -907.62499    1504.7273    2739.5062    2.1909698   0.17381341  0.098185673 
   24600   -947.68484     36.17303   -911.51181    1295.5868    -949.2701     2.179452   0.25694359   0.10757523 
   24700     -951.275     42.28021   -908.99479    1514.3238   -2547.7146    2.1821128  0.027799869  0.093217511 
   24800   -950.34599    46.409899   -903.93609    1662.2343    1753.4705    2.1868706   0.12659361  0.089082366 
   24900   -949.50653    40.048158   -909.45837    1434.3798    3482.2261    2.1941664  0.086418403   0.10705631 
   25000   -950.05176    39.269353    -910.7824    1406.4858    845.34306    2.1868192   0.19249402   0.10837382 
   25100   -948.42891    46.646109   -901.78281    1670.6945   -4827.1093    2.1654158    0.1809916   0.11794281 
   25200   -949.64987    41.523979   -908.12589    1487.2383     6135.158    2.1987204 0.0074814087   0.11023382 
   25300   -951.68401    41.702098   -909.98191    1493.6179    6556.3066    2.2050546  0.031623963   0.09575545 
   25400   -949.39647    41.628592   -907.76787    1490.9852   -5549.5572    2.1685677  0.088391123   0.10584122 
   25500   -946.60827    44.429864   -902.17841    1591.3166   -12816.827    2.1443136   0.10480167   0.11404764 
   25600   -956.20037    44.525202   -911.67517    1594.7313    5298.2927    2.2122618  0.047183956  0.098735276 
   25700   -951.12359    42.431574   -908.69201    1519.7451    14037.928    2.2188772  0.074893642  0.093657158 
   25800   -949.17899    42.790161   -906.38883    1532.5884   -3909.5427    2.1709622  0.073826008  0.088418951 
   25900   -950.13169    41.433353   -908.69834    1483.9925   -12945.203    2.1543577   0.14319712   0.11186686 
   26000   -951.76204    38.287373   -913.47467    1371.3149     1890.074    2.1994076   0.14866377   0.11592818 
   26100   -949.14946    41.199739   -907.94972    1475.6252    11291.276    2.2132069   0.07774487   0.11519228 
   26200   -949.54119    41.358653   -908.18254     1481.317    1510.1932    2.1880451  0.013235903   0.10468978 
   26300    -951.8779    35.600075   -916.27782    1275.0656   -5159.4821    2.1787815   0.30485808  0.094459262 
   26400   -952.24867    41.560663   -910.68801    1488.5522   -4837.7878    2.1794237  0.035264113  0.095157303 
   26500   -948.06718    40.996025   -907.07115    1468.3289    7445.2468     2.202694   0.12014328   0.11891876 
   26600   -954.81937    42.396318   -912.42305    1518.4823    3746.9122    2.2050727   0.15493425  0.099638088 
   26700   -954.59827    40.524164    -914.0741    1451.4286   -3682.8522    2.1868248  0.061457872  0.093578419 
   26800   -948.61468    41.645044   -906.96964    1491.5744    -6554.717    2.1688556   0.20887111   0.10747653 
   26900    -950.8125     41.01083   -909.80167    1468.8592    2164.3195    2.1936387   0.12597611  0.095870362 
   27000   -951.92363    38.965005   -912.95862    1395.5852    8409.1409    2.2119045   0.28415071   0.11446597 
   27100   -945.37995    41.963479   -903.41647    1502.9796    361.84603    2.1732252  0.046354405   0.11273407 
   27200   -949.45445    41.231801   -908.22265    1476.7736   -5032.3121    2.1722251  0.088544464   0.10101536 
   27300   -950.48013    39.555709   -910.92442     1416.742    3164.2458    2.1952739   0.39783729   0.10128428 
   27400   -953.03808    47.355115   -905.68296    1696.0885    7893.0189    2.2051587  0.065075462  0.098713026 
   27500   -948.71997    44.196251   -904.52372    1582.9494   -291.13176    2.1810664  0.021165661   0.10528071 
   27600   -950.69396    39.714483   -910.97948    1422.4288   -15031.245    2.1526807  0.044930778   0.10967045 
   27700   -951.89932    43.096112   -908.80321    1543.5464   -3496.4493    2.1799232  0.030797424    0.1030955 
   27800   -949.91692    48.446186   -901.47074    1735.1667    15365.462     2.220598   0.14963767  0.095758154 
   27900    -950.8275     41.31187   -909.51563    1479.6414    5190.0073    2.2037665    0.3763908   0.10402855 
   28000   -953.28836    42.015714   -911.27265    1504.8505   -13136.768    2.1608978   0.06131477   0.10083915 
   28100   -951.71212    46.509094   -905.20303    1665.7871   -8859.8018     2.161958    0.7808692   0.11806199 
   28200   -949.94755    43.566311   -906.38124    1560.3873    5513.6944    2.1998277  0.092668272   0.11333002 
   28300   -952.33499    40.485857   -911.84913    1450.0566    7754.9124    2.2103752  0.050742614   0.10612256 
   28400   -953.68782    46.004497   -907.68332    1647.7143   -4508.7972    2.1794829   0.25472531  0.095003298 
   28500   -948.52693    42.179756   -906.34718    1510.7259   -6814.5886     2.165415   0.27904835   0.10950298 
   28600    -953.1506    38.542319   -914.60828    1380.4461    3147.6222    2.2054162   0.12817945  0.099417121 
   28700   -947.62184    39.595332    -908.0265    1418.1612    9395.8694     2.208526  0.095180066   0.11103753 
   28800   -950.24137    42.460769    -907.7806    1520.7908   -2144.1878    2.1854259   0.14162771   0.12006156 
   28900   -954.34705    39.162062   -915.18499     1402.643   -6868.9943    2.1812365   0.12900647   0.11231941 
   29000   -952.26915    42.959441   -909.30971    1538.6514   -2543.3647    2.1849276   0.51092956   0.10436093 
   29100   -950.03644     43.56565   -906.47079    1560.3636     8620.538    2.2081679  0.064413972   0.11081747 
   29200   -953.31925    40.718103   -912.60115    1458.3748    4825.1715     2.205231  0.092169472   0.10659579 
   29300   -947.89054     38.81529   -909.07525    1390.2229   -5522.4756    2.1713505   0.11412264    0.1057715 
   29400    -948.9956    42.982223   -906.01337    1539.4674   -5138.5517    2.1727865   0.11458861   0.11552067 
   29500    -951.3344    40.843122   -910.49127    1462.8525    7215.9236    2.2073468   0.10008556   0.10937422 
   29600   -952.24835      41.5879   -910.66045    1489.5278     9004.556    2.2165312  0.077306309  0.099964301 
   29700   -946.66861    43.755245   -902.91336    1567.1542    -9906.667    2.1550731   0.12499724   0.11580048 
   29800   -949.16109    38.748515   -910.41257    1387.8313   -14039.242    2.1517722     0.103874   0.11166864 
   29900   -951.26663    41.374858   -909.89177    1481.8973    6566.6806    2.2073796   0.11862418   0.10887171 
   30000   -948.13671    44.268868   -903.86785    1585.5503    19074.263    2.2275408   0.10351695   0.11375699 
   30100    -948.4418    40.284998    -908.1568    1442.8625   -1536.1233    2.1784273   0.05126487   0.10786702 
   30200   -954.52741    41.557616   -912.96979    1488.4431   -12703.716    2.1663934   0.10773513   0.10533057 
   30300   -952.19512     45.10338   -907.09174    1615.4395   -1914.6643      2.18594   0.28569091   0.10510575 
   30400    -949.9868    42.095077   -907.89172     1507.693    5202.1012    2.2037225    2.6696089   0.12079983 
   30500   -953.23209     39.42724   -913.80485    1412.1407    2138.6979    2.2026134    4.9616851   0.13653753 
   30600   -948.69286    43.382864      -905.31    1553.8169   -9525.9627    2.1610883    7.3682821   0.14001673 
   30700   -952.74931    45.120654   -907.62866    1616.0582   -7845.0453    2.1709482    4.8746039   0.13675234 
   30800   -952.51998    41.215224   -911.30476    1476.1799    5375.3261    2.2013847    4.6270604   0.14206373 
   30900   -945.77383    42.187367   -903.58646    1510.9985    6731.7941    2.1931988      6.16504   0.14127657 
   31000   -946.43225    39.123148   -907.30911    1401.2493    1893.3264    2.1827398    5.6280953    0.1312362 
   31100   -951.25608    39.646785   -911.60929    1420.0041    -6189.366    2.1741979    8.7324186   0.11949353 
   31200   -947.37581    43.012368   -904.36344     1540.547   -1846.1889    2.1786102    6.7984881   0.12986655 
   31300   -948.89221    41.546023   -907.34619    1488.0279    8198.6576    2.2072862    7.0080569   0.13783151 
   31400    -953.0019    41.546859   -911.45504    1488.0578    1752.3107    2.1984331    7.3335897   0.13814766 
   31500   -950.37633    44.517135   -905.85919    1594.4423   -11444.482    2.1580163    6.9583481   0.13207306 
   31600   -947.43947    41.115992   -906.32348    1472.6257    -5688.732    2.1652165    4.0955607   0.13784462 
   31700   -951.62228    40.060003   -911.56228     1434.804    11432.388    2.2158946    5.7027627    0.1270963 
   31800   -949.95799    45.430831   -904.52716    1627.1676    10394.901    2.2124697    5.8529734   0.15033702 
   31900   -948.13062    40.736291   -907.39433    1459.0262   -6953.7016    2.1639122    6.1021721   0.14033654 
   32000   -951.68136    38.203359     -913.478    1368.3058   -14249.249    2.1567716    6.7675906    0.1277641 
   32100   -952.06834    45.340523   -906.72781    1623.9331    3166.2682    2.1947682    9.7481595   0.13744318 
   32200    -946.1335    41.603001    -904.5305    1490.0686    15197.672    2.2170304    7.2864329   0.13733163 
   32300   -950.54962     38.55386   -911.99576    1380.8594    1645.1288    2.1945088    4.3286645   0.14338988 
   32400   -946.79138    40.115361   -906.67602    1436.7868   -8382.8006    2.1631238    5.8066295   0.13683623 
   32500   -947.43477    42.184585   -905.25019    1510.8989   -4029.4533    2.1711449    6.1281377   0.14876555 
   32600   -953.38759    41.710689    -911.6769    1493.9256    4616.8588    2.2044281    6.1656594   0.14127731 
   32700   -947.05771    41.390681   -905.66703    1482.4641    6338.6995    2.1956753     9.175984    0.1477553 
   32800   -949.42995    43.329449    -906.1005    1551.9037   -5291.6452    2.1770837    9.0045581   0.15068032 
   32900   -951.72377     38.88016   -912.84361    1392.5463   -4298.1721    2.1808795    6.7428075   0.14029141 
   33000   -945.39751    40.079881   -905.31763     1435.516    3199.1719    2.1817599    6.0218262   0.14663461 
   33100   -948.34714    41.707675   -906.63946    1493.8177    10483.485    2.2058376    7.1727027    0.1338035 
   33200   -953.02884    40.937958   -912.09088    1466.2492    2909.4113     2.197689    5.4852337    0.1279224 
   33300   -946.00054    41.130551   -904.86999    1473.1472    -7594.984    2.1602845    4.8113871   0.14307449 
   33400   -947.52339    40.692129   -906.83126    1457.4445   -7112.3069    2.1702501    5.1758661    0.1415787 
   33500   -951.05675    39.551736   -911.50502    1416.5997    6988.9291    2.2079632    4.3351077   0.13614778 
   33600   -948.60777    45.055024   -903.55275    1613.7076    7399.4144    2.2018553    11.688999   0.12635956 
   33700   -951.03271    44.027636   -907.00508    1576.9102   -1217.1316    2.1867864     15.32051   0.13197987 
   33800   -949.88099    38.020796   -911.86019     1361.767   -5616.8301    2.1762261    18.425393   0.13626896 
   33900   -945.97566    41.335656      -904.64    1480.4933   -3490.4308    2.1706556    22.892504   0.12594116 
   34000   -948.65474    39.475915   -909.17883    1413.8841    8653.1563    2.2095211    22.407354   0.11845595 
   34100   -951.67407    40.400163   -911.27391    1446.9873    9980.5528    2.2137236    24.148984   0.10336189 
   34200   -949.27923    43.283873   -905.99535    1550.2714   -9225.6646    2.1551914    21.905984   0.11373334 
   34300   -947.50781    40.500983   -907.00682    1450.5983   -15550.344    2.1416916    21.139267   0.11399028 
   34400   -949.15865    37.083724   -912.07492    1328.2045    11901.895    2.2151561    21.450752   0.11887008 
   34500   -950.57087     44.87569   -905.69518    1607.2845    17064.306    2.2250609    20.639536    0.1324636 
   34600   -949.48799    41.813177   -907.67481    1497.5964    -2642.904    2.1767074    24.097982  0.099394112 
   34700   -951.27111    37.096135   -914.17498     1328.649   -8296.7245    2.1693294    21.034671    0.1042535 
   34800   -950.75975    43.284166   -907.47558    1550.2819   -967.84439    2.1825006    22.449957    0.1086552 
   34900   -949.22742    42.732598   -906.49482    1530.5267    7193.8521    2.2029342    21.204405    0.1242299 
   35000   -955.12896    41.621513   -913.50745    1490.7316    1680.5139    2.2034745    24.401327   0.11672387 
   35100    -948.8581    42.151879   -906.70622    1509.7274   -6043.9266    2.1661851    23.335128   0.11339588 
   35200    -951.3406    44.198653   -907.14195    1583.0355   -5808.0587    2.1743796    21.596877   0.10210026 
   35300   -953.05393    40.552567   -912.50136    1452.4459    6834.1002    2.2074789    21.761703  0.099893925 
   35400   -947.29861    41.423063   -905.87555    1483.6239    6145.0537    2.1983682    22.805668   0.12251858 
   35500   -947.56468    40.382128   -907.18256    1446.3414   -2337.8383    2.1767424    18.977219   0.11994022 
   35600   -953.63528    40.351394   -913.28389    1445.2406   -8258.3014    2.1740583    26.764953   0.10601865 
   35700   -949.80963    43.294685   -906.51494    1550.6586    1365.4377    2.1873096    24.456015    0.1028815 
   35800   -947.32264    40.822371   -906.50027    1462.1093    11053.977    2.2063412    23.104337   0.11620949 
   35900   -951.95455    39.161865   -912.79269     1402.636    1913.3901    2.1947352    26.029908   0.10950497 
   36000   -948.48575    41.205112   -907.28063    1475.8177   -9789.8917    2.1588931    24.837265   0.11638861 
   36100   -945.27319    38.818581   -906.45461    1390.3408    -1693.479    2.1723442    23.317067   0.11430409 
   36200   -954.68008    42.064314   -912.61576    1506.5912    13339.159    2.2284567    20.113323   0.11151485 
   36300   -951.21387    45.098815   -906.11506     1615.276     10058.79     2.209084    25.160534   0.11070826 
   36400   -948.40689    41.064485    -907.3424    1470.7809   -12344.709    2.1481979    25.963713   0.11868886 
   36500   -951.76651    37.941242   -913.82527    1358.9177   -12848.657    2.1579913    23.120659   0.11437433 
   36600   -953.96871    45.101489   -908.86722    1615.3718    6316.3682    2.2062913    24.172213   0.10107558 
   36700   -954.54074    49.065477   -905.47526    1757.3475     4822.717    2.2029673    24.331621     0.102131 
   36800   -957.26331    44.060681   -913.20263    1578.0938   -5113.1536    2.1874129     24.35389   0.09612324 
   36900   -947.18958    38.756619   -908.43296    1388.1216   -4295.5114    2.1676707    21.183392   0.11146506 
   37000   -945.27989    39.357931   -905.92196    1409.6584    2053.8123     2.181556    23.891442   0.11828838 
   37100     -950.509    38.012558   -912.49644     1361.472    7940.3068    2.2084333    20.505981   0.10775253 
   37200   -949.90124    42.336586   -907.56465     1516.343    3381.1765     2.190122    23.257188   0.10415008 
   37300   -948.29362    42.201707   -906.09191    1511.5121   -4614.9318    2.1670847    21.912228   0.10838637 
   37400   -954.90805    41.867772   -913.04028    1499.5517    -7181.034    2.1794259    22.289814   0.11049467 
   37500   -949.65787    42.235366    -907.4225    1512.7177    2992.0353    2.1880194    22.389129     0.107918 
   37600   -948.68528    42.833046   -905.85223    1534.1244    5884.5876     2.193595    21.224141   0.12501559 
   37700   -952.69546    39.830975   -912.86448    1426.6011   -177.16638    2.1869265    22.676203   0.10808062 
   37800   -952.64142    45.254772   -907.38664    1620.8618   -8355.7075    2.1661317    22.909771   0.10522595 
   37900   -948.85182    43.043628    -905.8082    1541.6667    1376.1469    2.1808147    23.170853   0.11475853 
   38000   -954.27889    42.136768   -912.14212    1509.1862    8617.4171    2.2129282    23.845324  0.097021253 
   38100   -947.48706    40.849483   -906.63757    1463.0804    3588.5012    2.1848992    22.139843   0.10742004 
   38200    -948.1685    41.360751   -906.80775    1481.3921   -10108.151    2.1523756    22.098426   0.10818991 
   38300   -952.83381    39.067287   -913.76652    1399.2485   -4675.6968    2.1772546    23.383956  0.091683743 
   38400    -953.7976    46.187497   -907.61011    1654.2686    9667.5628    2.2110589    24.783659  0.098490833 
   38500   -950.05998    44.210689   -905.84929    1583.4666     8041.547    2.2007717    21.968921   0.10565923 
   38600   -953.20161    39.495612   -913.70599    1414.5896   -7732.6134    2.1716864    24.547335   0.10162798 
   38700   -949.11366    39.785061    -909.3286    1424.9566   -8752.2829    2.1613957    22.235924   0.11155578 
   38800   -952.43516    46.940357    -905.4948    1681.2334    1014.9952    2.1900322     21.89913   0.10211477 
   38900   -955.33408    42.848148   -912.48593    1534.6653     7032.856    2.2117306    22.783032  0.090881552 
   39000   -951.61537    42.943666    -908.6717    1538.0864   -1182.4389    2.1860676    22.313866   0.10619018 
   39100   -947.50583    41.503902   -906.00193    1486.5193   -3639.8782    2.1720118    20.526689   0.11050723 
   39200    -953.9546    41.410291    -912.5443    1483.1664    -545.7921    2.1916791     23.11879  0.098313796 
   39300   -950.62946    42.304291   -908.32517    1515.1863    3427.3326    2.1935728    21.480019   0.10597274 
   39400   -948.97042    43.548811   -905.42161    1559.7605    92.124401    2.1841555    23.207081   0.11400086 
   39500   -954.47027    41.808848   -912.66142    1497.4413   -2307.1717    2.1868954    22.812436   0.10521803 
   39600   -953.08068    45.148236   -907.93244    1617.0461   -2301.7074    2.1833938    23.116314   0.10819416 
   39700   -951.46722    46.255164   -905.21206    1656.6922   -1669.8772    2.1864129    20.950122    0.1064374 
   39800   -954.94775    42.291277   -912.65647    1514.7202     2118.661    2.2000117    22.902084   0.10311673 
   39900   -949.40713    41.746135   -907.66099    1495.1952   -589.06035    2.1815987    22.343247   0.10113256 
   40000   -946.66952    40.497416   -906.17211    1450.4706   -2801.2246    2.1749557    23.956858   0.11339988 
   40100   -952.09887    38.648255   -913.45062    1384.2403    4066.7619    2.1996883    23.585627   0.10719982 
   40200   -949.53882     42.40952    -907.1293    1518.9552    6550.9797    2.2026152    20.578663   0.10625252 
   40300    -947.7337    40.113977   -907.61973    1436.7372   -55.981485    2.1831336    23.468547   0.12072025 
   40400   -953.65116    38.842453   -914.80871    1391.1958    -6716.474    2.1789743    22.034827   0.10052584 
   40500   -950.66414    42.628953   -908.03519    1526.8145    -680.5616    2.1834286    24.618348   0.11666566 
   40600   -947.69543    41.221579   -906.47386    1476.4075    10547.696    2.2085537    20.732905    0.1159848 
   40700   -951.94806    38.434594   -913.51347    1376.5878    5671.4803    2.2063504    22.415989   0.10242508 
   40800   -949.34347       42.698   -906.64547    1529.2875   -8284.8818    2.1610578    22.856541   0.10398295 
   40900    -947.8749    40.704457   -907.17045     1457.886   -4222.9915    2.1712716    21.859349   0.10070511 
   41000   -954.41686    42.264753   -912.15211    1513.7702    7132.8209    2.2123781     20.85169   0.11214476 
   41100   -949.68689    43.113805   -906.57308    1544.1802    7604.2791    2.2060881    20.799765   0.10924858 
   41200   -945.60676     39.32449   -906.28227    1408.4606   -2327.3684     2.169425    21.437513   0.11276997 
   41300   -954.00687    40.909539   -913.09733    1465.2313   -8560.8419    2.1733308    20.926389   0.10355975 
   41400   -953.13284    45.416515   -907.71633    1626.6549   -121.68672    2.1919069    21.762146  0.097205477 
   41500   -951.91148     46.65841   -905.25307     1671.135    4832.4214    2.1999114    20.292429   0.10850245 
   41600   -954.40412    41.539195   -912.86493    1487.7833   -1136.1052    2.1955284    24.592544   0.10157524 
   41700   -951.63282    43.754867   -907.87795    1567.1406   -5063.0204    2.1749658    22.091224   0.11552907 
   41800   -949.98608    44.358458   -905.62763    1588.7591   -2340.9988     2.178546    21.157706   0.10370872 
   41900   -955.60215    42.320976   -913.28117    1515.7839    3674.3249     2.205802    23.684655  0.099146769 
   42000   -949.48068    41.829874    -907.6508    1498.1944    2403.2795    2.1918265    20.938352   0.11069435 
   42100   -948.43289    41.525401   -906.90749    1487.2893   -1960.0413    2.1790979    22.975407    0.1050453 
   42200   -954.63425    40.696998   -913.93725    1457.6189   -1667.2463    2.1923653    24.400347   0.10133985 
   42300   -947.77666    40.565883   -907.21078    1452.9228    1245.8946    2.1883557    20.017014   0.12589412 
   42400   -949.16064    42.027798   -907.13284    1505.2833    2892.2756    2.1922259    20.627246   0.11820077 
   42500   -951.39329    37.954316   -913.43898    1359.3859    1700.9017    2.1961603    24.065492   0.10942465 
   42600   -947.18025    41.047643   -906.13261    1470.1777   -970.59785    2.1756891    22.041874    0.1082513 
   42700   -948.19303    40.619542   -907.57349    1454.8447    674.55575    2.1877835     25.94154   0.10197639 
   42800   -952.72883    40.217474   -912.51135    1440.4441    3923.4078    2.2039896    20.453457   0.11520136 
   42900   -950.45404    45.475515   -904.97852     1628.768   -909.59249     2.181202    21.009404   0.11356524 
   43000   -949.82123    41.877286   -907.94394    1499.8925   -3122.7406    2.1769605    22.448567     0.110934 
   43100   -952.23932    39.744699   -912.49462     1423.511    -2133.329    2.1904822    20.936413   0.10660269 
   43200   -950.77172    45.595727     -905.176    1633.0736      6374.46    2.2024773     22.84602   0.10158717 
   43300   -955.03638    47.026968   -908.00941    1684.3355     2921.519    2.2048066    22.473616   0.11469659 
   43400   -949.07766    36.024918   -913.05275    1290.2819   -3417.0575    2.1777043     22.75834   0.11324594 
   43500   -948.99843    42.056827   -906.94161     1506.323   -8672.3906    2.1645447    23.774402   0.10259272 
   43600   -949.38742    42.493494   -906.89392    1521.9628    4233.3891    2.1953084    21.650396   0.10122162 
   43700    -957.3007    44.388947   -912.91176    1589.8511    9073.2681    2.2226274    20.344468  0.090029056 
   43800   -951.81515    45.381175   -906.43397    1625.3891   -3297.5814    2.1815975    22.007967   0.10691798 
   43900   -951.26039    43.340866   -907.91952    1552.3127    -9481.739    2.1623775    21.768668   0.10781796 
   44000   -956.78455    42.942922   -913.84163    1538.0597   -3193.1984      2.19415    22.794817  0.099373098 
   44100   -949.96951    43.649869   -906.31964      1563.38    7433.8265    2.2035805    24.019134  0.098958476 
   44200   -950.30057    42.646218   -907.65436    1527.4329    5546.9658    2.1958688    21.250801   0.10711409 
   44300   -948.28049    34.699148   -913.58134    1242.7976   -3940.9729    2.1799472    23.427629    0.1226719 
   44400   -953.70329    47.381519   -906.32177    1697.0342   -9704.9751    2.1704901     21.59359    0.1216732 
   44500   -952.52889      45.5821   -906.94679    1632.5855    3262.6329    2.1977263    22.034813   0.10534623 
   44600   -953.72506     41.80668   -911.91838    1497.3637     6626.946     2.208397     22.15148  0.093257084 
   44700   -948.53463    42.626989   -905.90764    1526.7441   -1545.3061    2.1797584    21.494594   0.11591183 
   44800   -951.10146     43.98142   -907.12004     1575.255   -6879.9562    2.1702516    22.330941   0.10388621 
   44900   -952.19857    39.441943   -912.75663    1412.6674    1220.7806    2.1935096    22.450371   0.10352149 
   45000   -949.91233    43.884447   -906.02788    1571.7817    1292.3628    2.1920379    22.691281   0.10655766 
   45100   -952.35517    44.219116   -908.13605    1583.7684   -105.66169    2.1886498     24.24235   0.10211483 
   45200   -951.32913    38.036332    -913.2928    1362.3235    691.51216    2.1913194     22.78017   0.10774146 
   45300    -951.0245    44.913373   -906.11112    1608.6341   -1444.1509    2.1792355    20.642281   0.10107909 
   45400   -950.04119    41.391336   -908.64986    1482.4876    1658.1876    2.1908493    21.485391   0.11695756 
   45500   -953.20883    39.978574   -913.23025    1431.8875    2212.8545    2.1975659    23.106339  0.098335898 
   45600   -949.14665    43.324318   -905.82233    1551.7199   -1844.6183     2.176675    22.041781   0.10861091 
   45700   -951.89138     42.45877   -909.43261    1520.7192   -977.20467    2.1856457    23.648827   0.11058843 
   45800   -952.66459    39.732501   -912.93209    1423.0741      1846.31    2.1966955    22.719536   0.10735241 
   45900   -949.66492    44.476827   -905.18809    1592.9986   -1189.8811    2.1821551    20.603452    0.1170298 
   46000   -950.58093    40.550946   -910.02998    1452.3878   -47.645327    2.1870071     25.41092   0.11031229 
   46100   -954.07638    41.427957   -912.64842    1483.7992   -2356.7958    2.1866873     23.37944   0.11257674 
   46200   -947.81378    42.948175   -904.86561    1538.2479   -735.74163    2.1756899    20.619795   0.11424681 
   46300   -948.16427    37.756504   -910.40776     1352.301    6444.2659    2.1987888    21.514437   0.10557467 
   46400   -955.03273    43.050371   -911.98236    1541.9082    1212.7734    2.1974036    22.371112   0.10754417 
   46500   -949.01717    44.136808   -904.88036    1580.8204   -6255.3203     2.166068     21.63947   0.11104701 
   46600   -953.88617     42.42374   -911.46243    1519.4645   -5420.2761    2.1811297    22.606399   0.10197042 
   46700   -952.99875    41.933788   -911.06496    1501.9162    3814.6423    2.1991685    22.104303    0.1118254 
   46800   -950.58183    46.209281   -904.37255    1655.0489    3435.1762    2.1906132    21.835415   0.11404396 
   46900   -955.86878    44.351496   -911.51729    1588.5098   -6202.6886    2.1808831    22.217409   0.10644765 
   47000   -952.28977    40.895085   -911.39469    1464.7136   -7274.2666     2.169502    24.500952   0.10419249 
   47100   -949.73324     44.71929   -905.01395    1601.6828    -1472.828    2.1805471    24.018774   0.11959994 
   47200   -951.36678    39.997199   -911.36958    1432.5546    9801.6177    2.2126478     26.52339   0.11894187 
   47300   -952.62686    41.231384   -911.39548    1476.7586    176.51473    2.1955233    20.688351   0.11402335 
   47400   -946.02112    40.337501   -905.68362     1444.743   -7964.4406    2.1579884    22.945597   0.12048811 
   47500   -952.11442    39.485207   -912.62921    1414.2169   -4788.4519    2.1798165    19.330578   0.10812261 
   47600   -953.41526    42.921043   -910.49422    1537.2761    7990.7954    2.2124112    22.722137    0.1028937 
   47700   -947.82384    43.510761   -904.31308    1558.3977    8020.0998    2.2013511    23.798669   0.12115154 
   47800   -951.74678    40.434645   -911.31213    1448.2223   -6960.9428    2.1720916    20.344078   0.10822483 
   47900   -951.08754    40.139943    -910.9476    1437.6672   -9849.9632    2.1644901     22.81942   0.11417703 
   48000   -946.87538    42.470856   -904.40453     1521.152    3281.3909    2.1891709    23.203504   0.13169501 
   48100   -950.79305    40.450275   -910.34277    1448.7822    11611.152    2.2199645    26.036992   0.11432659 
   48200   -954.21636    42.119183   -912.09718    1508.5564   -2697.1528    2.1886515    23.269692   0.11673904 
   48300   -943.32022    38.147913    -905.1723    1366.3199   -6950.1131    2.1563684    22.126249   0.12345074 
   48400   -950.61198    38.767443   -911.84454    1388.5092    33.249416    2.1903015    19.714093    0.1085907 
   48500   -955.06364    43.977808   -911.08583    1575.1256    3632.6202    2.2023875    19.868283  0.098947919 
   48600   -949.52501    44.214414    -905.3106    1583.5999    177.58386    2.1846514    21.270704   0.12081484 
   48700    -949.1261    36.852309   -912.27379    1319.9161    -578.4178    2.1863685    22.038858   0.11348476 
   48800   -949.39012    38.336164   -911.05395    1373.0624    -1371.494    2.1819437    20.666447   0.11148872 
   48900   -948.66688    43.087584    -905.5793     1543.241    536.34055    2.1826804    24.522566    0.1201786 
   49000   -949.37488    37.239497   -912.13539    1333.7837    5805.2894    2.1988775    25.667578   0.12024568 
   49100   -951.60277    41.026259   -910.57651    1469.4118    825.62266    2.1902933     24.44046   0.13065238 
   49200   -949.63675    44.295311   -905.34144    1586.4974   -4814.5856    2.1698346    22.512802   0.12165846 
   49300   -954.14656    41.957816   -912.18875    1502.7768   -2495.2992     2.186097    23.106172   0.10839719 
   49400   -951.95415    42.407483   -909.54667    1518.8822    4492.6457    2.1989196    22.481101   0.10412887 
   49500   -949.22095    46.041801   -903.17915    1649.0503    2073.5032    2.1834338    25.883082   0.11583948 
   49600   -950.10129    40.149594   -909.95169    1438.0128   -5385.7026    2.1687678    30.327555   0.12628064 
   49700    -950.5587    40.916045   -909.64266    1465.4643   -5424.7175    2.1725719    39.528479   0.13447542 
   49800   -945.93218    44.308438   -901.62374    1586.9676    3693.3795    2.1852879    34.736974    0.1385515 
   49900   -949.49801    41.169565   -908.32845    1474.5445     12150.29    2.2132359    41.038596    0.1462666 
   50000   -950.05821    39.685772   -910.37244    1421.4004   -3238.1045    2.1791832    36.689507    0.1353964 
   50100   -947.48377    44.056264    -903.4275    1577.9356   -13015.443    2.1448547    34.420217   0.13597879 
   50200   -951.65072    45.285898   -906.36482    1621.9767   -3518.6185    2.1759349    40.968418   0.12384356 
   50300   -952.22348    42.995459   -909.22802    1539.9414     10210.07    2.2125397    40.465986   0.12816292 
   50400   -947.71751    41.664325   -906.05318     1492.265    6301.7198    2.1976279    40.765555   0.13496084 
   50500   -946.37184    41.758165   -904.61368     1495.626   -8006.2361     2.162463    39.571186   0.13046924 
   50600   -952.49765    39.058095   -913.43955    1398.9193   -2963.6719    2.1864221    37.513258   0.10545911 
   50700   -952.89723      43.3955   -909.50173    1554.2694    2271.0804    2.1985251    40.268874   0.11452707 
   50800   -950.52017    44.363654   -906.15651    1588.9452    2349.2956    2.1935772    39.777499   0.11757276 
   50900    -953.6885    40.135845   -913.55266    1437.5204   -2997.7417    2.1883703    39.154046   0.11029349 
   51000   -952.98076    40.823384   -912.15738    1462.1456   -4030.5529    2.1817152    39.881667   0.11557113 
   51100   -948.97057    41.927505   -907.04307    1501.6912    2434.6685    2.1896456    35.469665   0.11103775 
   51200   -951.41926    40.293017   -911.12625    1443.1497    4272.1822     2.200274    36.653536   0.11603779 
   51300   -955.61352    40.956615    -914.6569    1466.9174    201.81735    2.1969917    39.396322   0.10815747 
   51400   -947.41414    40.400525   -907.01362    1447.0003   -2409.3274    2.1777125    35.540966   0.12741636 
   51500   -952.67365    42.992751    -909.6809    1539.8444   -1777.9291    2.1850485    41.814029   0.10412855 
   51600   -953.09621    38.767332   -914.32888    1388.5052     4787.979    2.2039992     37.65093   0.10210836 
   51700   -946.41024    41.000485   -905.40975    1468.4887     3521.369    2.1843232    43.585783   0.11344771 
   51800   -952.28097    44.191039   -908.08993    1582.7628   -2785.8025    2.1849947    40.341139   0.11486159 
   51900   -947.05206    35.095567    -911.9565    1256.9959    2783.5834    2.1874057    38.963925    0.1107277 
   52000   -949.61769    43.184674   -906.43302    1546.7184    1498.0827    2.1875621    38.129224   0.10037907 
   52100   -949.11406    43.768442   -905.34562    1567.6269     2610.682    2.1917693    37.864043   0.11319763 
   52200   -950.95906    39.942848   -911.01622     1430.608   -3780.8872    2.1812881    37.853788   0.10518924 
   52300   -950.66607    42.231864   -908.43421    1512.5922   -5106.4459    2.1726143    37.561205   0.11546138 
   52400   -946.86493    44.256257   -902.60867    1585.0986     954.1331    2.1807089    39.002573   0.10708898 
   52500   -951.39336      41.1616   -910.23176    1474.2592    6891.2555    2.2057825    41.099932   0.10059464 
   52600   -948.90642    38.931507   -909.97491    1394.3854   -300.97973    2.1850275    41.691725   0.10692742 
   52700   -947.68506    44.425892   -903.25917    1591.1744    -8615.746    2.1573944    38.306185   0.10416562 
   52800    -952.1748    40.451789   -911.72301    1448.8364     2413.024    2.1958746    40.844007   0.11064218 
   52900   -953.32635    42.887925   -910.43842    1536.0899    4849.1639    2.2062441    42.575062  0.098836417 
   53000   -949.40954    43.030426   -906.37911    1541.1938     515.1724    2.1856337    44.302411   0.11172172 
   53100   -949.40687     41.92061   -907.48625    1501.4442   -10294.988    2.1601941    40.910483   0.11549398 
   53200   -956.72869    42.714163   -914.01452    1529.8664   -2994.0444    2.1934753    41.139793    0.1041744 
   53300   -952.69443    45.239968   -907.45446    1620.3316    11058.785    2.2168983    38.036245   0.11922059 
   53400   -950.25309    42.090025   -908.16306    1507.5121    2982.9258    2.1951002    40.351337   0.10258258 
   53500   -953.81655    37.837206   -915.97934    1355.1915   -8621.3555    2.1736809    39.510762  0.091576328 
   53600    -950.2303    40.258955   -909.97134    1441.9298   -6950.8031    2.1712418    39.840282   0.10323923 
   53700   -947.17843    40.145998   -907.03243    1437.8841    8378.1334    2.2022565    39.303977   0.10927968 
   53800   -951.36471    38.576377   -912.78833    1381.6659    7733.5549    2.2068818    39.248186    0.1056705 
   53900   -954.51761    43.859736   -910.65788    1570.8967   -2823.7119    2.1843021    41.604255   0.10160781 
   54000   -948.38061    42.188674   -906.19194    1511.0453   -3563.2081    2.1710591    38.571701   0.10692414 
   54100   -950.86042    40.358874   -910.50155    1445.5085   -1119.9461    2.1862177    40.375685   0.10243431 
   54200   -952.33826    40.578887   -911.75937    1453.3886    3129.3073    2.1983478     37.36977   0.11505945 
   54300   -948.49671    45.394478   -903.10223    1625.8656   -2442.4486    2.1752695    39.680571   0.11369785 
   54400   -950.04893    40.644074   -909.40485    1455.7233     377.7262    2.1826816    38.994982  0.098111101 
   54500   -951.12838     40.22729   -910.90109    1440.7956    1226.1246    2.1883889    41.918567  0.094646389 
   54600   -947.78428    45.024704   -902.75958    1612.6216    1684.7423    2.1813873    40.754463  0.098352217 
   54700    -952.6491    43.518566   -909.13054    1558.6772    1916.6837    2.1935694    41.167152   0.10976707 
   54800   -949.67043    38.735658   -910.93477    1387.3708   -1666.3278    2.1812929    41.281825   0.11389427 
   54900   -949.67673    44.652558   -905.02418    1599.2927   -4505.5069    2.1684999    39.839784   0.10140597 
   55000   -952.07803    45.203055   -906.87497    1619.0095    3075.3024    2.1919884    40.315585    0.1077742 
   55100   -953.57379    42.097798   -911.47599    1507.7905    6733.8703     2.211715    37.214667    0.1055826 
   55200   -949.02197    41.050762   -907.97121    1470.2894      2502.75    2.1846853    37.289839   0.10648106 
   55300   -947.94061    41.259361   -906.68125    1477.7607   -9164.6603    2.1543193    40.857192   0.11217853 
   55400   -952.37097    36.773429   -915.59754    1317.0909    542.79505    2.1913514    37.797256   0.10080327 
   55500   -948.11787    39.092315   -909.02556    1400.1449    12793.208    2.2138728     42.13055   0.10623565 
   55600   -949.51109    42.136791    -907.3743    1509.1871    4566.5325    2.1934019    41.453859   0.09335104 
   55700   -952.07213    38.934825   -913.13731    1394.5042   -9819.1358    2.1675439    41.438779    0.1046312 
   55800   -950.58096    37.431366   -913.14959    1340.6558   -5146.2265    2.1760238    41.725101    0.1100169 
   55900   -950.68908    43.752035   -906.93705    1567.0392    6919.4573    2.1992778    41.421528   0.10346803 
   56000   -950.05529    40.201249   -909.85404     1439.863     6531.116    2.2033966    42.076852   0.11161313 
   56100     -953.185    37.791832   -915.39316    1353.5664   -970.58518    2.1910921    39.025404   0.10381659 
   56200   -951.75299    44.475997   -907.27699    1592.9689   -5636.9146    2.1721645    37.573592   0.10184496 
   56300   -951.73517    44.192951   -907.54222    1582.8312    2495.0437     2.194354    40.845803   0.10849486 
   56400   -951.90528    41.382088   -910.52319    1482.1563     2724.698    2.2007461    41.889703   0.11115345 
   56500   -953.52117    41.000083   -912.52109    1468.4743   -2366.4308    2.1870294    41.246621   0.10060023 
   56600   -946.88959    44.117984   -902.77161    1580.1462   -4571.3848    2.1624306    40.250444   0.10833827 
   56700   -951.69802    44.695248   -907.00277    1600.8217    2781.1759    2.1931448     35.84264   0.10385399 
   56800   -952.89595    43.024519   -909.87143    1540.9822    3540.2357    2.1984374    40.304847  0.099216783 
   56900   -948.95477    38.104527   -910.85024     1364.766   -155.15944    2.1852608    41.280635   0.11249788 
   57000   -946.83141     45.64316   -901.18825    1634.7725   -6278.3696    2.1600669    40.158097   0.12275331 
   57100   -952.68574    44.940581   -907.74516    1609.6086    2135.5644     2.194211    44.011261   0.10702877 
   57200   -950.18054    40.158853   -910.02169    1438.3445    6546.2707    2.2007376    40.665553   0.11239148 
   57300    -951.9918    44.353135   -907.63866    1588.5684   -2107.7397    2.1816922    39.049062   0.11641051 
   57400    -948.0401    45.779094     -902.261    1639.6411   -7074.2207    2.1594837    39.005555   0.11298021 
   57500   -950.19095    39.865363   -910.32559    1427.8327    1364.2863    2.1912816    41.004798   0.11638785 
   57600   -952.09971    43.073658   -909.02605    1542.7422    5409.6664     2.199428    37.316898   0.10337437 
   57700   -951.17371    48.280993   -902.89272    1729.2501   -1094.1582    2.1822904     38.88843   0.10763487 
   57800   -949.74181    41.062566   -908.67924    1470.7122   -4543.6332    2.1773732    39.300785   0.11649683 
   57900    -949.2776    38.510214   -910.76739    1379.2962    -2020.578    2.1832573    42.395547    0.1158711 
   58000   -950.72535    43.300219   -907.42513    1550.8568    1718.1167    2.1938411    42.202299    0.1256755 
   58100    -950.7541    46.909579   -903.84452     1680.131    2561.6569    2.1881154    35.656571   0.11734435 
   58200     -953.216    39.905279   -913.31072    1429.2624    629.44967    2.1980281    41.649263   0.11363828 
   58300   -951.25821    40.544224   -910.71398    1452.1471     -3747.87    2.1834752    40.595277   0.11586161 
   58400   -950.65038    42.717081    -907.9333    1529.9709   -2881.0765    2.1847717    42.383834   0.12802131 
   58500   -950.91441    41.306077   -909.60833    1479.4339    1362.4177    2.1960353    42.296408   0.11901231 
   58600   -955.61315    40.243805   -915.36935    1441.3871     4045.009    2.2080189    37.592169   0.10387322 
   58700   -949.68308    40.748668   -908.93441    1459.4695    357.82722    2.1872271    38.823649   0.11010535 
   58800   -949.57728    41.535432   -908.04185    1487.6486   -2833.9049    2.1776742    39.913691   0.11367368 
   58900   -954.44811    39.177123   -915.27099    1403.1825   -2034.9412    2.1938155    39.296774   0.10789672 
   59000   -950.89282    38.808208   -912.08461    1389.9693     3710.455    2.1977351    42.031114   0.11211735 
   59100   -952.71238    44.854607   -907.85777    1606.5294   -645.00222    2.1909636    38.839381   0.11706513 
   59200   -949.71828    39.345812   -910.37246    1409.2243   -2927.9802    2.1828368    38.352466   0.11475461 
   59300   -952.12671    35.071792   -917.05492    1256.1444   -1256.1128    2.1932555     40.14095   0.12494477 
   59400    -948.4288    39.358172   -909.07063     1409.667    2892.8164    2.1944351    42.254895   0.11227084 
   59500   -953.49411    45.558321   -907.93578    1631.7339    8925.5268    2.2143542    38.036451   0.11221175 
   59600   -950.79313    39.496741   -911.29639      1414.63   -477.53989    2.1915489     38.71936   0.12053315 
   59700   -953.04505    39.460326   -913.58473    1413.3258   -13209.103    2.1634919    38.605765   0.11334022 
   59800   -959.94261    37.010491   -922.93212    1325.5816    -2508.695    2.2059001    39.654474   0.11179313 
   59900   -956.61219    40.701851   -915.91034    1457.7927    9245.7869    2.2221406    41.284585   0.11418534 
   60000   -953.88816    42.088298   -911.79987    1507.4502    4448.4984    2.2043246    37.400576   0.10388162 
   60100   -946.67457    37.433438   -909.24113      1340.73   -4924.1611     2.168154    38.435626   0.10989161 
   60200   -947.56837    40.588483   -906.97989    1453.7323   -4852.6626    2.1696367    39.375352   0.12792503 
   60300   -954.69861    38.770887   -915.92772    1388.6326     6149.365    2.2127708    42.680268   0.10150358 
   60400   -955.63188    44.495306   -911.13657    1593.6605    3533.9187    2.2026439    38.799691   0.11286107 
   60500    -951.7073    43.732783   -907.97451    1566.3497   -4544.3408    2.1761048    37.631076   0.10418838 
   60600    -950.3131    40.470359   -909.84274    1449.5015   -5447.3171    2.1743272    37.741536   0.11775502 
   60700    -955.8703    39.730082   -916.14022    1422.9874    2448.4101    2.2072781    37.640703   0.10727894 
   60800   -951.76164    43.912817   -907.84882    1572.7979    3596.5096    2.1978514    38.256758   0.11645965 
   60900   -950.40559     41.89135   -908.51424    1500.3963   -1717.5946    2.1838856    41.803298   0.11114966 
   61000   -951.80601    37.526473   -914.27954    1344.0622   -6804.3487    2.1773778    37.567373   0.10239958 
   61100    -950.5152    40.484231   -910.03096    1449.9983    921.21617    2.1917087    40.393796   0.11888012 
   61200   -947.99811    42.376464   -905.62165    1517.7713    18884.004    2.2290957    39.201374   0.11323616 
   61300   -950.53741    40.315432   -910.22198    1443.9526    1439.4075     2.189212    41.608872   0.11828957 
   61400   -950.45082    39.749564   -910.70125    1423.6852   -16599.228    2.1489213    37.905092   0.11832484 
   61500   -946.58691    44.763238   -901.82367    1603.2568   -2745.1864    2.1708277    39.280206   0.11319561 
   61600   -954.27597    47.591806   -906.68416    1704.5659    10893.924    2.2218686    37.885986   0.13117928 
   61700   -952.42807    42.156558   -910.27151     1509.895    1303.0801    2.1984931    40.383145   0.12427355 
   61800   -948.00469    39.743688   -908.26101    1423.4748   -8012.5199    2.1652934    38.553237   0.12088252 
   61900   -944.07196    42.804233   -901.26773    1533.0924   -4804.9253    2.1602478    40.361339   0.13074088 
   62000    -953.3397    42.615085   -910.72462    1526.3178    7577.8361    2.2132641    40.168803   0.10790276 
   62100    -949.1507    39.797327   -909.35337    1425.3959    6456.3857    2.2018214    38.895023   0.11919045 
   62200   -951.97396     45.86345   -906.11051    1642.6625   -8373.5695    2.1670175    38.515047   0.11415565 
   62300   -949.07695    43.848473   -905.22848    1570.4933   -7738.6726     2.162194    44.474013   0.12666997 
   62400   -956.52945    43.799714   -912.72974    1568.7469    5871.1616    2.2117174    41.349655   0.10072987 
   62500   -952.61229    43.990286   -908.62201    1575.5725    8429.8347     2.210816    39.369912   0.11196631 
   62600   -950.28114    42.494012   -907.78712    1521.9814   -5254.5215    2.1729278    34.553654    0.1240924 
   62700   -951.62176    37.491452   -914.13031    1342.8078   -7736.4421    2.1716114     39.73118   0.11512525 
   62800   -956.19185    42.457085   -913.73477    1520.6588   -315.99992    2.1992323    41.018387   0.11871958 
   62900   -947.64471    39.884948   -907.75976    1428.5342     9226.937    2.2055614    42.165102   0.12236013 
   63000   -950.71682    41.607467   -909.10936    1490.2286    67.908378    2.1897837    38.328039   0.11420044 
   63100   -957.09919    40.295099   -916.80409    1443.2243    -6358.845    2.1877487    40.973627  0.094233042 
   63200   -950.26629    40.615185    -909.6511    1454.6886   -2844.4436    2.1815506    38.477016   0.10647049 
   63300     -951.734    43.976154   -907.75785    1575.0664    2377.5713    2.1970617    40.729763    0.1105234 
   63400   -952.91526    40.549719   -912.36554    1452.3439    1428.2156    2.1992263    39.436738   0.10637938 
   63500      -952.66    37.176109   -915.48389    1331.5134   -350.92169    2.1934878    38.326941   0.11194378 
   63600   -947.68945    40.519513   -907.16994     1451.262   -5093.7237    2.1716571    37.624209   0.10940458 
   63700   -951.74139    42.598311   -909.14308     1525.717   -668.64009     2.186838    37.393079   0.11460919 
   63800   -953.95894    41.855796   -912.10314    1499.1228    3185.7675    2.2025532    42.720785   0.10301304 
   63900   -945.23948    39.511337   -905.72814    1415.1528    5493.5121    2.1900138    39.724332    0.1108756 
   64000   -949.05948    43.616493   -905.44299    1562.1846   -1534.2878    2.1766946    40.937764   0.11645163 
   64100   -950.12454    40.285356   -909.83919    1442.8754   -3989.4957      2.17609    38.559354   0.10932529 
   64200   -950.61517    40.122779   -910.49239    1437.0524    857.07184    2.1908792    39.510428   0.10608161 
   64300   -951.74676      50.3065   -901.44026    1801.7964    3256.0736    2.1937061    41.448437  0.098749328 
   64400   -947.50609    40.738996   -906.76709    1459.1231    9246.7058    2.2035672    41.339431   0.11507492 
   64500   -950.22073    39.475133    -910.7456    1413.8561   -13312.031    2.1530411    39.824876   0.11303567 
   64600   -949.11896    42.001813   -907.11715    1504.3526   -11850.801    2.1502606    39.675192   0.11395883 
   64700   -950.80138    50.388203   -900.41317    1804.7227    8870.5347    2.2033146    39.613744   0.11397914 
   64800   -952.43241    43.322569   -909.10984    1551.6573    13435.054    2.2263637    39.961457   0.10778014 
   64900   -953.12928    42.846023   -910.28326    1534.5892   -6568.0097    2.1736164    43.092851  0.090761304 
   65000   -948.86462    43.864845   -904.99977    1571.0797   -11469.955    2.1523747    37.686782   0.10479769 
   65100   -952.23351    41.338693   -910.89482    1480.6021    836.20247    2.1918538    40.344271   0.10285137 
   65200   -951.04506    39.345373   -911.69968    1409.2086    9378.6105     2.213264    38.351554  0.098827646 
   65300   -951.34693    43.533581   -907.81335     1559.215    873.44412     2.189377    41.919254  0.098094074 
   65400   -949.91938    42.116359   -907.80302    1508.4552    -6175.607    2.1679041    38.901417  0.098171111 
   65500   -953.56756    37.729385   -915.83817    1351.3297    441.85824    2.1974326      37.0708   0.11070265 
   65600   -949.77769    41.094367   -908.68332    1471.8512    7020.4997    2.2041492    38.607391     0.116008 
   65700   -950.10792    42.405871   -907.70205    1518.8245    3271.7214    2.1960464    38.228943   0.10907355 
   65800   -951.52629    37.155755   -914.37053    1330.7844   -4269.2391    2.1819789    46.338153   0.10799254 
   65900   -952.54232    42.230362   -910.31195    1512.5384   -5792.2852    2.1760129    40.493939  0.094659317 
   66000   -950.29494    43.524096   -906.77085    1558.8753    5367.9183    2.2039915      39.6483   0.11417156 
   66100   -951.47582    40.857638   -910.61819    1463.3724    6921.0168    2.2087922    40.091569   0.11478746 
   66200    -953.4441    39.208942   -914.23516    1404.3221   -6299.3625    2.1830882    39.378547  0.096011787 
   66300   -945.68334    41.168031   -904.51531    1474.4896   -10659.488    2.1515132    39.852755   0.12151321 
   66400   -951.00421    43.194752   -907.80946    1547.0794    6947.0748    2.2057182    38.282058   0.10530079 
   66500   -952.08733     42.13247   -909.95486    1509.0323    12539.994    2.2254389    34.555278    0.1234953 
   66600   -949.77003    43.642524   -906.12751     1563.117   -3026.4554    2.1802554    36.643138   0.12173244 
   66700   -945.36935    41.223597   -904.14575    1476.4798   -7437.5748    2.1571201    36.143581   0.10741979 
   66800   -951.68318     40.91679   -910.76639     1465.491   -1518.7832    2.1907762    41.034392   0.10982772 
   66900   -951.26385    42.489091   -908.77476    1521.8052     5304.426    2.2023759    40.035463   0.10187117 
   67000   -945.30151    43.112336   -902.18917    1544.1275    1875.6973    2.1830578    38.793168   0.12088411 
   67100    -952.7782    41.706958   -911.07124     1493.792   -4748.3168    2.1869629    40.012268   0.11069057 
   67200   -951.55241    41.621709    -909.9307    1490.7387   -3274.6081     2.184078    37.887622   0.10575162 
   67300   -950.73021    45.940349   -904.78986    1645.4167    711.59536    2.1876209    43.156711   0.10654387 
   67400   -951.95911    40.406267   -911.55284    1447.2059    3540.5248    2.2012342    43.615264   0.11090861 
   67500   -951.03992    39.060064   -911.97986    1398.9898   -2630.7674     2.184168    39.332167   0.11074397 
   67600   -950.51214    42.885195   -907.62694    1535.9922   -2234.6253    2.1809499    39.314268   0.10654675 
   67700   -950.04133    42.184023    -907.8573    1510.8787    3302.3303    2.1935046    39.504469   0.10742099 
   67800    -954.7991    39.848588   -914.95051    1427.2319    4970.9059    2.2118535    39.518385   0.10429822 
   67900   -950.07238    41.912591   -908.15979     1501.157   -1814.1333    2.1800736    42.118836   0.10935307 
   68000    -949.0904     40.96083   -908.12957    1467.0684   -6336.5088    2.1679161    35.545214   0.11425661 
   68100   -952.17684    37.010625   -915.16622    1325.5864    3738.2551    2.2041867      39.0854   0.11217884 
   68200   -951.18336     41.82596    -909.3574    1498.0542    12487.166    2.2163131    39.696965   0.10248737 
   68300   -951.48533    44.235726   -907.24961    1584.3633    1202.7532    2.1914111    42.494802   0.10580621 
   68400   -952.43608     40.33692   -912.09916    1444.7222   -13659.034    2.1603619    39.974849   0.11060345 
   68500   -950.88951    39.646329   -911.24318    1419.9877   -3570.8909    2.1780868    38.717233   0.10177353 
   68600   -949.34958    44.992774    -904.3568     1611.478    9301.5827    2.2045315     36.34971   0.10699103 
   68700    -950.1108    41.335504    -908.7753    1480.4878     5302.573    2.1998825    39.499743   0.10248283 
   68800   -952.13955    40.069317   -912.07023    1435.1376   -6727.8378    2.1738681    37.920313  0.099352258 
   68900   -947.49035    43.914054   -903.57629    1572.8422   -6209.8282    2.1648211    43.063764   0.10210993 
   69000   -951.93763    45.046597   -906.89103    1613.4058    4574.9773    2.1987383    40.946481  0.088296753 
   69100   -952.09007    41.356684   -910.73339    1481.2464    3320.4015    2.1977561    36.779168   0.10041935 
   69200   -950.22235     43.33484   -906.88751    1552.0968   -1860.6044    2.1767804    38.103504    0.1084915 
   69300   -949.73122    46.099796   -903.63143    1651.1275   -6056.6717    2.1676585    39.876822   0.09717185 
   69400   -953.10855    41.724926   -911.38362    1494.4355    1172.7813    2.1948247    37.263956   0.10615848 
   69500   -952.73895    44.386971   -908.35198    1589.7803    2545.4874    2.1950843    39.721597   0.09302759 
   69600   -946.14833    42.493387   -903.65494     1521.959    219.07465    2.1770997    38.971453   0.10186352 
   69700   -953.16217    40.169804   -912.99237    1438.7367   -1215.7426     2.190604    41.205869   0.10987585 
   69800   -953.24779    42.869619   -910.37817    1535.4343   -3962.8581    2.1831764    40.963065   0.10242135 
   69900   -948.74383    42.570963   -906.17287    1524.7375   -17.987616    2.1825168    37.514491   0.10681912 
   70000   -957.57259    44.644061   -912.92853    1598.9884   -614.71695    2.1964127     37.67378  0.099542163 
   70100   -952.70308    40.021305   -912.68177     1433.418    1.3558801    2.1891005     40.35875  0.098291095 
   70200   -948.63271    41.032168   -907.60054    1469.6234   -1613.9414    2.1807606    35.624339   0.11376524 
   70300   -952.24008    42.425181    -909.8149    1519.5161     1590.668    2.1925588    38.230425   0.10223915 
[...]
  186800   -956.80892    40.964379   -915.84454    1467.1955    7016.3032    2.2209907    19.063793   0.11367353 
  186900   -949.63115    41.742378   -907.88877    1495.0606    5020.5631    2.2019881    18.616458   0.11562029 
  187000   -948.65252    40.426291   -908.22623    1447.9231   -5097.3273    2.1714067    16.697809   0.10367009 
  187100   -951.71627    40.243625   -911.47265    1441.3807   -8759.3827    2.1694032    19.058732   0.10208399 
  187200   -955.57761    42.085982   -913.49163    1507.3672     4146.936    2.2081979    16.318175   0.10012456 
  187300   -950.44278      45.9073   -904.53548     1644.233    5539.7477    2.1983538    17.749034   0.10811623 
  187400   -949.59766     41.30758   -908.29008    1479.4877   -4278.2076    2.1774145    17.432764   0.11258848 
  187500   -951.50881    39.781596   -911.72721    1424.8325    -7688.817    2.1695734    17.645575   0.11025445 
  187600   -948.74801    41.115474   -907.63254    1472.6072    4372.7139    2.1934692    18.580279   0.11724199 
  187700   -951.47786    47.719034   -903.75883    1709.1228    8414.8518    2.2057674    19.418984   0.10650305 
  187800    -956.2144    46.210304    -910.0041    1655.0855   -4948.0765    2.1829457      17.4547  0.092430453 
  187900   -953.79026     43.35231   -910.43795    1552.7225   -12255.335     2.162471     19.90299  0.098090802 
  188000   -946.99606    44.724711   -902.27135     1601.877   -1354.2116    2.1718784    18.431628   0.10391946 
  188100   -949.60678    40.869675   -908.73711    1463.8035    15988.679    2.2202827    15.151494  0.094865838 
  188200    -951.5127    40.954627   -910.55807    1466.8462    1405.6745    2.1948667    16.307289   0.10275618 
  188300   -947.61286    40.288826   -907.32403    1442.9996   -7421.4817    2.1630647    16.154578   0.10724676 
  188400   -946.43175    44.510624   -901.92112    1594.2091   -1559.4314    2.1717345    14.725591   0.10500634 
  188500   -951.61738    40.061762   -911.55562     1434.867    7040.0265    2.2082665    17.984009    0.1038342 
  188600   -951.11502     41.14889   -909.96613     1473.804    662.86702     2.190324    18.141373   0.10932252 
  188700   -948.73635    41.821225   -906.91513    1497.8846   -2000.3897    2.1761856    16.429293   0.10900546 
  188800    -951.5257    42.487025   -909.03868    1521.7312   -2436.5267      2.18027     18.14979   0.10396036 
  188900   -953.33602    39.269122    -914.0669    1406.4776    4741.5795    2.2072917     17.08289  0.099345592 
  189000   -950.39169    41.661368   -908.73033    1492.1591    6003.5897    2.2027046    17.938899   0.10050217 
  189100   -947.11398    39.215581    -907.8984    1404.5599   -1328.7719    2.1789602    17.181932  0.099753859 
  189200   -953.75854    37.923918   -915.83463    1358.2972   -7668.0564    2.1779447    16.656892  0.095589499 
  189300   -954.18998    42.566201   -911.62378     1524.567    -1631.091    2.1914659    20.080901     0.105688 
  189400   -950.95623    44.061358   -906.89487    1578.1181    9898.3534    2.2096152     17.51161  0.093395235 
  189500   -952.68342    41.386799   -911.29662     1482.325    1438.2011     2.196685    18.521434   0.10292099 
  189600   -952.82284    36.591979   -916.23086     1310.592   -6828.3731    2.1767078    15.811888   0.10528763 
  189700   -947.19424    39.406409   -907.78783    1411.3946   -4948.1051    2.1712782     18.57213   0.11997195 
  189800   -948.85223    40.595086   -908.25714    1453.9687     8520.607    2.2074685    17.480635   0.11328383 
  189900   -953.50014    40.609301   -912.89084    1454.4779    6416.6037    2.2139313    17.815042   0.10371499 
  190000    -950.3334    43.112118   -907.22128    1544.1197   -5647.5194    2.1760854    17.135016   0.10981445 
  190100   -950.67303    44.654564   -906.01847    1599.3645   -6802.6013    2.1703831    17.033595   0.10219193 
  190200   -948.80806    38.991344   -909.81671    1396.5285    2005.4868    2.1928398    17.611392   0.11585392 
  190300   -953.42653    42.452651   -910.97388       1520.5    4324.6687    2.2058439     15.75199   0.10725248 
  190400   -947.50329    45.796067   -901.70722     1640.249   -1139.7799    2.1742017    19.281073   0.11306165 
  190500   -948.83618    40.120082    -908.7161    1436.9558   -457.51288    2.1843134    15.648034   0.11054306 
  190600   -952.43485    41.796172   -910.63867    1496.9873    -641.7325    2.1902142    18.077779     0.117462 
  190700   -945.22503    40.459099   -904.76593    1449.0982    2874.5182    2.1860512    18.576549   0.13712909 
  190800   -945.94731    40.570928   -905.37638    1453.1035     107.4702    2.1784662    19.616138   0.11713767 
  190900    -952.7163    41.584928   -911.13137    1489.4213   -1930.4548    2.1851952    16.545102   0.10054081 
  191000   -950.99544    43.208625   -907.78681    1547.5763    1122.7411    2.1904966    18.400269  0.097585533 
  191100   -949.04971    45.430895   -903.61881    1627.1699    1089.8473    2.1855288    18.055708   0.10708544 
  191200   -952.69885    39.737465   -912.96138    1423.2519    1357.7117     2.196458    16.129762   0.10214574 
  191300   -953.55917    42.884196   -910.67497    1535.9564    -6359.982    2.1757852    16.706356  0.099870709 
  191400   -948.84157    41.393866    -907.4477    1482.5782   -1879.4702    2.1805361    18.074577   0.11363104 
  191500   -952.34054    42.041216   -910.29932    1505.7639     4326.535    2.2064223    16.173903   0.11302496 
  191600   -953.88556    39.339108   -914.54646    1408.9842     4992.221    2.2100576    17.933542   0.11533905 
  191700   -952.33991    43.722453   -908.61746    1565.9797   -7911.0919     2.172021    19.117468    0.1198418 
  191800    -949.8349    41.465926   -908.36897    1485.1591   -8777.7389    2.1624854    19.016668   0.11677838 
  191900    -955.9002    40.213131   -915.68707    1440.2885     6687.012    2.2128817    18.987393   0.09502587 
  192000   -952.65196     42.93548   -909.71648    1537.7932    12762.319    2.2226135    15.316641   0.10491812 
  192100   -948.44055    40.454952    -907.9856    1448.9497   -2520.3035    2.1811938    18.312988   0.10837134 
  192200   -950.84957    39.504247   -911.34533    1414.8989   -14925.176    2.1512721    16.722728   0.10929723 
  192300   -953.00748    40.213245   -912.79424    1440.2926   -935.43749    2.1912816    20.450123  0.090901248 
  192400    -949.6159     45.09964   -904.51626    1615.3056    7997.1493    2.2027733    17.221752   0.10995833 
  192500   -951.90518    43.765257   -908.13992    1567.5128    -376.7255    2.1901614    16.310722   0.10783613 
  192600    -955.0938    43.510821   -911.58298    1558.3998   -6957.0489    2.1776329    18.172802   0.10408154 
  192700   -950.25132    43.414006   -906.83732    1554.9322   -664.50722    2.1810262    18.151509    0.1262682 
  192800   -947.12327    42.892743   -904.23053    1536.2625    4329.1689    2.1885089    18.496867   0.11093139 
  192900   -949.43721      39.5086   -909.92861    1415.0548    2238.8497    2.1890403    17.185606   0.10304445 
  193000   -950.53486    40.417167    -910.1177    1447.5964   -1616.5586    2.1832131    16.894481   0.10831252 
  193100   -948.13774    46.557799   -901.57994    1667.5315   -1941.5648    2.1740172    15.412916    0.1017451 
  193200   -951.23881    41.914415    -909.3244    1501.2224    6110.4101    2.2031386    16.989649  0.096690037 
  193300   -954.72983    44.382557   -910.34727    1589.6223   -2011.1221    2.1911982    16.793795  0.093364574 
  193400   -946.71298     41.99584   -904.71714    1504.1387   -4682.6883    2.1661568    17.472463   0.10139913 
  193500   -950.46978    44.587885    -905.8819    1596.9763   -4902.6316    2.1740615     14.84862   0.11125644 
  193600   -952.92895    41.815199   -911.11375    1497.6688    7280.4526    2.2087775    18.014013   0.10400019 
  193700   -952.54313    45.177879   -907.36525    1618.1078    10534.284    2.2143711    20.235191     0.110248 
  193800   -948.59857    40.780477   -907.81809    1460.6088   -8359.8262    2.1625909     17.07656    0.1218036 
  193900   -956.40438    40.402051   -916.00233    1447.0549   -13608.723    2.1650711    15.999048  0.096323456 
  194000   -954.55231    43.911664   -910.64065    1572.7566    3684.9412    2.2041502    15.663443   0.10347003 
  194100   -949.85005    43.225802   -906.62425    1548.1915    12769.828    2.2180437    18.346806   0.11201034 
  194200   -952.80362    41.236073   -911.56755    1476.9266   -1144.0612    2.1878855    17.152125  0.099791722 
  194300   -955.13771    39.860922   -915.27679    1427.6737   -9481.7709    2.1800436    17.188195   0.12336845 
  194400   -949.70355    41.673084   -908.03047    1492.5787    -353.3815    2.1854004    20.046643   0.11805273 
  194500   -949.99531     41.43415   -908.56116     1484.021    9069.3696    2.2055277    17.658657   0.10855782 
  194600   -956.06763    40.898333   -915.16929      1464.83    2417.2104    2.2085907    15.910726   0.11019205 
  194700   -948.29489    40.128417   -908.16647    1437.2544   -5142.1939    2.1782724     18.42918   0.11748417 
  194800   -949.82552    42.319132   -907.50639    1515.7179   -2467.7658    2.1833851    19.759862   0.12966076 
  194900   -953.93472     43.18602    -910.7487    1546.7666    1599.9348    2.2007277    17.141978   0.11183962 
  195000   -952.80107    38.593705   -914.20736    1382.2865    3610.4229    2.2079594    16.555427   0.10851079 
  195100   -948.91589    44.226177   -904.68971    1584.0213   -5216.4049     2.174963    16.246299   0.11750076 
  195200   -947.78645    40.160436   -907.62601    1438.4012    138.84762    2.1843619    14.450612   0.11956393 
  195300   -952.04903    41.489647   -910.55938    1486.0087    3526.7335     2.202743    17.737326   0.11687081 
  195400   -952.40743    41.213397   -911.19404    1476.1144    4289.5902    2.2043353    16.495308   0.12102413 
  195500   -946.39732    43.993066   -902.40425    1575.6721   -10261.014    2.1528449    16.189604   0.11749183 
  195600   -950.07847    40.739779   -909.33869    1459.1511   -9778.8484    2.1657452    16.523326   0.11461697 
  195700   -953.51137    44.021606   -909.48976    1576.6943    10004.619    2.2212989     16.49376   0.11293883 
  195800   -951.67124    44.090898   -907.58035    1579.1761    11672.103     2.221202    16.424357   0.11587062 
  195900   -946.58045    44.496844   -902.08361    1593.7156   -10797.383    2.1510646    17.639493   0.13335175 
  196000   -951.60286    40.678131   -910.92473    1456.9431   -10893.917     2.167767    16.168751   0.11130051 
  196100   -948.46297    39.094393   -909.36857    1400.2194    5580.5387    2.2019692    17.921856   0.11963535 
  196200   -949.04992    43.656817    -905.3931    1563.6289    9037.9687    2.2052208    18.181536   0.12618966 
  196300   -943.56082    41.115762   -902.44506    1472.6175   -2607.1399    2.1699102    19.040286   0.13427651 
  196400   -951.40201    40.026006     -911.376    1433.5864   -5119.2555    2.1815341    17.032915   0.12074487 
  196500   -952.06858    42.506868   -909.56171    1522.4419    2100.1417    2.1985252    17.440796   0.11697717 
  196600   -947.58763    40.474716   -907.11292    1449.6575    5850.4694    2.1989461    16.181951     0.124262 
  196700   -943.89076    43.303582   -900.58717    1550.9773    21.688625    2.1720484    17.835678   0.13412038 
  196800   -945.92102    40.504789   -905.41623    1450.7346   -4446.7366    2.1666866    19.621761   0.12442999 
  196900   -949.73711    40.929044   -908.80807    1465.9299    -3014.889    2.1811215    17.481522   0.12196697 
  197000   -951.64857    42.846179   -908.80239    1534.5947     6211.286    2.2073443    16.517432   0.12197432 
  197100   -950.97339    39.251296    -911.7221    1405.8391    5668.3969    2.2057657    17.140045   0.10871682 
  197200   -955.65355    36.489949    -919.1636    1306.9376    -7871.937    2.1814691    18.100792   0.11145728 
  197300   -949.25422    38.397292   -910.85692    1375.2518   -11774.377    2.1567495    25.199026   0.11283049 
  197400   -953.14714    44.551522   -908.59562    1595.6739    9982.5326    2.2156397    16.538113   0.11278547 
  197500   -948.32892    40.155991   -908.17292     1438.242    16533.223    2.2262187    16.237825   0.11230298 
  197600   -946.44062    43.645679   -902.79494    1563.2299    -5683.214    2.1646021    17.971904   0.10875783 
  197700   -949.81773    46.745853   -903.07188    1674.2669   -11802.672    2.1523412      18.7121   0.10739027 
  197800   -951.09331    42.554156   -908.53915    1524.1355   -45.691667    2.1859192     17.85784   0.11116352 
  197900   -952.54051    42.998896   -909.54162    1540.0645     6224.679    2.2056781     17.66069   0.10441969 
  198000   -952.52068    43.379136   -909.14154    1553.6833   -71.879067    2.1934544    15.558901    0.1137388 
  198100   -945.24378    44.179791   -901.06399    1582.3599   -8036.5063     2.153666    18.154215    0.1326683 
  198200   -951.98908    43.167967   -908.82111      1546.12    -2706.608    2.1853001    21.304731   0.10731347 
  198300   -950.93468    41.244719   -909.68996    1477.2362    7911.1539    2.2114676    20.929241   0.11977676 
  198400   -950.07714    42.783306   -907.29383    1532.3429     6061.148    2.2003207    18.410985    0.1081458 
  198500   -948.43532    46.487758   -901.94756    1665.0229    -9383.526    2.1563517    16.236281   0.11591656 
  198600    -952.5973    42.132394   -910.46491    1509.0296   -5960.9934    2.1787997    16.986201   0.10693664 
  198700   -949.55557    40.584572     -908.971    1453.5922    8866.0528    2.2062336    15.610799   0.10962994 
  198800   -949.79593    45.813225   -903.98271    1640.8636    6085.4552    2.2006754    15.394602   0.11909577 
  198900   -951.05546    45.290519   -905.76494    1622.1421   -7290.2324    2.1684241    15.508803   0.10977359 
  199000   -952.49687    41.317515   -911.17935    1479.8436   -8106.0557    2.1743197    18.828176   0.11374475 
  199100   -948.84407    40.762419   -908.08165     1459.962    6054.5966    2.2005543    19.726038     0.116482 
  199200    -951.5029    45.316169   -906.18673    1623.0608    3935.9645    2.2015479    17.938444   0.11930489 
  199300   -953.31624    40.976315   -912.33993     1467.623   -4578.7004     2.182987    18.913117   0.10637597 
  199400   -953.62096    40.264757   -913.35621    1442.1376   -4696.9612    2.1839474    16.606643    0.1082896 
  199500   -951.81792    42.296099   -909.52182    1514.8929    2883.9229    2.1987271    13.506464   0.11010609 
  199600   -950.35532    43.512784   -906.84254    1558.4701    3253.8273    2.1962708    15.135709   0.11065306 
  199700   -952.02173    40.855288   -911.16644    1463.2882   -1835.4354    2.1868241    16.312317   0.11267789 
  199800   -952.97703    38.917156   -914.05987    1393.8714   -4696.6824     2.187586    20.454974   0.10803812 
  199900   -952.57878    44.014758   -908.56402     1576.449    43.307393    2.1941059    17.314308   0.11904021 
  200000   -948.04676    40.351788   -907.69497    1445.2547    4469.7334    2.1965472    16.538971   0.11615294 
  200100   -953.38568    37.436223   -915.94946    1340.8297     864.5963     2.196878    16.948399   0.10323331 
  200200   -948.88138    38.808447   -910.07294    1389.9778   -7507.5726    2.1698436    18.274425    0.1188401 
  200300   -949.40209     41.80335   -907.59874    1497.2444    661.44512    2.1863503    16.423673   0.10880445 
  200400   -952.71608    41.629145   -911.08693     1491.005    8629.6847    2.2142882    17.252361   0.11110962 
  200500   -956.84305    40.683615   -916.15943    1457.1396     729.2161    2.2073078    14.863372    0.1057972 
  200600   -947.38773    40.282632    -907.1051    1442.7778   -11610.087    2.1506635    16.671074   0.11494269 
  200700   -949.84979    40.380965   -909.46883    1446.2997   -6247.2917    2.1704379    17.830406   0.10920821 
  200800   -954.48823    44.243753   -910.24447    1584.6508    14965.433    2.2314824    16.345623  0.097745589 
  200900   -945.24218    43.932702   -901.30947      1573.51    8856.6322    2.2008406    16.903542    0.1284051 
  201000    -946.6989    40.224274   -906.47462    1440.6876   -6868.6351    2.1671001     16.28348   0.11499893 
  201100   -952.42197    41.730207   -910.69177    1494.6247   -6644.3977    2.1749407    15.792963   0.11403445 
  201200   -950.07122    41.995175   -908.07604    1504.1149    6769.8146    2.2012608    17.771693   0.11282197 
  201300   -948.14617    46.501443   -901.64473     1665.513    3853.7683    2.1881352    16.989994   0.10677241 
  201400   -953.66731     43.41284   -910.25447    1554.8905   -3036.5281    2.1894754    15.578514   0.11249483 
  201500   -950.70284    40.919531   -909.78331    1465.5892   -3933.4267    2.1809184    17.168012   0.10320414 
  201600   -949.11252    46.077461   -903.03506    1650.3275    970.96754    2.1814539    15.941773   0.10798691 
  201700   -951.09741    41.786792   -909.31062    1496.6513     3798.337    2.1991664    18.235629    0.1063004 
  201800   -949.35348    38.491654   -910.86183    1378.6314    659.52724    2.1897675     19.12233   0.10728677 
  201900   -950.61981    42.809522   -907.81029    1533.2818    -5426.413    2.1790934     17.18386   0.11502372 
  202000   -947.48289    44.204904   -903.27799    1583.2594    747.56694    2.1832299    21.455103   0.11662998 
  202100   -952.69096    40.085171   -912.60579    1435.7055     8570.526    2.2176693    17.285127   0.11321952 
  202200   -948.72099    38.293751   -910.42724    1371.5433   -2357.7362    2.1830878    19.467778   0.10407774 
  202300   -949.75438    41.557098   -908.19728    1488.4245   -13152.461    2.1550366    16.666604   0.12045138 
  202400   -948.44064    43.608401   -904.83224    1561.8948    1533.5721    2.1848683    15.354184   0.11074349 
  202500    -957.2338    43.471438   -913.76236    1556.9893    14617.549    2.2368896    16.860421   0.10315111 
  202600   -955.14069    42.895153   -912.24554    1536.3488   -4175.4718    2.1891248    16.870253   0.11054899 
  202700     -949.949    40.779491   -909.16951    1460.5735   -11461.387    2.1587862    18.842308   0.10016978 
  202800    -945.7486    39.343114   -906.40548    1409.1277    1285.5766    2.1839125    18.354528   0.12181471 
  202900   -953.62405    38.454282   -915.16977    1377.2929    7909.1928    2.2193133    16.456717   0.10306633 
  203000   -950.43486    39.852111   -910.58275    1427.3581    1379.4979    2.1932831    18.199559   0.10629922 
  203100   -949.61211    41.853575   -907.75853    1499.0433     -5103.64    2.1747645    16.459681    0.1126626 
  203200   -953.79404    42.323836    -911.4702    1515.8863    -3805.069    2.1873779    17.255319   0.11283615 
Loop time of 143.389 on 1 procs for 200000 steps with 217 atoms

Performance: 361.533 ns/day, 0.066 hours/ns, 1394.802 timesteps/s
100.0% CPU use with 1 MPI tasks x no OpenMP threads

MPI task timing breakdown:
Section |  min time  |  avg time  |  max time  |%varavg| %total
---------------------------------------------------------------
Pair    | 139.53     | 139.53     | 139.53     |   0.0 | 97.31
Neigh   | 0.82701    | 0.82701    | 0.82701    |   0.0 |  0.58
Comm    | 0.86503    | 0.86503    | 0.86503    |   0.0 |  0.60
Output  | 0.06664    | 0.06664    | 0.06664    |   0.0 |  0.05
Modify  | 1.809      | 1.809      | 1.809      |   0.0 |  1.26
Other   |            | 0.2966     |            |       |  0.21

Nlocal:    217 ave 217 max 217 min
Histogram: 1 0 0 0 0 0 0 0 0 0
Nghost:    957 ave 957 max 957 min
Histogram: 1 0 0 0 0 0 0 0 0 0
Neighs:    4181 ave 4181 max 4181 min
Histogram: 1 0 0 0 0 0 0 0 0 0
FullNghs:  8362 ave 8362 max 8362 min
Histogram: 1 0 0 0 0 0 0 0 0 0

Total # of neighbors = 8362
Ave neighs/atom = 38.5346
Neighbor list builds = 1399
Dangerous builds = 8
Total wall time: 0:02:25
