LAMMPS (3 Mar 2020)
Reading data file ...
  orthogonal box = (0 0 0) to (20.45 20.45 20.45)
  1 by 1 by 1 MPI processor grid
  reading atoms ...
  500 atoms
  read_data CPU = 0.00126741 secs
Reading potential file /usr/share/lammps-stable/potentials/Ag_u3.eam with DATE: 2007-06-11
Neighbor list info ...
  update every 1 steps, delay 10 steps, check yes
  max neighbors/atom: 2000, page size: 100000
  master list distance cutoff = 7.55
  ghost atom cutoff = 7.55
  binsize = 3.775, bins = 6 6 6
  2 neighbor lists, perpetual/occasional/extra = 1 1 0
  (1) pair eam, perpetual
      attributes: half, newton on
      pair build: half/bin/atomonly/newton
      stencil: half/bin/3d/newton
      bin: standard
  (2) compute rdf, occasional, copy from (1)
      attributes: half, newton on
      pair build: copy
      stencil: none
      bin: none
Setting up Verlet run ...
  Unit style    : metal
  Current step  : 0
  Time step     : 0.005
Per MPI rank memory allocation (min/avg/max) = 3.769 | 3.769 | 3.769 Mbytes
Step PotEng KinEng TotEng Temp Press Density c_msdall[4] 
       0        -1425    174.15219   -1250.8478         2700    21750.385    10.472245            0 
     100   -1308.4956    106.58382   -1201.9118    1652.4415    97949.872    10.472245   0.15877537 
     200   -1271.4204     146.8607   -1124.5597    2276.8814    127841.03    10.472245   0.24371315 
     300    -1234.949    177.33196    -1057.617    2749.2981     155214.2    10.472245   0.34760828 
     400    -1223.122    181.93602    -1041.186    2820.6779    162567.84    10.472245   0.49707274 
     500    -1233.029    173.31396    -1059.715    2687.0042    156751.69    10.472245   0.40927422 
     600   -1233.3121    163.80634   -1069.5057    2539.6012    155672.68    10.472245   0.45030717 
     700   -1229.0504    180.15348   -1048.8969     2793.042    159518.07    10.472245   0.55603157 
     800   -1210.2839    174.04741   -1036.2365    2698.3755    172238.86    10.472245   0.71771365 
     900   -1200.3974    174.53103   -1025.8664    2705.8734    177815.88    10.472245    1.2339304 
    1000   -1202.3702    188.75125    -1013.619    2926.3391    179250.17    10.472245    2.0138362 
    1100   -1178.7732    167.99343   -1010.7797    2604.5166    191181.03    10.472245    3.4368972 
    1200   -1175.6908    174.82245   -1000.8684    2710.3915    196768.55    10.472245    5.2234019 
    1300   -1180.9779    167.63836   -1013.3395    2599.0117    190497.42    10.472245    6.6491221 
    1400   -1185.5729    161.61629   -1023.9566    2505.6474    184968.17    10.472245    8.1624785 
    1500   -1186.6306    186.01577   -1000.6149     2883.929    189295.94    10.472245     9.888139 
    1600   -1188.7813     172.0626   -1016.7187    2667.6036    185690.28    10.472245    11.308247 
    1700   -1178.2568    179.31186   -998.94494    2779.9938    193141.55    10.472245    13.036741 
    1800   -1182.6139    184.94513   -997.66878    2867.3303    190278.92    10.472245    14.468606 
    1900   -1181.8395    168.35927   -1013.4802    2610.1883    189427.76    10.472245    15.597645 
    2000   -1174.7918     178.7416    -996.0502    2771.1527    197377.21    10.472245    16.357082 
    2100   -1176.5568    179.82834   -996.72843    2788.0011    194736.21    10.472245    17.958963 
    2200   -1188.7617    176.91946   -1011.8422    2742.9028    186625.98    10.472245    19.503323 
    2300   -1190.9454    184.57971   -1006.3657    2861.6649    184986.81    10.472245    21.446204 
    2400   -1181.7883    182.51478    -999.2735    2829.6508    193250.65    10.472245    22.510751 
    2500   -1185.5738    170.27242   -1015.3014    2639.8492     186129.4    10.472245    24.487675 
    2600   -1187.7403    184.18302   -1003.5573    2855.5147    189363.06    10.472245    26.495256 
    2700   -1163.8157    176.40262   -987.41306    2734.8898    201931.83    10.472245    27.893469 
    2800   -1184.6893    173.68001   -1011.0093    2692.6794    188136.72    10.472245     29.57217 
    2900   -1177.3318    171.50237   -1005.8294     2658.918     192822.5    10.472245    31.138379 
    3000   -1179.0302    176.26671   -1002.7635    2732.7828    193999.64    10.472245    32.813893 
    3100   -1187.6038    173.39594   -1014.2079    2688.2753    186263.82    10.472245    34.733661 
    3200   -1179.5043    176.37455   -1003.1297    2734.4547    190880.87    10.472245    36.919634 
    3300   -1183.9899     177.5465   -1006.4434    2752.6242    188524.36    10.472245    38.192411 
    3400    -1191.966    171.73207   -1020.2339    2662.4791    183069.48    10.472245    39.483589 
    3500   -1185.9029    168.27547   -1017.6275    2608.8891     186477.9    10.472245    41.011276 
    3600    -1172.514    172.87144   -999.64255    2680.1436    195696.69    10.472245    42.966763 
    3700   -1187.5051    167.27829   -1020.2268    2593.4292    187468.36    10.472245    45.124678 
    3800   -1186.2745    173.61697   -1012.6575    2691.7021    189171.95    10.472245    46.936125 
    3900   -1174.6236    169.55568   -1005.0679    2628.7372    195935.53    10.472245    49.244957 
    4000   -1186.2575    166.70036   -1019.5572    2584.4691    187578.43    10.472245    50.998678 
    4100   -1177.6039    174.63816   -1002.9658    2707.5342    192922.71    10.472245    52.083706 
    4200   -1182.0432    177.15198   -1004.8912    2746.5077    189276.88    10.472245    53.593634 
    4300   -1185.3849    169.48957   -1015.8954    2627.7122    187145.89    10.472245     54.23324 
    4400   -1169.3249    178.10288   -991.22206    2761.2502    198466.03    10.472245    56.075842 
    4500   -1174.8646    166.84288   -1008.0217    2586.6788    195085.92    10.472245    57.811716 
    4600   -1187.3866    173.88689   -1013.4997    2695.8868    186981.01    10.472245      59.2731 
    4700    -1189.911    183.57546   -1006.3356    2846.0954    187061.09    10.472245    60.211783 
    4800   -1184.1871    180.66925   -1003.5178    2801.0384    190516.54    10.472245    61.037727 
    4900    -1196.103    174.19264   -1021.9104    2700.6271    182829.12    10.472245    63.286192 
    5000   -1187.5979    174.90764   -1012.6902    2711.7123    188052.55    10.472245    64.133268 
    5100   -1181.9878    173.24786     -1008.74    2685.9794    189047.15    10.472245     65.05528 
    5200    -1181.891    188.19988   -993.69109    2917.7909    190613.97    10.472245    65.718831 
    5300   -1180.2292    172.92633   -1007.3028    2680.9947    190783.84    10.472245    65.818324 
    5400   -1185.5833    172.47213   -1013.1112    2673.9529    187939.33    10.472245    67.083497 
    5500   -1177.4435    174.74078   -1002.7027    2709.1252    193163.58    10.472245    68.506194 
    5600    -1182.777    183.51172   -999.26527    2845.1071    191336.74    10.472245    69.895347 
    5700   -1187.0728    173.66254   -1013.4103    2692.4085    187697.51    10.472245     71.56398 
    5800   -1174.8473     172.3281   -1002.5192    2671.7198     193948.2    10.472245    73.152642 
    5900   -1185.2981    168.19483   -1017.1033    2607.6389    187509.61    10.472245    74.705312 
    6000   -1182.7836    174.22158    -1008.562    2701.0757    191253.94    10.472245    76.272304 
    6100   -1171.3642    168.53354   -1002.8306    2612.8902    195567.47    10.472245    78.066629 
    6200   -1188.2485    169.32743   -1018.9211    2625.1985    185819.34    10.472245    79.408817 
    6300   -1190.6669    170.52416   -1020.1427    2643.7521    183684.84    10.472245    81.049755 
    6400   -1179.4774    173.16184   -1006.3155    2684.6459     192097.4    10.472245    82.070476 
    6500   -1181.6985    168.59735   -1013.1011    2613.8795    189531.72    10.472245    83.880922 
    6600   -1191.2761    166.14326   -1025.1329     2575.832    184063.63    10.472245    84.975302 
    6700   -1186.5014    174.97438    -1011.527    2712.7469    189051.94    10.472245    87.315921 
    6800   -1188.7592    184.59815   -1004.1611    2861.9507    187942.12    10.472245    89.760734 
    6900   -1187.4921    163.09085   -1024.4012    2528.5084    185987.03    10.472245    90.952496 
    7000   -1183.7926    177.53854   -1006.2541    2752.5008    189324.55    10.472245    92.291382 
    7100    -1189.523    180.06454   -1009.4584    2791.6632    187101.32    10.472245    93.223153 
    7200    -1183.751    166.34447   -1017.4065    2578.9516    189424.12    10.472245    94.729888 
    7300   -1180.9884    182.80848   -998.17989    2834.2044     193595.4    10.472245    96.144737 
    7400   -1185.6722    168.84628   -1016.8259    2617.7388    187632.53    10.472245    97.224306 
    7500   -1176.3621    175.08286   -1001.2793    2714.4288    193664.36    10.472245    98.909824 
    7600   -1173.1199    175.58266   -997.53727    2722.1776    195924.45    10.472245    98.978721 
    7700   -1186.0109    173.03317   -1012.9778     2682.651    188715.34    10.472245    99.995357 
    7800     -1182.88    183.36887    -999.5111    2842.8924    192029.66    10.472245    102.01655 
    7900   -1175.5675    167.65062   -1007.9169    2599.2017    193128.91    10.472245    103.54023 
    8000   -1187.3508    173.42117   -1013.9296    2688.6665    187209.31    10.472245    104.49945 
    8100   -1183.9358    179.05812   -1004.8777    2776.0599    191207.82    10.472245    106.48764 
    8200   -1175.6565    171.96958   -1003.6869    2666.1614    196305.53    10.472245    108.26507 
    8300   -1187.4309    174.89758   -1012.5333    2711.5562     187355.9    10.472245    110.38671 
    8400   -1179.5526    185.87367   -993.67895    2881.7261    193155.71    10.472245    112.40377 
    8500    -1179.499    172.65642   -1006.8426      2676.81    193264.39    10.472245    112.72533 
    8600   -1182.5718    166.66939   -1015.9024     2583.989    187741.79    10.472245    114.06335 
    8700   -1190.2611    165.66495   -1024.5961    2568.4165    186015.18    10.472245    116.46349 
    8800   -1178.1502    171.79767   -1006.3525    2663.4963    192231.83    10.472245    118.81089 
    8900   -1186.1259    172.53557   -1013.5903    2674.9363    186939.55    10.472245    120.18686 
    9000   -1188.2525    168.37905   -1019.8735    2610.4951    185101.34    10.472245     121.3064 
    9100   -1184.8567    182.84126   -1002.0155    2834.7125    189666.68    10.472245    122.06014 
    9200   -1180.7775    162.77159    -1018.006    2523.5588    189837.19    10.472245    122.71016 
    9300   -1174.8762    164.89345   -1009.9828    2556.4554    193125.71    10.472245    124.09907 
    9400   -1183.3663    182.11005   -1001.2562    2823.3761    191389.47    10.472245    125.27939 
    9500   -1184.8626    168.99051   -1015.8721    2619.9748    189334.79    10.472245    127.02841 
    9600   -1178.0377    171.46918   -1006.5685    2658.4035    193928.97    10.472245    130.04472 
    9700   -1196.0541    165.93498   -1030.1191     2572.603    181860.33    10.472245    132.39616 
    9800   -1191.2533    178.25992   -1012.9933    2763.6848     184773.9    10.472245    133.46395 
    9900   -1182.6838    178.68933   -1003.9944    2770.3423    191769.46    10.472245    134.42704 
   10000   -1184.4987    185.49882   -998.99987    2875.9145    192572.47    10.472245    135.64722 
   10100   -1191.3292    172.73536   -1018.5939    2678.0338    186481.94    10.472245    138.83507 
   10200   -1187.4577    178.26542   -1009.1923    2763.7702    187688.97    10.472245    140.06652 
   10300    -1179.315    182.72035   -996.59463     2832.838    193540.05    10.472245    141.49863 
   10400   -1184.2487    172.02036   -1012.2283    2666.9487    190254.83    10.472245    143.39711 
   10500    -1187.938    182.96478   -1004.9733    2836.6276    190166.86    10.472245    144.21583 
   10600   -1184.5095    183.66912   -1000.8404    2847.5473     192157.5    10.472245    145.21783 
   10700   -1186.0903    165.45569   -1020.6346    2565.1722    187494.69    10.472245    146.06459 
   10800   -1181.7974    180.79042   -1001.0069     2802.917    190464.76    10.472245    146.24855 
   10900   -1178.8922    171.83312   -1007.0591    2664.0458    192661.75    10.472245    148.91813 
   11000   -1182.6026    174.53104   -1008.0715    2705.8736    192250.82    10.472245    150.24051 
   11100   -1173.6822    189.79031   -983.89188    2942.4483    198044.26    10.472245    151.66956 
   11200    -1183.641    176.43497    -1007.206    2735.3914    189860.06    10.472245    152.28884 
   11300   -1180.0804    168.04549   -1012.0349    2605.3237    190850.35    10.472245    154.32778 
   11400   -1177.0408    185.15341   -991.88737    2870.5594    195798.77    10.472245    155.46965 
   11500   -1187.2538    175.94257   -1011.3112    2727.7574    188135.34    10.472245    157.27221 
   11600   -1180.6445     171.6278   -1009.0167    2660.8627     191376.5    10.472245     159.4154 
   11700   -1171.5112     168.9043   -1002.6069    2618.6384    195520.89    10.472245     161.6785 
   11800   -1192.0116    171.51808   -1020.4935    2659.1615    184823.39    10.472245    162.99237 
   11900   -1183.6896    179.84634   -1003.8433    2788.2803    190342.03    10.472245    163.93791 
   12000   -1188.7817    178.19388   -1010.5878    2762.6611    185847.95    10.472245    164.94561 
   12100   -1180.0055    171.99157   -1008.0139    2666.5024    191340.66    10.472245    165.96027 
   12200   -1170.1182    180.58743   -989.53079    2799.7698    198365.59    10.472245    168.47951 
   12300   -1190.2295    186.85528   -1003.3742    2896.9446     189333.6    10.472245     170.7401 
   12400     -1186.62    175.93017   -1010.6899    2727.5652    187907.46    10.472245    173.31361 
   12500   -1181.3488    193.91697   -987.43178    3006.4268    194123.16    10.472245    176.41041 
   12600   -1177.1662    169.49419    -1007.672    2627.7838    192475.73    10.472245    177.16073 
   12700   -1181.8133    168.95934    -1012.854    2619.4917    190126.99    10.472245    179.85546 
   12800   -1186.5424    163.52199   -1023.0205    2535.1928    186275.96    10.472245    181.89407 
   12900   -1176.8043    173.60965   -1003.1946    2691.5886    193526.95    10.472245    184.23277 
   13000   -1185.4987    173.90958   -1011.5891    2696.2387    187124.38    10.472245    184.46324 
   13100   -1185.5408    166.91269   -1018.6281     2587.761    187307.66    10.472245    184.66524 
   13200   -1184.9068    177.78133   -1007.1255     2756.265    189828.55    10.472245    184.82873 
   13300   -1183.0038    176.07763   -1006.9262    2729.8513    191057.31    10.472245    186.17437 
   13400   -1189.2494    172.01161   -1017.2378    2666.8131     187735.4    10.472245     190.2954 
   13500    -1180.799    178.95149   -1001.8475    2774.4068    192734.33    10.472245    192.72217 
   13600   -1195.0178    174.30482    -1020.713    2702.3663    182534.51    10.472245    192.92434 
   13700   -1181.2019     167.5945   -1013.6074    2598.3317    190061.69    10.472245    195.04641 
   13800   -1164.9298    158.08571   -1006.8441    2450.9104    199076.09    10.472245    195.48731 
   13900   -1189.5125    165.77549    -1023.737    2570.1302    182965.24    10.472245    196.01493 
   14000    -1185.186    176.48689   -1008.6991    2736.1965     188646.8    10.472245    196.97385 
   14100   -1178.3678    178.53516   -999.83267     2767.952     191589.4    10.472245    197.99646 
   14200   -1181.4577    163.99357   -1017.4641     2542.504    190521.61    10.472245    199.93737 
   14300   -1181.4945    182.65922   -998.83533    2831.8902    192804.04    10.472245    201.19712 
   14400   -1178.3527    175.47891   -1002.8738     2720.569    194488.68    10.472245    202.08161 
   14500   -1183.1167    174.62795   -1008.4887    2707.3761    190809.22    10.472245    201.61129 
   14600   -1188.4822    175.53642   -1012.9458    2721.4606    186786.89    10.472245    204.11883 
   14700   -1181.9235    171.97508   -1009.9485    2666.2467     191175.6    10.472245    205.03425 
   14800   -1181.9378    186.23121   -995.70658    2887.2692    192673.58    10.472245    206.24021 
   14900   -1182.9255    167.65755   -1015.2679    2599.3091     188637.9    10.472245    207.84252 
   15000   -1187.4531    169.54332   -1017.9098    2628.5455    186742.49    10.472245    209.09063 
   15100   -1180.2344    167.21847   -1013.0159    2592.5018    191979.68    10.472245    210.45154 
   15200   -1182.7059    175.78471   -1006.9212      2725.31    190893.56    10.472245    213.03612 
   15300    -1184.925    174.06739   -1010.8577    2698.6853    188547.92    10.472245     214.9117 
   15400   -1199.2745    182.80672   -1016.4678    2834.1771    181152.84    10.472245    216.45595 
   15500   -1176.9258    174.45019   -1002.4756    2704.6201     192933.8    10.472245    216.64938 
   15600   -1189.3944     168.6957   -1020.6987    2615.4042    185876.26    10.472245    218.07258 
   15700    -1179.964    172.60393   -1007.3601    2675.9962    191711.44    10.472245    218.16892 
   15800   -1179.5079    179.67888   -999.82906    2785.6839    191711.94    10.472245    219.21305 
   15900   -1188.3914    172.68641   -1015.7049     2677.275    187184.83    10.472245    218.62657 
   16000   -1179.6963     168.2854   -1011.4109    2609.0431    191977.06    10.472245    219.72245 
   16100   -1168.7909    183.59029   -985.20059    2846.3252    199691.02    10.472245    221.05545 
   16200    -1177.078    178.58186   -998.49617    2768.6761    194633.32    10.472245    222.46379 
   16300   -1186.8888    170.00903   -1016.8797    2635.7657    185552.52    10.472245    225.28385 
   16400   -1183.6799    180.11183    -1003.568    2792.3964    189003.34    10.472245    228.32031 
   16500   -1187.8532    185.21503   -1002.6382    2871.5146    189297.27    10.472245    230.45429 
   16600   -1187.2735    175.41682   -1011.8567    2719.6064    185238.19    10.472245    231.42911 
   16700   -1188.1833    176.29923    -1011.884     2733.287    186850.85    10.472245    233.80299 
   16800   -1191.5291    170.16225   -1021.3668    2638.1412    183007.08    10.472245    234.19948 
   16900   -1175.2743    171.30511   -1003.9692    2655.8597    193947.09    10.472245    234.36474 
   17000   -1190.1488    173.84403   -1016.3048    2695.2223     185635.4    10.472245     236.9729 
   17100   -1190.0828    174.26888   -1015.8139    2701.8091    186703.99    10.472245    238.24695 
   17200   -1180.8222    174.53066   -1006.2915    2705.8676    191901.77    10.472245    239.95548 
   17300   -1185.8796    174.49168    -1011.388    2705.2633    189143.57    10.472245    241.66593 
   17400   -1193.8187    167.32562   -1026.4931    2594.1629    180973.39    10.472245    242.23092 
   17500    -1186.239       182.44    -1003.799    2828.4914     189831.7    10.472245    243.62612 
   17600   -1186.4104    171.99822   -1014.4122    2666.6055    187448.25    10.472245     244.3342 
   17700   -1189.5384    173.24558   -1016.2928    2685.9441    186491.16    10.472245    246.20249 
   17800   -1171.3254    169.93363   -1001.3918    2634.5967    195827.95    10.472245    250.50376 
   17900   -1190.4848    175.10998   -1015.3749    2714.8492    184510.08    10.472245    252.13052 
   18000   -1194.9628    169.28636   -1025.6764    2624.5616     181342.7    10.472245    254.74672 
   18100   -1182.7641    175.00714   -1007.7569    2713.2548    189402.43    10.472245    256.26686 
   18200   -1174.8245    174.30726   -1000.5173    2702.4041    196374.01    10.472245    257.99884 
   18300   -1194.1181    173.33498   -1020.7832    2687.3302    182920.88    10.472245    260.39882 
   18400   -1184.3378    168.91466   -1015.4231     2618.799    188777.06    10.472245    262.43633 
   18500   -1183.8276    175.00769   -1008.8199    2713.2633    189642.16    10.472245    264.62693 
   18600   -1186.1293    168.95305   -1017.1762    2619.3941    188090.62    10.472245    265.76018 
   18700   -1188.7016    174.60505   -1014.0966     2707.021    186633.34    10.472245    267.67085 
   18800    -1181.031    181.40135   -999.62961    2812.3887    194809.23    10.472245     267.4019 
   18900   -1193.4802    169.47985   -1024.0004    2627.5615    184112.44    10.472245    267.39834 
   19000   -1184.6486    172.85523   -1011.7933    2679.8923    187751.08    10.472245    270.35044 
   19100   -1193.8096    183.20407   -1010.6055    2840.3375    183901.94    10.472245    273.83611 
   19200   -1191.0265    160.61169   -1030.4148    2490.0723    182575.71    10.472245    276.56564 
   19300   -1179.7048    169.76436   -1009.9405    2631.9724    191205.21    10.472245    276.93331 
   19400   -1184.1717    183.16766   -1001.0041    2839.7728     188864.5    10.472245    278.67079 
   19500   -1177.6625    177.24123   -1000.4212    2747.8915    192467.88    10.472245    278.28657 
   19600   -1188.6273    175.05177   -1013.5756    2713.9467    186617.59    10.472245    278.49945 
   19700   -1187.2221    181.05468   -1006.1674     2807.014    188798.77    10.472245    280.08582 
   19800   -1178.1538     184.4358   -993.71802    2859.4337    194154.34    10.472245    281.05007 
   19900   -1178.5517    163.52997   -1015.0218    2535.3165    189432.03    10.472245    282.32023 
   20000    -1188.024    179.00365   -1009.0204    2775.2155    187067.61    10.472245    284.18868 
   20100   -1177.8319    170.79874   -1007.0331    2648.0091    194443.38    10.472245     282.3936 
   20200   -1176.9629    172.50679   -1004.4561    2674.4903    192934.76    10.472245    281.78872 
   20300   -1185.1628    176.31707   -1008.8457    2733.5636    188022.59    10.472245    283.82232 
   20400   -1183.3729     170.4062   -1012.9667    2641.9234    188445.32    10.472245    286.74426 
   20500    -1178.286    179.45568   -998.83034    2782.2236    192798.76    10.472245    289.35756 
   20600   -1176.9043     177.8364   -999.06794    2757.1188    194570.32    10.472245    290.59906 
   20700     -1185.65     166.6779   -1018.9721    2584.1209    189037.51    10.472245    290.78333 
   20800   -1175.4181    172.68348   -1002.7346    2677.2295    194086.37    10.472245    292.12109 
   20900   -1178.4295    180.52589   -997.90362    2798.8158     194955.4    10.472245    294.92158 
   21000   -1184.3372    169.92248   -1014.4147    2634.4238    188625.76    10.472245    296.34101 
   21100   -1184.2804    179.52782   -1004.7526     2783.342    188704.83    10.472245    297.95793 
   21200   -1180.1121    175.99966   -1004.1125    2728.6425    191227.42    10.472245    299.16692 
   21300   -1182.4855    171.10319   -1011.3824    2652.7292     191583.8    10.472245    302.83811 
   21400   -1189.9308    179.04104   -1010.8898    2775.7952    186275.78    10.472245    304.71124 
   21500   -1179.0217    161.89169     -1017.13    2509.9171    190818.57    10.472245    306.92349 
   21600   -1187.9873    179.90098   -1008.0863    2789.1274    188152.94    10.472245     309.9116 
   21700   -1176.9824    185.04717   -991.93525    2868.9122    193581.22    10.472245    312.80152 
   21800   -1175.5089    160.02087    -1015.488    2480.9125    194165.87    10.472245    314.31845 
   21900   -1171.8238    172.84697   -998.97679    2679.7643    199667.55    10.472245    313.82724 
   22000   -1182.1098    177.59866   -1004.5112    2753.4329    191778.31    10.472245    312.94569 
   22100    -1184.774    167.72293   -1017.0511    2600.3228    187019.51    10.472245    315.27407 
   22200   -1175.5823    170.12571   -1005.4566    2637.5747    194572.35    10.472245    315.98375 
   22300   -1195.9042    183.41455   -1012.4896    2843.6007    184688.37    10.472245    318.24523 
   22400   -1177.3897     160.4135   -1016.9762    2486.9997    192985.96    10.472245    318.54035 
   22500   -1176.0448    179.75834   -996.28649    2786.9158    193702.35    10.472245    320.17098 
   22600   -1181.0247    174.22031   -1006.8044     2701.056    191498.17    10.472245    321.40201 
   22700   -1194.0548    168.46861   -1025.5862    2611.8835    184548.72    10.472245     323.8648 
   22800   -1191.4094    183.90655   -1007.5028    2851.2285    185922.32    10.472245    326.28913 
   22900    -1187.715    168.07883   -1019.6362    2605.8406    185025.73    10.472245    326.92545 
   23000   -1195.9028    172.37411   -1023.5287    2672.4332    180645.32    10.472245    329.42019 
   23100   -1176.9902    168.81839   -1008.1718    2617.3064    193000.29    10.472245    328.67036 
   23200   -1184.4517    183.56044   -1000.8913    2845.8625    191064.93    10.472245    331.06735 
   23300    -1186.703     161.0292   -1025.6738    2496.5454    186001.03    10.472245    332.60356 
   23400   -1180.2948    169.89974    -1010.395    2634.0713    190578.21    10.472245    333.42929 
   23500   -1188.2978    181.94751   -1006.3503     2820.856    187991.47    10.472245    335.28049 
   23600   -1186.5507    161.72694   -1024.8238    2507.3629    186911.71    10.472245    334.94898 
   23700   -1178.1566    173.07422   -1005.0824    2683.2875    193521.75    10.472245    335.12772 
   23800    -1186.134    176.61474   -1009.5193    2738.1786    189083.18    10.472245    337.57486 
   23900   -1187.9159    162.65856   -1025.2573    2521.8064    185481.34    10.472245    340.15477 
   24000    -1185.184    160.86721   -1024.3168    2494.0338    187023.54    10.472245    340.12099 
   24100   -1185.2754    178.41748    -1006.858    2766.1277    187945.75    10.472245    341.66251 
   24200   -1175.1058    169.83886   -1005.2669    2633.1275       195477    10.472245    342.81319 
   24300   -1193.2544    172.65561   -1020.5988    2676.7974    183519.12    10.472245     344.1572 
   24400   -1179.0801    179.91784   -999.16227    2789.3888    194348.45    10.472245    348.40745 
   24500   -1184.1468    173.08092   -1011.0658    2683.3913    188534.69    10.472245    351.50087 
   24600   -1179.3366    164.57708   -1014.7596    2551.5505    188743.13    10.472245    352.08343 
   24700   -1174.6757    172.29604   -1002.3797    2671.2228    193641.97    10.472245    354.70369 
   24800   -1185.1299    186.78382   -998.34603    2895.8368    190372.72    10.472245    355.78195 
   24900   -1188.5056    171.75322   -1016.7523    2662.8071    185854.02    10.472245    356.32512 
   25000   -1180.1075    180.16957   -999.93794    2793.2914    192992.55    10.472245    355.93395 
   25100   -1173.2993    174.51583   -998.78342    2705.6378    194063.43    10.472245    356.21336 
   25200   -1178.6236    170.25787   -1008.3657    2639.6236    191251.51    10.472245    357.58137 
   25300   -1183.8145     181.7758   -1002.0387    2818.1939    189052.82    10.472245    359.12552 
   25400    -1182.136    191.02332   -991.11269    2961.5645    192899.11    10.472245    360.53371 
   25500   -1187.8835    173.12788   -1014.7556    2684.1194    185794.69    10.472245    362.24046 
   25600   -1197.2122    188.79453   -1008.4177    2927.0102     182776.5    10.472245    362.71093 
   25700   -1184.7371    179.16023   -1005.5769     2777.643    189541.26    10.472245    365.52887 
   25800   -1196.1677    174.60237   -1021.5654    2706.9793    182655.76    10.472245    363.96146 
   25900   -1174.8123    172.70831    -1002.104    2677.6145    195410.67    10.472245     364.5694 
   26000   -1183.7781    178.00379   -1005.7743    2759.7139    190572.65    10.472245    367.48114 
   26100   -1188.3474    168.91552   -1019.4319    2618.8122    185559.95    10.472245    367.64341 
   26200   -1172.5923    174.95107   -997.64124    2712.3855    196410.87    10.472245    369.34993 
   26300   -1169.6755    170.16762   -999.50788    2638.2244    198590.94    10.472245    372.31342 
   26400   -1192.8884    182.14961   -1010.7388    2823.9893     184811.9    10.472245    372.44547 
   26500    -1186.575    172.74472   -1013.8303    2678.1791    188346.87    10.472245    374.65997 
   26600   -1175.3764    182.02605   -993.35037    2822.0737    196114.04    10.472245    375.26921 
   26700   -1189.5533    171.27018   -1018.2831    2655.3181    184220.72    10.472245    376.44573 
   26800   -1183.1393    175.69029    -1007.449    2723.8462    191040.81    10.472245    378.16774 
   26900   -1168.6924    167.58863   -1001.1038    2598.2406    196933.52    10.472245    379.08967 
   27000   -1186.8876    165.28003   -1021.6076    2562.4488    186641.18    10.472245    380.73407 
   27100   -1181.5171     173.2302   -1008.2869    2685.7057     189336.9    10.472245    382.08557 
   27200   -1189.3025    185.02256     -1004.28    2868.5307    188440.78    10.472245     382.5113 
   27300   -1171.5344    181.46141   -990.07298    2813.3198    197594.42    10.472245    384.30282 
   27400   -1189.7316    178.84958    -1010.882    2772.8268    187275.04    10.472245    385.66015 
   27500   -1198.9036    185.47522   -1013.4284    2875.5485     178818.9    10.472245    388.22648 
   27600   -1175.5668    169.29531   -1006.2715    2624.7004    193104.26    10.472245    391.37281 
   27700   -1178.9744    173.77337    -1005.201    2694.1268    192562.73    10.472245    393.18676 
   27800   -1190.5533    172.84077   -1017.7125    2679.6681    185978.22    10.472245    395.93388 
   27900    -1183.197    173.16226   -1010.0347    2684.6524    190072.65    10.472245    396.30833 
   28000   -1182.5654    174.58822   -1007.9772      2706.76     189959.8    10.472245    399.27799 
   28100   -1176.5649    181.63007   -994.93483    2815.9346    193861.35    10.472245    400.12594 
   28200   -1184.3767     170.3688   -1014.0079    2641.3435    188469.18    10.472245    400.19751 
   28300   -1177.1573    179.74962   -997.40773    2786.7806    194082.05    10.472245    402.02361 
   28400   -1177.1049    173.07916   -1004.0257     2683.364    194586.59    10.472245     403.0961 
   28500   -1185.0269    175.79742   -1009.2295    2725.5071    189944.42    10.472245    404.38779 
   28600   -1186.3628    172.66441   -1013.6984    2676.9339    187273.22    10.472245    404.87957 
   28700   -1186.5646    172.26923   -1014.2954    2670.8071    188458.85    10.472245    405.92958 
   28800   -1176.9242     174.8229   -1002.1013    2710.3985    193752.42    10.472245    408.24234 
   28900    -1177.192    178.34594    -998.8461    2765.0185    194591.79    10.472245    408.11587 
   29000   -1180.8421    167.33999   -1013.5021    2594.3857     190405.1    10.472245    411.43419 
   29100   -1178.1414     180.5455   -997.59589    2799.1198    192433.37    10.472245    412.47427 
   29200   -1189.0723    173.94825   -1015.1241    2696.8381    185300.67    10.472245    413.06809 
   29300   -1183.0063    171.74751   -1011.2588    2662.7185    189962.53    10.472245    413.78137 
   29400   -1172.4201    169.17527   -1003.2449    2622.8394    196851.55    10.472245    416.71518 
   29500   -1181.3557    153.60871    -1027.747    2381.5004    189202.86    10.472245    419.30871 
   29600   -1180.3494    174.38556   -1005.9638    2703.6181    191937.82    10.472245    418.53773 
   29700   -1172.6595    168.22217   -1004.4373    2608.0629    194678.92    10.472245    421.14928 
   29800   -1189.6649    165.02808   -1024.6368    2558.5426    183926.84    10.472245    422.82118 
   29900   -1183.6039    176.69148   -1006.9124    2739.3683    189925.92    10.472245    424.13203 
   30000   -1190.8689    187.00327   -1003.8656     2899.239    187692.09    10.472245    424.95263 
   30100    -1191.107    175.29053   -1015.8164    2717.6484    185369.32    10.472245    428.45977 
   30200   -1183.3648    160.84629   -1022.5185    2493.7095    187360.59    10.472245    428.64016 
   30300   -1179.3619    181.52239    -997.8395    2814.2652    191510.49    10.472245    431.99001 
   30400   -1187.2444    172.59489   -1014.6495    2675.8561    187640.69    10.472245    432.37052 
   30500   -1177.9218    172.23473   -1005.6871    2670.2723    192786.24    10.472245    432.72802 
   30600   -1186.7813    195.70078   -991.08052    3034.0824    190354.49    10.472245    434.06131 
   30700   -1180.4773    171.91487   -1008.5625    2665.3133     192015.1    10.472245    431.82316 
   30800   -1180.0813    171.10383   -1008.9775    2652.7391     190502.9    10.472245    435.10449 
   30900   -1174.7409    180.93595   -993.80494    2805.1731    197371.67    10.472245    435.65856 
   31000   -1182.2281     165.5227   -1016.7054    2566.2111    189721.49    10.472245    440.51985 
   31100   -1183.8456    174.04602   -1009.7996     2698.354       188958    10.472245    442.09164 
   31200   -1174.3223      171.856   -1002.4663    2664.4005    193727.73    10.472245    444.98309 
   31300   -1186.2207    162.67237   -1023.5483    2522.0205    187831.29    10.472245     445.9023 
   31400   -1175.2957    171.22278   -1004.0729    2654.5833    195037.87    10.472245    448.53371 
   31500   -1185.6952    172.59618    -1013.099    2675.8761    187954.77    10.472245    450.85593 
   31600   -1182.9399     165.6568    -1017.283    2568.2902    188995.16    10.472245    454.84183 
   31700   -1177.8729    176.02547   -1001.8474    2729.0426    194781.17    10.472245    458.82875 
   31800   -1186.9848     172.1364   -1014.8484    2668.7477    188456.24    10.472245    459.15286 
   31900   -1185.7961    169.67565   -1016.1205    2630.5971    186592.43    10.472245    461.45513 
   32000   -1193.7257    187.20058   -1006.5251    2902.2981    184422.26    10.472245    462.94802 
   32100   -1180.7236    168.21536   -1012.5083    2607.9572    190810.35    10.472245    466.39795 
   32200   -1177.5853    172.30862   -1005.2766    2671.4179    194205.38    10.472245    469.82488 
   32300   -1175.7873    182.86631     -992.921    2835.1009    194918.06    10.472245    470.38809 
   32400   -1190.1152    174.19149   -1015.9237    2700.6092    185058.16    10.472245    472.21052 
   32500   -1176.5918    175.55307   -1001.0387    2721.7188    193615.84    10.472245    474.31862 
   32600   -1185.9737     170.8616   -1015.1121    2648.9836     186411.7    10.472245    475.75451 
   32700   -1191.8639    173.83676   -1018.0271    2695.1096    185190.14    10.472245    475.34146 
   32800   -1174.9055    173.48585   -1001.4197    2689.6693     194343.2    10.472245    478.18785 
   32900   -1185.3596    171.84305   -1013.5166    2664.1998    186820.26    10.472245    482.12721 
   33000   -1180.8214    169.69528   -1011.1261    2630.9015    190330.01    10.472245    483.98977 
   33100   -1179.5931    178.95232   -1000.6408    2774.4196    193984.65    10.472245    484.86211 
   33200   -1177.5281    190.36571   -987.16242    2951.3692    196228.35    10.472245    488.35926 
   33300   -1186.9826    173.25911   -1013.7234     2686.154    188024.13    10.472245     489.7132 
   33400   -1185.9456    172.99435   -1012.9513    2682.0492    187401.89    10.472245     489.5616 
   33500   -1169.7302    177.92744   -991.80274    2758.5302    198586.84    10.472245    491.16146 
   33600    -1178.728    165.89115   -1012.8368    2571.9234    190208.97    10.472245    494.22653 
   33700   -1190.7993    174.00433   -1016.7949    2697.7075     185572.5    10.472245    495.02711 
   33800   -1175.4648    173.45661   -1002.0082    2689.2158    195203.37    10.472245    496.81346 
   33900   -1175.8755    186.02702   -989.84843    2884.1035    196133.21    10.472245    499.92323 
   34000    -1185.216    172.33088   -1012.8851     2671.763    187838.29    10.472245    500.99387 
   34100   -1181.6878    162.87226   -1018.8156    2525.1195    189350.34    10.472245    502.58735 
   34200   -1186.0186    172.24353   -1013.7751    2670.4088    186148.83    10.472245    503.60896 
   34300   -1177.7136    175.14043   -1002.5732    2715.3213    194196.95    10.472245    503.07907 
   34400   -1188.9716    165.16405   -1023.8076    2560.6507     185257.8    10.472245    504.34803 
   34500   -1185.3044    175.03387   -1010.2705    2713.6693    189911.57    10.472245    503.02956 
   34600   -1178.5434    172.00766   -1006.5358    2666.7518    192312.99    10.472245    504.35868 
   34700    -1180.817    162.31594   -1018.5011    2516.4945    189879.82    10.472245    508.93238 
   34800    -1173.277     167.9541   -1005.3229    2603.9067    196760.78    10.472245    510.40532 
   34900   -1183.5861    182.68585   -1000.9002    2832.3031    191210.53    10.472245    509.41304 
   35000   -1195.3726    171.39193   -1023.9807    2657.2057    181411.53    10.472245    511.55641 
   35100   -1181.7064    173.96964   -1007.7368    2697.1698       190336    10.472245    513.05187 
   35200   -1178.7195    171.40459   -1007.3149     2657.402    191035.61    10.472245    512.57652 
   35300   -1186.4774    180.33968   -1006.1377    2795.9289    188584.19    10.472245    515.21423 
   35400   -1187.3978    167.25598   -1020.1418    2593.0834     184918.7    10.472245    518.31465 
   35500   -1193.6054    184.35933   -1009.2461    2858.2481    183352.45    10.472245    519.26659 
   35600   -1178.8285    175.33057   -1003.4979    2718.2692    193695.78    10.472245    521.32044 
   35700   -1182.2217    174.84174     -1007.38    2710.6905     190766.4    10.472245    521.71768 
   35800   -1193.1792    173.75812    -1019.421    2693.8904    184420.34    10.472245    522.91445 
   35900   -1177.2736    179.42446   -997.84916    2781.7395    194245.95    10.472245    523.77965 
   36000   -1182.8877    182.20117   -1000.6866    2824.7888    191830.75    10.472245    526.43934 
   36100   -1186.4265    174.13074   -1012.2958    2699.6673    188574.03    10.472245    532.10546 
   36200    -1177.255    178.70066   -998.55438     2770.518    194643.95    10.472245    533.21094 
   36300   -1189.4826    176.24753    -1013.235    2732.4854    186590.94    10.472245    531.13172 
   36400   -1189.9936    165.00216   -1024.9915    2558.1407    183559.66    10.472245    532.01256 
   36500   -1187.0582    181.78013   -1005.2781    2818.2611    189991.66    10.472245    535.76092 
   36600   -1175.9006    172.22816   -1003.6725    2670.1704    194389.99    10.472245    537.29488 
   36700   -1195.2271    173.45117   -1021.7759    2689.1315    182649.12    10.472245    540.32294 
   36800   -1179.4754    176.14507   -1003.3304     2730.897    192549.65    10.472245    539.20355 
   36900   -1170.6887    177.10762   -993.58105    2745.8201    197138.46    10.472245    539.05849 
   37000    -1175.732    163.36844   -1012.3635    2532.8121    194071.75    10.472245    540.73292 
   37100    -1176.707    168.19669   -1008.5103    2607.6678    193027.04    10.472245    542.37525 
   37200   -1176.9256    182.36167   -994.56398    2827.2772    193916.19    10.472245    542.38613 
   37300   -1183.6883    169.71352   -1013.9748    2631.1842    187002.24    10.472245     543.0978 
   37400   -1180.6456    177.31852   -1003.3271    2749.0897    191221.63    10.472245    545.47784 
   37500    -1181.884    173.29463   -1008.5893    2686.7046     191433.5    10.472245    546.54889 
   37600   -1187.3861    171.23843   -1016.1477    2654.8259    187456.81    10.472245    549.92603 
   37700   -1168.1061    165.83211    -1002.274    2571.0081     195724.8    10.472245    552.41762 
   37800   -1171.5822    177.32762   -994.25461    2749.2308    198916.63    10.472245    554.30742 
   37900   -1190.0134    174.38721   -1015.6262    2703.6437    185749.48    10.472245    558.23422 
   38000   -1180.9855    166.67681   -1014.3087     2584.104    191831.69    10.472245    558.19819 
   38100   -1169.0602    173.57643   -995.48376    2691.0736     199643.3    10.472245    559.26421 
   38200   -1186.9877    172.78423   -1014.2035    2678.7915    188548.25    10.472245    561.01567 
   38300   -1182.0605    168.61515   -1013.4453    2614.1555    191200.84    10.472245    561.41644 
   38400   -1180.0706    173.23394   -1006.8367    2685.7637    191190.59    10.472245    562.25145 
   38500   -1184.9033    168.05601   -1016.8473    2605.4868    188509.48    10.472245    566.74836 
   38600   -1185.5831    176.77174   -1008.8113    2740.6126     188444.6    10.472245     569.9804 
   38700   -1175.8238    176.92015   -998.90364    2742.9135    197604.12    10.472245    570.82825 
   38800   -1192.0645    180.51466   -1011.5498    2798.6416    184344.39    10.472245    572.10379 
   38900    -1180.146    171.47303    -1008.673    2658.4631    191752.61    10.472245    572.73281 
   39000   -1179.1837    174.53666    -1004.647    2705.9606    192242.54    10.472245    571.64156 
   39100   -1192.6491    178.15535   -1014.4938    2762.0636    184562.17    10.472245    574.54724 
   39200   -1182.9472    175.79165   -1007.1556    2725.4176    189880.13    10.472245    575.57665 
   39300   -1178.5079    179.79049   -998.71739    2787.4144    194754.07    10.472245    580.40871 
   39400   -1184.5285    170.04603   -1014.4825    2636.3394    190111.85    10.472245    581.22395 
   39500   -1183.7476     172.9775   -1010.7701    2681.7879    189212.98    10.472245    583.81853 
   39600   -1164.2943    172.93528     -991.359    2681.1333    200929.68    10.472245    586.34346 
   39700   -1186.7043    175.23702   -1011.4673    2716.8188     186881.6    10.472245    588.97069 
   39800   -1178.1423    175.28173   -1002.8606     2717.512    191953.13    10.472245    590.46056 
   39900   -1174.5125    184.14056   -990.37193    2854.8564    196194.02    10.472245    589.81513 
   40000    -1180.242    167.25855   -1012.9835    2593.1231    190281.74    10.472245    592.71087 
   40100   -1173.9139    174.16791     -999.746    2700.2437     195122.5    10.472245    592.90743 
   40200   -1171.4272    173.66813   -997.75908    2692.4953    198920.22    10.472245    593.99065 
   40300   -1186.3296    171.22246   -1015.1072    2654.5784    187417.85    10.472245    595.11738 
   40400     -1179.28    177.39106   -1001.8889    2750.2143    193648.02    10.472245     594.7204 
   40500   -1170.9311    183.35625   -987.57484    2842.6968    197726.86    10.472245    595.48525 
   40600   -1186.7989    175.42033   -1011.3785    2719.6608    187386.29    10.472245     597.7678 
   40700   -1188.7986    174.29326   -1014.5053     2702.187    186739.85    10.472245     600.3378 
   40800   -1185.6904    190.26718   -995.42318    2949.8417    188953.46    10.472245    601.76254 
   40900   -1180.5115     162.0417   -1018.4698    2512.2427    190261.07    10.472245     605.4569 
   41000   -1188.2972    183.80553   -1004.4917    2849.6623    188109.46    10.472245    605.83176 
   41100   -1179.3561    169.43216    -1009.924    2626.8221    189954.81    10.472245    607.33502 
   41200   -1198.2732    159.42209   -1038.8511    2471.6292    178391.28    10.472245    611.71661 
   41300   -1194.4466    169.05143   -1025.3952    2620.9194    183011.88    10.472245    611.77471 
   41400   -1178.9577    171.13738   -1007.8203    2653.2593    193592.41    10.472245    614.51427 
   41500   -1174.4311    180.33677   -994.09431    2795.8836    195027.25    10.472245    614.97363 
   41600   -1188.7182    172.04771   -1016.6705    2667.3728    187810.21    10.472245    618.99429 
   41700   -1172.4133    167.80245   -1004.6108    2601.5556    195070.45    10.472245    616.08201 
   41800   -1180.7328    179.79856   -1000.9342    2787.5395     191167.1    10.472245    616.85609 
   41900   -1184.7033      166.398   -1018.3053    2579.7815    186347.13    10.472245    615.33195 
   42000   -1183.1272     178.5327   -1004.5945    2767.9139    189658.99    10.472245    616.48226 
   42100   -1172.3529    170.87238   -1001.4806    2649.1509    196402.84    10.472245    618.23605 
   42200   -1184.3725    164.49102   -1019.8815    2550.2163    189313.98    10.472245    617.09543 
   42300   -1183.0901    178.51529   -1004.5748     2767.644     189878.1    10.472245    617.34434 
   42400   -1176.4903    173.37919   -1003.1111    2688.0156     194543.8    10.472245    618.88712 
   42500   -1182.3572    166.02947   -1016.3277    2574.0679    191126.95    10.472245    622.13385 
   42600   -1174.7593    175.42972   -999.32955    2719.8064    196094.55    10.472245    623.01502 
   42700   -1180.0959    172.69517   -1007.4008    2677.4108    190655.13    10.472245     624.7298 
   42800   -1188.2829    172.28661   -1015.9963    2671.0766    185795.33    10.472245     627.6872 
   42900   -1176.7575    177.68609    -999.0714    2754.7884    195443.24    10.472245    627.60607 
   43000   -1174.9418    185.53392   -989.40792    2876.4587     197315.7    10.472245    629.47625 
   43100   -1187.8195    173.27651    -1014.543    2686.4237    187972.28    10.472245     630.2384 
   43200     -1178.12    168.41928   -1009.7007    2611.1187    192191.54    10.472245    634.07758 
   43300   -1179.7954     181.8733   -997.92211    2819.7056    192352.93    10.472245    637.26786 
   43400   -1183.2795    176.42735   -1006.8521    2735.2734    189765.58    10.472245    638.81897 
   43500   -1182.4623    173.21383   -1009.2485     2685.452    189593.61    10.472245    638.97261 
   43600   -1186.3744    177.17207   -1009.2023    2746.8193    187909.74    10.472245    641.55362 
   43700   -1180.6902    172.93972   -1007.7505    2681.2022    192534.84    10.472245    641.30954 
   43800   -1180.4576    170.76609   -1009.6915    2647.5029    190850.04    10.472245    642.42769 
   43900   -1186.6697    178.80438   -1007.8653     2772.126    188055.54    10.472245    643.79409 
   44000   -1177.7852    171.12027   -1006.6649     2652.994    194346.04    10.472245    642.84042 
   44100   -1196.8204    175.40244   -1021.4179    2719.3834       181667    10.472245    643.82586 
   44200   -1184.5234    176.77465   -1007.7488    2740.6577    190617.02    10.472245    644.87776 
   44300   -1176.5812    175.23177   -1001.3494    2716.7373    193416.57    10.472245    645.11695 
   44400   -1183.7514    168.58482   -1015.1666    2613.6852    187403.29    10.472245    648.22689 
   44500   -1190.5808    169.53652   -1021.0443    2628.4401    182568.67    10.472245    647.99784 
   44600   -1180.2639    172.19051   -1008.0734    2669.5866    191698.81    10.472245    653.04465 
   44700    -1179.505    182.01344   -997.49159    2821.8782    192497.37    10.472245    655.64486 
   44800   -1168.1767     176.6469   -991.52983    2738.6771    199595.98    10.472245    654.12294 
   44900   -1181.8739     171.9455   -1009.9284    2665.7881    190129.53    10.472245    655.06252 
   45000   -1192.9826    178.84344   -1014.1392    2772.7316    185645.98    10.472245    660.00066 
   45100   -1171.5897    177.30283   -994.28688    2748.8465    197813.59    10.472245    661.06585 
   45200   -1178.1358    166.78015   -1011.3557    2585.7062    191708.13    10.472245     662.6864 
   45300   -1184.6598    173.29597   -1011.3639    2686.7255    188495.65    10.472245    664.93389 
   45400    -1174.774    167.11877   -1007.6552    2590.9561    196005.67    10.472245    665.64445 
   45500   -1170.4659    175.37621   -995.08973    2718.9767    195764.96    10.472245    667.10978 
   45600   -1189.9853    172.60364   -1017.3817    2675.9917    186693.83    10.472245    667.29433 
   45700   -1182.8154    177.22116   -1005.5943    2747.5803    189970.56    10.472245    667.86404 
   45800   -1185.9678    176.14564   -1009.8222    2730.9058    188076.77    10.472245    669.82763 
   45900   -1178.2891    166.78737   -1011.5017    2585.8181    192654.78    10.472245    667.53071 
   46000   -1178.7789     173.7679    -1005.011    2694.0421    192999.51    10.472245    668.96582 
   46100   -1177.6568    171.77286   -1005.8839    2663.1116    192455.22    10.472245    669.61012 
   46200   -1181.3702    171.13392   -1010.2363    2653.2056    188474.58    10.472245    670.89344 
   46300   -1184.2688    185.57153   -998.69726    2877.0418     191239.3    10.472245    673.37289 
   46400   -1184.2781    167.17869   -1017.0995    2591.8851    188748.01    10.472245    677.45099 
   46500   -1184.2419    175.63956   -1008.6023    2723.0597    189157.01    10.472245    676.12905 
   46600   -1172.6705    183.28164   -989.38886      2841.54    198437.34    10.472245    681.24572 
   46700   -1184.3587    174.20935   -1010.1493    2700.8861    190895.34    10.472245    681.35694 
   46800   -1189.8267    176.47553   -1013.3511    2736.0203    186614.54    10.472245    680.89338 
   46900   -1177.6787     181.8415    -995.8372    2819.2126    193549.92    10.472245    684.19025 
   47000   -1184.0409    168.78998    -1015.251     2616.866       190015    10.472245    684.04345 
   47100   -1193.4726    177.48575   -1015.9869    2751.6824    185108.23    10.472245    685.64233 
   47200   -1188.3244    179.95252   -1008.3718    2789.9263    185778.89    10.472245    685.93453 
   47300   -1185.0254    172.96424   -1012.0612    2681.5824    187875.91    10.472245    688.31898 
   47400   -1172.4318    173.33881   -999.09297    2687.3896    198045.63    10.472245    686.35303 
   47500   -1173.1584     173.9067    -999.2517    2696.1939    195856.11    10.472245    686.88243 
   47600   -1193.4832    178.77442   -1014.7088    2771.6616    183927.79    10.472245    688.45542 
   47700   -1178.8996    181.12309   -997.77648    2808.0746    194038.56    10.472245    691.10256 
   47800   -1176.2596    165.25713   -1011.0024    2562.0937    193484.33    10.472245    692.35189 
   47900   -1182.4792    172.51529    -1009.964     2674.622    190752.71    10.472245    696.99748 
   48000   -1183.7731     182.7158   -1001.0573    2832.7674    191054.84    10.472245    699.95379 
   48100   -1186.9557    173.29422   -1013.6615    2686.6983    187975.41    10.472245    702.71139 
   48200   -1179.0498    167.07049   -1011.9793    2590.2075    190841.39    10.472245    704.65256 
   48300   -1182.1207    178.35285   -1003.7678    2765.1256    191153.48    10.472245    706.86308 
   48400   -1181.9846    162.60335   -1019.3812    2520.9504    190647.52    10.472245    709.66468 
   48500      -1180.7    180.87841   -999.82155    2804.2812    191155.74    10.472245    710.26983 
   48600    -1179.572    168.23886   -1011.3331    2608.3215    190365.48    10.472245    712.38084 
   48700   -1193.4348    167.99796   -1025.4368    2604.5867     179810.3    10.472245    710.25484 
   48800   -1195.1603    181.29168   -1013.8686    2810.6883    182987.29    10.472245    714.06105 
   48900   -1179.6981    181.09567   -998.60245    2807.6495    192686.64    10.472245    713.74896 
   49000   -1168.8042    181.64774   -987.15647    2816.2085    199398.39    10.472245     715.3698 
   49100   -1186.1145    174.37149    -1011.743    2703.3999    188013.81    10.472245    711.41003 
   49200   -1183.4815     175.3576   -1008.1239    2718.6882    187599.54    10.472245    711.09884 
   49300   -1177.4826    188.82569   -988.65687    2927.4932    194387.89    10.472245    711.27181 
   49400   -1183.4405    173.10548    -1010.335     2683.772    191651.78    10.472245    716.30057 
   49500   -1189.8322    177.11642   -1012.7158    2745.9565    186618.79    10.472245    716.88564 
   49600   -1174.4585    179.77171   -994.68676    2787.1233     196005.8    10.472245    714.96276 
   49700   -1180.7136    171.13114   -1009.5825    2653.1625    190772.38    10.472245    714.05358 
   49800   -1191.4483     174.6744   -1016.7739    2708.0962    183832.43    10.472245      720.013 
   49900    -1183.746    179.84552   -1003.9005    2788.2676    191258.57    10.472245    724.01767 
   50000   -1188.4374    175.52348   -1012.9139      2721.26    187144.02    10.472245    726.18511 
   50100   -1190.1341    164.12779   -1026.0063    2544.5849    184464.85    10.472245    725.99119 
   50200   -1180.5311    176.50671   -1004.0244    2736.5037    192725.77    10.472245    729.15681 
   50300   -1183.5635    172.48443   -1011.0791    2674.1435    190626.27    10.472245    730.13407 
   50400   -1185.9723    163.39443   -1022.5779    2533.2151     186321.1    10.472245    731.21052 
   50500   -1189.6541    186.82114    -1002.833    2896.4153    188242.01    10.472245    733.08236 
   50600   -1182.9791    174.10006   -1008.8791    2699.1918     190380.8    10.472245    733.98301 
   50700   -1198.1045    167.01841   -1031.0861    2589.4001    177543.03    10.472245    737.37854 
   50800    -1194.037    182.61416   -1011.4228    2831.1916    183529.64    10.472245    739.10988 
   50900   -1176.9029    169.26184   -1007.6411    2624.1815    194341.27    10.472245    741.27994 
   51000   -1184.4713     177.5899   -1006.8814    2753.2971       191214    10.472245    743.14882 
   51100   -1173.8947    174.05061   -999.84406     2698.425    194321.66    10.472245    747.08086 
   51200   -1185.7888    184.22494   -1001.5638    2856.1646    188138.03    10.472245    746.95676 
   51300   -1189.7968    172.09363   -1017.7031    2668.0847    186410.08    10.472245    745.98199 
   51400   -1174.1681     178.5007   -995.66743    2767.4179    197583.79    10.472245    747.50232 
   51500   -1178.2572    177.34614   -1000.9111    2749.5179    193581.71    10.472245    747.18374 
   51600   -1187.4784    171.72616   -1015.7523    2662.3875    186109.07    10.472245    749.52367 
   51700   -1183.0458    186.32564   -996.72016    2888.7332    191031.06    10.472245    748.46098 
   51800   -1183.3948    172.33302   -1011.0618    2671.7961    190815.25    10.472245    745.22061 
   51900    -1190.302    175.28035   -1015.0216    2717.4906    185334.33    10.472245    745.53425 
   52000   -1178.2438    176.10255   -1002.1413    2730.2377    194010.73    10.472245    747.17916 
   52100   -1180.3377    188.24554   -992.09219    2918.4987    192126.88    10.472245     748.0998 
   52200   -1185.8185    172.35041   -1013.4681    2672.0658    188002.04    10.472245    746.87272 
   52300   -1181.1371    169.03668   -1012.1004    2620.6908    190027.39    10.472245    751.24912 
   52400   -1178.1202    186.46142   -991.65875    2890.8383    194412.78    10.472245    752.31521 
   52500      -1191.4    176.68567   -1014.7143    2739.2782    185420.43    10.472245    752.77625 
   52600   -1187.8389     174.5271   -1013.3118    2705.8124    189131.72    10.472245    756.71079 
   52700    -1180.119    185.28108   -994.83792    2872.5388    194243.84    10.472245    757.27288 
   52800   -1187.2827    166.31425   -1020.9685     2578.483     186667.7    10.472245    759.22515 
   52900   -1179.7011    173.17537   -1006.5258    2684.8556    191316.25    10.472245    759.81527 
   53000   -1176.7556    173.51456   -1003.2411    2690.1144    193853.25    10.472245    759.56297 
   53100   -1192.0599     169.0689    -1022.991    2621.1902    183307.46    10.472245     762.5706 
   53200   -1185.4355    178.60256    -1006.833     2768.997    190258.53    10.472245    765.03412 
   53300   -1180.2005    171.73271   -1008.4678    2662.4891     189983.1    10.472245    767.37467 
   53400   -1188.1978     177.0168    -1011.181    2744.4119    188206.71    10.472245    769.84668 
   53500    -1182.925    175.44409   -1007.4809    2720.0292    189476.72    10.472245    770.28935 
   53600   -1173.8317    191.18519   -982.64649    2964.0741    197750.03    10.472245    773.10691 
   53700   -1168.0252    167.82148   -1000.2037    2601.8507    197881.74    10.472245    775.53313 
   53800   -1192.5541     181.9154   -1010.6387    2820.3582    183860.06    10.472245    776.52019 
   53900   -1191.3712    169.16198   -1022.2092    2622.6334     182517.4    10.472245    778.27537 
   54000   -1179.6763    180.82175   -998.85453    2803.4027    191846.88    10.472245    779.46639 
   54100   -1183.6535    169.54859   -1014.1049    2628.6272    187284.98    10.472245    784.31732 
   54200   -1193.0062    177.00696   -1015.9992    2744.2595    183130.59    10.472245    786.00997 
   54300   -1189.3443    186.88999   -1002.4543    2897.4827    186606.78    10.472245    785.45657 
   54400   -1181.4825    169.21869   -1012.2638    2623.5126    190590.11    10.472245    786.45266 
   54500   -1187.4861    172.53385   -1014.9523    2674.9098    185765.29    10.472245    786.72361 
   54600   -1171.0899    171.90464   -999.18527    2665.1547    198640.16    10.472245     786.8977 
   54700   -1179.9284    173.41444   -1006.5139    2688.5621    191141.51    10.472245    789.31485 
   54800    -1188.734    160.48287   -1028.2512    2488.0751    185424.91    10.472245    794.15478 
   54900   -1188.0591    171.86143   -1016.1977    2664.4848     185890.1    10.472245    793.45376 
   55000   -1185.3923    181.86814   -1003.5242    2819.6256    189516.75    10.472245    792.29455 
   55100   -1182.5388    172.58384   -1009.9549    2675.6847    190983.01    10.472245    791.95969 
   55200    -1187.153    173.03689   -1014.1162    2682.7087    187435.61    10.472245    790.88668 
   55300   -1175.8899    171.90811   -1003.9818    2665.2085    194065.01    10.472245    795.28731 
   55400   -1180.7833    166.43163   -1014.3517    2580.3028    191323.62    10.472245    796.88622 
   55500   -1174.7447     185.1287   -989.61599    2870.1763    196436.88    10.472245    799.21952 
   55600   -1184.6917    180.81329   -1003.8784    2803.2715     190621.6    10.472245    798.41382 
   55700   -1189.7702    172.61832   -1017.1519    2676.2193    184620.92    10.472245     799.7373 
   55800   -1176.9325    172.51159   -1004.4209    2674.5646    194097.65    10.472245    802.17789 
   55900   -1182.9739    174.27825   -1008.6956    2701.9543    190766.78    10.472245    803.37008 
   56000   -1189.5108    179.92697   -1009.5838    2789.5302    186570.03    10.472245    807.66472 
   56100   -1171.5341    181.52508   -990.00899    2814.3068    197658.94    10.472245    807.34024 
   56200   -1184.1778    175.20295   -1008.9749    2716.2907    189173.37    10.472245    808.31428 
   56300   -1187.9098    172.56847   -1015.3413    2675.4465     185604.7    10.472245    807.70474 
   56400   -1178.8903     170.6299   -1008.2604    2645.3915    192137.11    10.472245    811.50767 
   56500   -1176.2512    180.35788   -995.89335     2796.211    194891.34    10.472245    810.93337 
   56600   -1190.1454    169.98055   -1020.1648    2635.3242    187049.92    10.472245    815.12064 
   56700   -1178.8354    167.44521   -1011.3902    2596.0171    191701.22    10.472245    815.69781 
   56800   -1177.5635    178.41379   -999.14968    2766.0704    193076.26    10.472245    815.79625 
   56900    -1173.006    162.97651   -1010.0295    2526.7358    195144.31    10.472245    816.35128 
   57000   -1179.9475    178.73354    -1001.214    2771.0277    192278.04    10.472245    815.83003 
   57100   -1169.4098    174.85093   -994.55889    2710.8329    198932.86    10.472245    815.67402 
   57200   -1176.9703     165.2515   -1011.7188    2562.0065    193144.46    10.472245    818.36284 
   57300   -1175.9118    175.61975    -1000.292    2722.7525    195016.92    10.472245     818.9217 
   57400   -1170.6593    160.99542   -1009.6639    2496.0215     193494.4    10.472245    820.18979 
   57500   -1193.8465    180.87439   -1012.9722    2804.2188    184561.59    10.472245    822.95624 
   57600   -1168.9249    178.67451   -990.25042    2770.1126    198336.98    10.472245    825.95761 
   57700   -1187.1375    177.22444   -1009.9131    2747.6311    187963.99    10.472245    826.28233 
   57800   -1182.5276    172.99815   -1009.5295    2682.1081    191878.13    10.472245    828.90259 
   57900     -1181.68    180.85069   -1000.8293    2803.8513    192608.06    10.472245    830.16148 
   58000   -1186.0789    173.70793    -1012.371    2693.1122    187624.34    10.472245    830.50029 
   58100   -1188.7696    170.89885   -1017.8708    2649.5613    187703.52    10.472245    831.80147 
   58200   -1176.3014    176.70007   -999.60136    2739.5014    192930.17    10.472245    833.02961 
   58300   -1190.5331    169.09525   -1021.4379    2621.5988     186066.6    10.472245    835.18381 
   58400    -1189.146    176.70018   -1012.4459    2739.5031    186909.74    10.472245    837.14734 
   58500   -1183.5622    176.21777   -1007.3444    2732.0241    190546.22    10.472245    837.36775 
   58600   -1189.9918    168.82956   -1021.1623    2617.4795    184101.12    10.472245    840.84244 
   58700   -1166.9592     169.7529   -997.20631    2631.7947    197932.43    10.472245    838.76346 
   58800   -1182.1594    179.25508   -1002.9043    2779.1135    190688.55    10.472245    841.12418 
   58900   -1187.8695    166.27001   -1021.5995    2577.7972    186406.41    10.472245    843.19121 
   59000   -1191.2437    176.92637   -1014.3174    2743.0099    184739.33    10.472245    843.18134 
   59100   -1175.1173    174.68084   -1000.4365    2708.1959    193838.08    10.472245    844.08357 
   59200   -1182.4983    168.49073   -1014.0076    2612.2265    190146.34    10.472245    844.75949 
   59300   -1186.1468    169.39748   -1016.7493    2626.2844    186135.49    10.472245    845.15277 
   59400   -1177.9079    177.28259   -1000.6253    2748.5327    196235.69    10.472245    844.13027 
   59500   -1181.9557    164.39861   -1017.5571    2548.7835    188340.11    10.472245    846.55454 
   59600   -1192.4795    177.52981   -1014.9497    2752.3655    184651.92    10.472245    848.37643 
   59700   -1184.8933    172.07942   -1012.8139    2667.8644    187919.24    10.472245    848.66227 
   59800   -1182.5295    165.11172   -1017.4178    2559.8394    189025.91    10.472245    848.99635 
   59900   -1183.1785    180.62373   -1002.5548    2800.3327    191177.95    10.472245    852.81566 
   60000   -1178.0978    167.37082    -1010.727    2594.8638    192324.51    10.472245    853.94411 
   60100   -1187.9944    168.65949   -1019.3349    2614.8428    184888.18    10.472245     853.1682 
   60200   -1184.6968     176.7523   -1007.9445    2740.3112    190590.11    10.472245    852.06854 
   60300   -1189.3933     178.5601   -1010.8332    2768.3389    188087.17    10.472245    852.39981 
   60400   -1192.0843    160.29599   -1031.7883    2485.1779    182186.73    10.472245     856.1654 
   60500   -1186.4749    174.89717   -1011.5777    2711.5499    187688.52    10.472245    855.48641 
   60600   -1182.8126    181.39481   -1001.4178    2812.2873    191274.59    10.472245    857.04697 
   60700   -1194.5329    174.36207   -1020.1708    2703.2539    181873.75    10.472245    862.32303 
   60800   -1177.2015    164.18803   -1013.0135    2545.5188    192584.84    10.472245    863.38603 
   60900   -1176.9222    171.15314   -1005.7691    2653.5036    193738.08    10.472245    866.45797 
   61000   -1190.5444    166.34167   -1024.2028    2578.9082    185133.71    10.472245     866.4199 
   61100   -1191.6677    169.08787   -1022.5799    2621.4844    184181.36    10.472245    870.09212 
   61200   -1185.1762    175.56548   -1009.6107    2721.9111    188139.74    10.472245    872.40543 
   61300   -1186.9951    178.87111    -1008.124    2773.1605    187149.39    10.472245    869.91414 
   61400   -1194.6709    169.48411   -1025.1868    2627.6275    181458.27    10.472245    872.19522 
   61500   -1184.1919    174.73851   -1009.4534      2709.09    187727.63    10.472245    875.39014 
   61600   -1182.3076    171.82591   -1010.4817    2663.9341    190284.79    10.472245    874.21165 
   61700   -1190.2388    164.80392   -1025.4349    2555.0674    185282.13    10.472245    878.54914 
   61800   -1190.9055    166.95115   -1023.9543    2588.3574    186672.09    10.472245    881.56152 
   61900    -1177.481    170.72297   -1006.7581    2646.8344    192519.15    10.472245    880.61914 
   62000   -1190.0398    177.35151   -1012.6882    2749.6012    184974.14    10.472245    882.78075 
   62100   -1188.6524     168.0511   -1020.6013    2605.4106    184228.24    10.472245     887.5258 
   62200   -1187.2056     186.3476    -1000.858    2889.0737    188583.53    10.472245     885.6046 
   62300   -1182.4364    181.04275   -1001.3937    2806.8289    190640.41    10.472245     889.0465 
   62400   -1192.2161    174.23748   -1017.9786    2701.3223    185852.79    10.472245     888.2327 
   62500   -1182.2933    183.82929   -998.46403    2850.0306    190697.05    10.472245    889.89326 
   62600   -1183.8402     170.5007   -1013.3395    2643.3884    187902.41    10.472245    892.51222 
   62700   -1187.6379     178.1296   -1009.5083    2761.6644    185690.99    10.472245    896.41428 
   62800   -1180.2657    185.91964   -994.34609    2882.4387    192131.22    10.472245    901.63839 
   62900   -1171.0572    173.02696   -998.03027    2682.5547    197139.39    10.472245    901.25708 
   63000   -1179.9313    170.91381   -1009.0175    2649.7932    191576.54    10.472245    905.23901 
   63100   -1190.1165    168.41299   -1021.7036    2611.0212    186648.11    10.472245    907.84708 
   63200   -1189.6836    173.40588   -1016.2777    2688.4294    187382.79    10.472245    906.13916 
   63300   -1176.5258    173.44836   -1003.0775     2689.088     193572.9    10.472245    905.16427 
   63400   -1190.2921    174.31332   -1015.9788    2702.4981    185844.81    10.472245    908.32979 
   63500    -1186.843    173.98303   -1012.8599    2697.3774    187125.29    10.472245    912.86525 
   63600   -1178.4232     176.5848   -1001.8384    2737.7143    192536.88    10.472245    918.76172 
   63700   -1190.0478    169.64107   -1020.4067    2630.0609    185433.21    10.472245     917.3149 
   63800   -1178.6229    164.33394   -1014.2889    2547.7809    191843.26    10.472245     920.2897 
   63900   -1179.0875    178.62509   -1000.4624    2769.3463    192024.12    10.472245    920.47791 
   64000   -1189.4474     171.1493   -1018.2981    2653.4441    186868.09    10.472245    923.35487 
   64100   -1187.8361    178.01579   -1009.8203    2759.8999    187473.03    10.472245    922.11379 
   64200   -1184.6628    181.44809   -1003.2147    2813.1133    189387.84    10.472245    920.84597 
   64300   -1194.1104    168.28432    -1025.826    2609.0263    182245.94    10.472245    923.06941 
   64400   -1182.2303    163.56835    -1018.662    2535.9114    187481.82    10.472245    922.81842 
   64500   -1176.6385    176.41466   -1000.2239    2735.0765    196630.59    10.472245    923.81611 
   64600   -1180.5626    170.94344   -1009.6191    2650.2524    191070.57    10.472245     923.5134 
   64700    -1186.548    166.42101    -1020.127    2580.1382     187963.2    10.472245    925.77159 
   64800   -1183.9841    177.53165   -1006.4525     2752.394    189079.49    10.472245    925.28151 
   64900   -1189.7332    170.35399   -1019.3792    2641.1138    184281.62    10.472245    928.44464 
   65000   -1189.0292    169.91874   -1019.1105    2634.3659    184509.58    10.472245    929.33418 
   65100   -1184.0218    181.15922   -1002.8626    2808.6347    190770.88    10.472245    931.73613 
   65200   -1187.1138    171.36486   -1015.7489     2656.786    186577.39    10.472245    929.42544 
   65300    -1193.703    174.24708   -1019.4559    2701.4711    182078.25    10.472245    928.81616 
   65400   -1183.2418    179.66545   -1003.5764    2785.4758    191835.58    10.472245    930.62777 
   65500   -1177.7467    164.99786   -1012.7488    2558.0742    190106.37    10.472245    933.89187 
   65600   -1200.2945    162.07577   -1038.2187     2512.771    175982.26    10.472245    933.70288 
   65700    -1190.811    179.65748   -1011.1535    2785.3522    184730.71    10.472245    934.17769 
   65800   -1183.4552    178.95559   -1004.4996    2774.4703    192219.47    10.472245    932.87782 
   65900   -1179.9481    178.43263   -1001.5154    2766.3625     192355.7    10.472245    935.19521 
   66000   -1193.1469    172.26636   -1020.8806    2670.7627    181781.51    10.472245    935.73544 
   66100   -1170.5802    168.64512   -1001.9351      2614.62    197748.93    10.472245    937.72249 
   66200   -1184.6587    178.36772    -1006.291    2765.3562    188921.95    10.472245    942.97511 
   66300   -1193.8329    175.59453   -1018.2384    2722.3615     184272.1    10.472245    942.15409 
   66400   -1172.9787    177.66419   -995.31455    2754.4489    198051.21    10.472245    943.89532 
   66500   -1180.0287    172.37318   -1007.6555    2672.4187    193495.27    10.472245    945.00617 
   66600    -1176.996    163.93817   -1013.0579     2541.645    193382.13    10.472245    946.34427 
   66700    -1173.424    173.41686   -1000.0072    2688.5996    195082.33    10.472245    947.36678 
   66800   -1177.0323    175.15813   -1001.8742    2715.5957    195988.76    10.472245    952.41765 
   66900   -1180.7834    166.51111   -1014.2722    2581.5351    191552.39    10.472245    950.05359 
   67000   -1181.0768     173.2633   -1007.8135    2686.2188    191378.72    10.472245    951.60329 
   67100   -1183.9023    178.58685   -1005.3155    2768.7534    189879.42    10.472245    954.16807 
   67200   -1185.8431    169.09465   -1016.7485    2621.5894    186744.66    10.472245     958.9258 
   67300   -1182.0589    189.86964   -992.18923    2943.6782    195149.92    10.472245    962.69687 
   67400   -1188.1653     177.7917   -1010.3736    2756.4258    185649.45    10.472245    957.58825 
   67500   -1190.7223    181.51868   -1009.2036    2814.2077    185629.14    10.472245    958.79298 
   67600   -1175.0935    187.47737    -987.6161    2906.5893    195363.14    10.472245    957.87677 
   67700   -1183.0743    180.23604   -1002.8383    2794.3221    191858.16    10.472245    959.30889 
   67800   -1178.8439    162.79315   -1016.0508     2523.893    191614.51    10.472245    960.50992 
   67900   -1173.8956    165.49401   -1008.4016    2565.7663    194903.97    10.472245    963.85013 
   68000    -1175.012    172.10541   -1002.9066    2668.2673     195474.1    10.472245    960.07254 
   68100   -1183.9059    172.38293    -1011.523    2672.5698    190539.48    10.472245    959.91235 
   68200    -1182.852    174.31675   -1008.5352    2702.5513    189822.25    10.472245    962.71026 
   68300   -1187.8902    173.81492   -1014.0753    2694.7711    186704.56    10.472245    962.77167 
   68400   -1176.8901    166.61469   -1010.2754     2583.141    191329.63    10.472245    962.61804 
   68500   -1171.0992    172.21996   -998.87928    2670.0433    197389.13    10.472245    962.24759 
   68600   -1200.1662    178.94584   -1021.2204    2774.3192    179107.03    10.472245    961.67017 
   68700   -1187.0326    173.97221   -1013.0604    2697.2096    187626.77    10.472245    961.54209 
   68800    -1180.472    180.27482   -1000.1972    2794.9233    193366.26    10.472245    969.19269 
   68900   -1180.3512    191.52261   -988.82863    2969.3054    195320.36    10.472245    971.29821 
   69000    -1181.718     169.6852   -1012.0328    2630.7451    190669.84    10.472245    972.74339 
   69100    -1185.789    171.13265   -1014.6563     2653.186    186595.35    10.472245    973.32901 
   69200   -1189.3274    166.83067   -1022.4968    2586.4894    184728.48    10.472245    980.71807 
   69300   -1186.5882    187.18264   -999.40552      2902.02    189778.43    10.472245    981.39155 
   69400   -1180.5132    167.68619    -1012.827    2599.7532    189183.23    10.472245    983.59916 
   69500    -1196.108    173.48659   -1022.6214    2689.6807    181198.53    10.472245    982.78816 
   69600    -1189.806    188.56726   -1001.2387    2923.4866    188504.45    10.472245    988.61113 
   69700   -1176.7228    168.16587    -1008.557      2607.19    193145.89    10.472245    990.56504 
   69800   -1187.3283    164.84886   -1022.4794    2555.7641    186047.26    10.472245    991.79625 
   69900   -1174.4222    174.70877    -999.7134     2708.629    196588.01    10.472245    993.09648 
   70000   -1179.2512    168.53953   -1010.7117     2612.983    190911.48    10.472245    993.73381 
   70100   -1174.4173    182.09199   -992.32527     2823.096    195534.62    10.472245    995.30277 
   70200     -1185.53    180.96462   -1004.5654    2805.6177    187203.37    10.472245    993.80993 
   70300   -1187.6356     176.7217   -1010.9139    2739.8367    188047.02    10.472245    991.41454 
   70400   -1183.7572    177.50444   -1006.2528    2751.9722    189131.08    10.472245     989.4834 
   70500   -1177.7615    184.97351   -992.78803    2867.7702     196289.6    10.472245    992.03772 
   70600   -1177.8194    162.75117   -1015.0683    2523.2422    191725.91    10.472245    989.92775 
   70700    -1185.979    172.94619   -1013.0328    2681.3026    187473.65    10.472245    990.97256 
   70800   -1175.0198    177.68203   -997.33773    2754.7255    196099.44    10.472245     991.0909 
   70900    -1180.244    175.92593    -1004.318    2727.4995    194065.87    10.472245    991.19344 
   71000    -1179.765    171.19961   -1008.5654    2654.2242       192508    10.472245    995.68295 
   71100   -1181.8442    178.20999   -1003.6342    2762.9108    189808.26    10.472245    1000.0768 
   71200   -1176.2976    175.94056    -1000.357    2727.7263    196587.25    10.472245    1005.4079 
   71300   -1192.0395    184.33109   -1007.7084    2857.8103    184328.83    10.472245     1006.833 
   71400   -1184.2965    173.09278   -1011.2038    2683.5751    188422.05    10.472245    1010.0577 
   71500   -1181.8664    187.64329   -994.22311    2909.1617    191680.29    10.472245    1012.2585 
   71600   -1185.6012    181.11135   -1004.4899    2807.8926    188228.04    10.472245    1012.7256 
   71700   -1181.1829    165.77218   -1015.4107    2570.0789    190489.28    10.472245    1015.3403 
   71800   -1175.1129    183.37649   -991.73641    2843.0105    196178.82    10.472245    1020.9905 
   71900   -1172.4361    175.65108   -996.78504    2723.2383    197879.64    10.472245    1022.8309 
   72000   -1183.1152    173.97785   -1009.1373    2697.2971    190891.99    10.472245    1022.6874 
   72100   -1178.7288    170.81916   -1007.9096    2648.3258    191812.97    10.472245    1023.3846 
   72200   -1186.6815    171.43278   -1015.2488    2657.8391    188505.92    10.472245    1025.0159 
   72300   -1187.5175    176.01578   -1011.5017    2728.8924    187547.49    10.472245    1026.6888 
   72400   -1185.3176    180.85665    -1004.461    2803.9437    192022.07    10.472245     1027.751 
   72500   -1185.1738    167.52822   -1017.6456     2597.304    189706.13    10.472245    1028.5257 
   72600   -1188.6549    171.68877   -1016.9662    2661.8079    185229.22    10.472245    1028.9887 
   72700   -1188.1868    184.55994   -1003.6269    2861.3584    190334.18    10.472245     1033.667 
   72800   -1187.7722    161.37471   -1026.3975    2501.9019    185016.61    10.472245    1032.1717 
   72900   -1186.8063    173.44066   -1013.3656    2688.9687    188147.05    10.472245    1035.1764 
   73000   -1176.2104    171.00808   -1005.2023    2651.2546    192569.69    10.472245    1038.4808 
   73100   -1164.7959    179.61824   -985.17762    2784.7439    201456.59    10.472245    1042.7381 
   73200   -1182.9179    177.04065   -1005.8772    2744.7818    189767.09    10.472245    1046.3425 
   73300   -1186.2198    176.15517   -1010.0646    2731.0535    189411.36    10.472245    1048.6303 
   73400   -1181.0879    185.61855    -995.4693    2877.7708    194074.31    10.472245    1053.7665 
   73500    -1191.789     173.7014   -1018.0876     2693.011    183031.03    10.472245     1050.351 
   73600   -1184.2863    173.38166   -1010.9046    2688.0539    189089.58    10.472245    1052.7506 
   73700    -1176.445    177.14914   -999.29581    2746.4637    194827.14    10.472245    1057.1734 
   73800   -1191.9678    177.02554   -1014.9423    2744.5474    185464.39    10.472245     1058.879 
   73900   -1177.1014    178.78286   -998.31857    2771.7924    196182.46    10.472245    1057.0776 
   74000   -1190.9222     180.6367   -1010.2855    2800.5338    186112.91    10.472245    1057.5512 
   74100   -1191.5489    176.74655   -1014.8023    2740.2221    185283.65    10.472245    1060.0584 
   74200    -1179.097    188.82564    -990.2714    2927.4925    194670.94    10.472245    1060.4568 
   74300   -1178.0061    178.73258   -999.27348    2771.0129    194890.48    10.472245    1063.0734 
   74400   -1185.1104    181.55779   -1003.5526     2814.814     189888.2    10.472245    1063.5297 
   74500   -1188.3854    163.77631    -1024.609    2539.1357    185108.18    10.472245    1066.3242 
   74600   -1188.0126    172.27213   -1015.7405    2670.8522    187484.61    10.472245    1066.7862 
   74700   -1183.8405    175.29769   -1008.5428    2717.7595    190484.34    10.472245    1068.9529 
   74800   -1182.2588    174.82505   -1007.4338    2710.4318    192531.19    10.472245    1070.9615 
   74900   -1177.3941    167.90625   -1009.4879    2603.1649    193236.24    10.472245    1071.8137 
   75000   -1188.2477    177.83899   -1010.4087    2757.1589    185996.74    10.472245    1075.3414 
   75100   -1178.8935    180.27939   -998.61415    2794.9942    193603.36    10.472245    1078.8659 
   75200   -1191.8042    169.44559   -1022.3586    2627.0303    185297.26    10.472245    1081.9146 
   75300   -1183.0122    173.46635   -1009.5458    2689.3669    189219.74    10.472245    1083.5481 
   75400   -1186.1491    176.96105    -1009.188    2743.5476     188296.7    10.472245    1086.8971 
   75500    -1185.802    179.73352   -1006.0685     2786.531    188475.02    10.472245    1090.2754 
   75600   -1179.6119    181.61408   -997.99777    2815.6868    193166.28    10.472245    1095.5797 
   75700   -1178.0504    165.48337    -1012.567    2565.6013    191137.26    10.472245    1094.4143 
   75800   -1176.2873    178.68499   -997.60233     2770.275     193656.5    10.472245    1093.2433 
   75900   -1183.0735    176.82118   -1006.2523    2741.3791    189384.91    10.472245     1093.622 
   76000   -1189.4406    176.13955    -1013.301    2730.8114    186057.15    10.472245    1097.6596 
   76100   -1176.5901    177.55213   -999.03795    2752.7116    194112.33    10.472245    1095.5242 
   76200   -1184.2512    162.70724   -1021.5439    2522.5611    186959.28    10.472245    1099.1567 
   76300   -1183.7688    172.31537   -1011.4534    2671.5224    188960.06    10.472245    1100.9876 
   76400   -1196.5698    188.46774   -1008.1021    2921.9437    182174.48    10.472245    1100.1333 
   76500   -1183.3459    173.51979   -1009.8261    2690.1954    189081.55    10.472245    1102.4581 
   76600   -1174.6953    184.85846   -989.83681    2865.9865    198040.51    10.472245    1103.5818 
   76700   -1183.9064     180.8192   -1003.0872    2803.3631    191067.02    10.472245    1104.4513 
   76800   -1183.2796    167.59608   -1015.6835    2598.3561    189575.91    10.472245    1104.1736 
   76900   -1174.9115    180.72134   -994.19017     2801.846    197105.77    10.472245    1106.3727 
   77000   -1184.2887    176.83444   -1007.4543    2741.5847     187805.8    10.472245    1102.9752 
   77100   -1190.5435    171.35639   -1019.1871    2656.6548    185558.32    10.472245    1105.9606 
   77200   -1184.4449    174.31611   -1010.1288    2702.5413    189323.41    10.472245    1106.6084 
   77300   -1178.4429    177.01031   -1001.4326    2744.3114    194417.36    10.472245    1110.1888 
   77400   -1190.7651    168.07427   -1022.6909    2605.7698    184034.89    10.472245     1112.154 
   77500     -1180.13    176.12689   -1004.0031     2730.615    191883.59    10.472245    1115.7919 
   77600   -1178.3536    174.51093   -1003.8427    2705.5617    191709.44    10.472245    1118.7472 
   77700   -1182.8039    175.21214   -1007.5917    2716.4331    190823.16    10.472245     1124.055 
   77800    -1184.107    159.93106    -1024.176    2479.5201     187926.6    10.472245    1123.0164 
   77900   -1184.1428    180.06055   -1004.0822    2791.6013    187935.41    10.472245    1125.6294 
   78000   -1183.3239    171.91068   -1011.4133    2665.2482    189836.76    10.472245    1129.2504 
[...]
   81400   -1187.7711    165.24547   -1022.5256     2561.913    186645.33    10.472245    1171.2826 
   81500   -1176.1676    170.79054    -1005.377    2647.8819    194317.79    10.472245    1169.6415 
   81600   -1179.2484    168.70782   -1010.5406    2615.5921    192249.02    10.472245    1173.1511 
   81700   -1192.0914    171.88609   -1020.2053    2664.8671    182093.87    10.472245    1175.2069 
   81800    -1178.894    170.86511   -1008.0288     2649.038    193349.62    10.472245    1177.8219 
   81900   -1176.3134     178.5298   -997.78364     2767.869    191555.59    10.472245    1180.6349 
   82000   -1188.3522    164.20676   -1024.1455    2545.8091     185772.6    10.472245    1183.8087 
   82100   -1188.3248    175.87829   -1012.4465    2726.7608    188075.01    10.472245    1183.1467 
   82200   -1179.2074    175.43282   -1003.7746    2719.8545    190165.59    10.472245    1187.5832 
   82300   -1192.8995    165.88338   -1027.0162     2571.803    182865.13    10.472245    1188.8789 
   82400   -1187.5955    177.34032   -1010.2552    2749.4277    187106.29    10.472245    1184.8074 
   82500   -1180.7066    175.13243   -1005.5741    2715.1972    189661.77    10.472245    1183.2268 
   82600    -1164.731     183.0141   -981.71694    2837.3921    201166.81    10.472245    1186.3654 
   82700   -1180.5668    173.75361   -1006.8132    2693.8204    192338.04    10.472245    1189.3892 
   82800   -1182.5536    166.13662    -1016.417    2575.7292    190255.73    10.472245     1189.571 
   82900   -1175.5939    176.17684   -999.41709    2731.3894    193835.42    10.472245    1189.2732 
   83000   -1190.2641    170.63915    -1019.625     2645.535    185455.94    10.472245    1192.1862 
   83100   -1187.8656    173.70588   -1014.1597    2693.0805    186360.98    10.472245    1193.8309 
   83200   -1171.8682    169.76375   -1002.1044     2631.963    196783.65    10.472245    1195.4286 
   83300   -1190.2898     161.8329   -1028.4569    2509.0056    183780.39    10.472245    1198.0916 
   83400   -1179.7469     169.8342   -1009.9127    2633.0552    192061.48    10.472245     1198.428 
   83500   -1184.6757    180.18769    -1004.488    2793.5724     189717.7    10.472245    1200.5591 
   83600   -1180.9243    183.68099   -997.24328    2847.7314    193877.45    10.472245    1200.7932 
   83700   -1194.0387    182.71178   -1011.3269     2832.705    185997.75    10.472245    1204.4708 
   83800   -1178.3146     165.9127   -1012.4019    2572.2575    191479.23    10.472245    1206.0869 
   83900   -1173.2738    180.14664   -993.12719    2792.9359    198833.19    10.472245    1208.5383 
   84000   -1195.3117    179.72896   -1015.5827    2786.4605     184780.3    10.472245    1210.4403 
   84100   -1177.0305    173.24253   -1003.7879    2685.8968    192688.32    10.472245    1209.2575 
   84200   -1179.2552    177.20606   -1002.0491    2747.3462     194973.2    10.472245    1210.8072 
   84300   -1191.2437    173.25668    -1017.987    2686.1163    184056.33    10.472245    1210.4966 
   84400   -1183.0315    182.31648   -1000.7151    2826.5765    191671.84    10.472245    1210.3968 
   84500   -1172.9194    171.56175   -1001.3577    2659.8386    193318.67    10.472245    1212.2936 
   84600   -1189.9657    174.66786   -1015.2979    2707.9948    184968.46    10.472245    1209.2226 
   84700   -1191.8863    174.37508   -1017.5112    2703.4555    184748.58    10.472245    1213.3931 
   84800   -1172.0807    175.92789   -996.15285    2727.5299    196183.73    10.472245    1213.9147 
   84900   -1183.7593    170.97995   -1012.7793    2650.8186    190824.71    10.472245    1216.3093 
   85000   -1180.1169    173.40705   -1006.7099    2688.4476     191585.3    10.472245    1219.6999 
   85100   -1194.0354    179.44072   -1014.5947    2781.9916     184376.6    10.472245    1221.9795 
   85200   -1180.5746    171.22393   -1009.3506    2654.6012    190684.37    10.472245     1222.066 
   85300   -1178.0472    178.39432   -999.65287    2765.7686    194741.47    10.472245    1224.3722 
   85400   -1189.8226    173.34332   -1016.4793    2687.4594    186329.84    10.472245    1223.0344 
   85500   -1182.1264    176.78397   -1005.3424    2740.8023    190144.05    10.472245    1226.3437 
   85600   -1172.9396    176.35956   -996.58003    2734.2223    195788.69    10.472245    1227.9251 
   85700    -1189.004    178.66824   -1010.3357    2770.0153    185879.43    10.472245    1232.2752 
   85800   -1188.5025    173.39528   -1015.1073    2688.2651    185987.88    10.472245    1234.2853 
   85900   -1175.9866      185.631    -990.3556    2877.9637    194904.57    10.472245    1238.8528 
   86000    -1173.499    175.72173   -997.77728    2724.3336    196265.86    10.472245    1240.1641 
   86100   -1198.1564    180.13188   -1018.0245    2792.7071    182400.08    10.472245    1244.0261 
   86200   -1178.6962    175.05593   -1003.6403    2714.0113    193309.41    10.472245     1245.069 
   86300   -1178.5586    174.84215   -1003.7165    2710.6968    193155.65    10.472245    1245.0232 
   86400   -1180.4508    162.06673   -1018.3841    2512.6308    189864.48    10.472245    1246.6526 
   86500   -1176.4701    174.98057   -1001.4896    2712.8428    195151.13    10.472245    1248.4682 
   86600   -1170.5994    172.52561   -998.07378     2674.782    198151.17    10.472245    1249.7982 
   86700    -1178.777    162.03232   -1016.7446    2512.0973    191512.75    10.472245    1247.0138 
   86800   -1179.6471    183.66188   -995.98524    2847.4351    192782.28    10.472245    1250.7778 
   86900   -1180.9901    177.12048   -1003.8696    2746.0194    190438.94    10.472245    1250.5278 
   87000   -1187.2844    166.96634   -1020.3181    2588.5928    185776.84    10.472245    1255.7836 
   87100    -1178.489    177.02353   -1001.4655    2744.5162     191974.1    10.472245     1259.297 
   87200   -1175.8372    170.84216   -1004.9951    2648.6823    192179.14    10.472245    1258.3142 
   87300   -1187.1244    168.04581   -1019.0786    2605.3286    186382.93    10.472245    1260.3807 
   87400    -1190.311    184.85798    -1005.453    2865.9791    185882.41    10.472245    1261.9489 
   87500   -1182.0125    175.03463   -1006.9779     2713.681    191850.92    10.472245    1266.8804 
   87600   -1186.6887    164.79672    -1021.892    2554.9558    186061.55    10.472245    1269.0869 
   87700   -1182.5317    183.83015   -998.70151     2850.044     191939.5    10.472245    1269.7632 
   87800   -1186.9252    175.56904   -1011.3562    2721.9664    187449.98    10.472245    1271.3026 
   87900   -1189.4505    174.89164   -1014.5589    2711.4642    185719.29    10.472245    1275.1989 
   88000   -1183.0561    186.33898   -996.71716      2888.94    193046.41    10.472245    1280.1558 
   88100   -1178.3016    165.73617   -1012.5654    2569.5206    191993.56    10.472245    1284.1148 
   88200   -1180.1461    168.99589   -1011.1502    2620.0583    192583.82    10.472245     1284.776 
   88300   -1177.5074    175.73724   -1001.7701     2724.574     194096.2    10.472245    1284.3637 
   88400   -1188.8896    166.61043   -1022.2792     2583.075    188226.89    10.472245    1288.5005 
   88500   -1177.0094     170.9065   -1006.1029    2649.6798    193045.47    10.472245    1291.2968 
   88600   -1183.7363    177.74346   -1005.9929    2755.6779    190552.52    10.472245    1292.9939 
   88700   -1187.6816    172.19552   -1015.4861    2669.6644    186997.48    10.472245    1292.1299 
   88800   -1182.1856    170.91912   -1011.2665    2649.8755    189321.64    10.472245    1294.4749 
   88900   -1185.9245    182.17875   -1003.7458    2824.4412    188568.66    10.472245    1293.3555 
   89000   -1196.5139    169.62256   -1026.8914     2629.774    180561.66    10.472245    1294.4618 
   89100   -1173.9138     164.6707   -1009.2431    2553.0019     195148.1    10.472245    1294.1405 
   89200   -1175.8615    175.85098   -1000.0105    2726.3374    195305.67    10.472245    1297.5916 
   89300   -1189.5102    171.16543   -1018.3448    2653.6942    186361.46    10.472245    1301.4564 
   89400   -1186.0334    171.27907   -1014.7543     2655.456    186447.43    10.472245    1299.5792 
   89500   -1185.3846    184.62431   -1000.7602    2862.3564    189831.07    10.472245    1299.7142 
   89600    -1186.939    163.76128   -1023.1777    2538.9025    186687.11    10.472245    1302.9664 
   89700   -1184.5182    179.58469   -1004.9335    2784.2236    190866.27    10.472245    1300.8884 
   89800   -1187.2901    165.62726   -1021.6629    2567.8321    185991.83    10.472245    1300.9434 
   89900   -1194.3856    174.78979   -1019.5958     2709.885    183604.37    10.472245    1307.1031 
   90000   -1185.3206    182.47126   -1002.8494    2828.9762    189722.56    10.472245     1306.899 
   90100   -1181.4929    172.93598   -1008.5569    2681.1443    191184.69    10.472245     1307.604 
   90200   -1186.4321    164.66072   -1021.7714    2552.8472    187769.42    10.472245    1307.0247 
   90300   -1184.1121     177.8758   -1006.2363    2757.7296    189086.72    10.472245    1312.2027 
   90400   -1176.4472    179.00572   -997.44146    2775.2475     192791.3    10.472245    1311.8847 
   90500   -1190.7725    173.24208   -1017.5304    2685.8899    184937.03    10.472245    1310.1059 
   90600   -1182.5184    173.60681   -1008.9116    2691.5445     189508.4    10.472245     1314.015 
   90700    -1178.892    168.88163   -1010.0103    2618.2868    191506.73    10.472245    1316.7077 
   90800    -1192.926    170.32597      -1022.6    2640.6795    184559.38    10.472245    1317.1005 
   90900   -1184.7429     171.4761   -1013.2668    2658.5108    188877.06    10.472245    1321.8936 
   91000   -1181.4691    177.11006    -1004.359    2745.8578    190847.46    10.472245    1322.8465 
   91100    -1197.224    169.43577   -1027.7883    2626.8781    183065.18    10.472245    1323.0834 
   91200   -1185.0267    166.68697   -1018.3397    2584.2615    187367.98    10.472245     1321.192 
   91300   -1182.2596    175.19977   -1007.0598    2716.2413    190017.96    10.472245    1319.5255 
   91400    -1184.732    179.26319   -1005.4688    2779.2392    190345.24    10.472245    1323.3155 
   91500   -1186.6206    173.14268   -1013.4779    2684.3488    189679.71    10.472245    1325.9848 
   91600   -1176.6479    177.79446   -998.85346    2756.4685    195338.42    10.472245    1326.8697 
   91700   -1177.7562    172.31705   -1005.4391    2671.5485    192773.59    10.472245    1327.2866 
   91800   -1193.0313    174.78062   -1018.2507    2709.7429    182933.38    10.472245    1327.5191 
   91900    -1186.864    180.80412   -1006.0599    2803.1294    189912.42    10.472245    1325.0481 
   92000   -1179.9504    174.87534   -1005.0751    2711.2114    191507.39    10.472245    1329.6215 
   92100   -1183.0201    170.66506   -1012.3551    2645.9366    189129.68    10.472245    1333.8535 
   92200   -1176.4882      173.407   -1003.0812    2688.4468    193880.12    10.472245     1335.892 
   92300   -1171.4937     177.7713   -993.72244    2756.1095    196774.89    10.472245    1338.4555 
   92400   -1189.7801    173.59939   -1016.1807    2691.4295    186756.03    10.472245    1341.8883 
   92500   -1174.2342    167.31891   -1006.9153     2594.059    194178.19    10.472245    1343.3671 
   92600   -1173.8572    177.38189   -996.47528    2750.0722    194442.71    10.472245    1344.5309 
   92700   -1187.8325    167.17951    -1020.653    2591.8977    184343.68    10.472245    1348.1859 
   92800   -1189.0923    180.03792   -1009.0544    2791.2505    187932.34    10.472245    1347.7644 
   92900    -1185.232    181.06349   -1004.1685    2807.1506    187435.46    10.472245    1351.7232 
   93000   -1182.2471    169.98119   -1012.2659    2635.3341    190276.91    10.472245    1351.5497 
   93100   -1171.1221    169.05686   -1002.0652    2621.0035    197906.26    10.472245    1350.7897 
   93200   -1170.3376    178.77423   -991.56334    2771.6585    199466.82    10.472245    1350.6302 
   93300   -1180.3462    167.56387   -1012.7823    2597.8567    191642.07    10.472245    1354.0819 
   93400   -1184.9293    179.29091   -1005.6384     2779.669    190030.32    10.472245    1355.4365 
   93500   -1174.6144     187.8678   -986.74664    2912.6424     196502.8    10.472245    1358.8419 
   93600   -1181.1633    175.14843   -1006.0149    2715.4453    194214.43    10.472245     1361.909 
   93700   -1185.5831    170.88221   -1014.7009    2649.3032    188373.92    10.472245    1369.9845 
   93800   -1173.0179    181.01097   -992.00693    2806.3363    197022.83    10.472245    1372.0776 
   93900   -1177.7051    171.71509     -1005.99    2662.2159    194377.94    10.472245    1375.6214 
   94000   -1189.8946    175.17497   -1014.7196    2715.8567    186512.26    10.472245    1375.4587 
   94100   -1184.7497     178.1877    -1006.562    2762.5652    189214.26    10.472245    1379.3849 
   94200   -1184.0577     185.0699   -998.98783    2869.2646    190012.46    10.472245    1378.6915 
   94300   -1179.7271    168.23741   -1011.4897    2608.2991    191594.97    10.472245     1379.233 
   94400    -1191.011    180.35278   -1010.6582     2796.132    186497.95    10.472245    1378.9706 
   94500   -1164.5508    176.47953   -988.07131    2736.0822    200993.05    10.472245    1376.6144 
   94600   -1196.8554    183.00366   -1013.8517    2837.2303    183357.39    10.472245    1377.3527 
   94700    -1185.385     169.5553   -1015.8297    2628.7312     187448.2    10.472245    1379.1135 
   94800   -1180.4866    183.91563   -996.57094    2851.3692    191678.88    10.472245    1379.4675 
   94900   -1189.3133    173.72428    -1015.589    2693.3658    186948.76    10.472245    1377.4125 
   95000   -1183.0279    169.03665   -1013.9913    2620.6902    189970.48    10.472245    1378.8411 
   95100   -1178.2702    180.02616   -998.24401    2791.0681       194224    10.472245    1378.3502 
   95200   -1176.7299    161.49655   -1015.2333     2503.791    195257.03    10.472245    1378.5304 
   95300   -1190.1098    172.06281    -1018.047    2667.6069    183772.49    10.472245    1379.4011 
   95400   -1178.1556    178.54125   -999.61435    2768.0466    193766.96    10.472245    1383.5523 
   95500   -1179.1362    170.58663   -1008.5496    2644.7207    190967.13    10.472245    1384.8976 
   95600   -1177.8627    168.33281   -1009.5298    2609.7781    193265.14    10.472245    1386.0907 
   95700   -1175.8154    184.12883   -991.68656    2854.6746    197012.62    10.472245    1390.5902 
   95800   -1179.4819    163.78674   -1015.6952    2539.2974    191414.61    10.472245    1391.4836 
   95900   -1179.9423    174.50087   -1005.4415    2705.4058    191140.21    10.472245    1393.1393 
   96000   -1174.1161     168.9712   -1005.1449    2619.6755    194123.76    10.472245     1392.897 
   96100   -1191.0299    170.40823   -1020.6216    2641.9548    183946.89    10.472245    1394.0866 
   96200   -1183.7017    181.99703   -1001.7046    2821.6238    191510.19    10.472245    1391.6845 
   96300   -1184.1849    172.35919   -1011.8257    2672.2019    189134.23    10.472245    1390.7197 
   96400   -1177.2361    171.00676   -1006.2293    2651.2341    193436.41    10.472245    1388.3348 
   96500   -1180.5087    184.89102   -995.61769    2866.4914    192665.09    10.472245    1394.5118 
   96600   -1182.0163    170.87281   -1011.1435    2649.1575    189737.82    10.472245    1392.0448 
   96700   -1182.7191    183.49583   -999.22325    2844.8607    192556.23    10.472245    1393.7268 
   96800    -1176.512    178.66555   -997.84642    2769.9737     193943.6    10.472245    1395.0331 
   96900   -1190.4338    168.28691   -1022.1469    2609.0665    185540.54    10.472245    1397.1416 
   97000   -1176.4341    174.62438   -1001.8097    2707.3206    195102.96    10.472245    1399.0711 
   97100   -1179.0703    173.30247   -1005.7678    2686.8262    192413.98    10.472245    1395.5822 
   97200   -1179.1842    162.94783   -1016.2363    2526.2912    190952.94    10.472245    1398.6106 
   97300   -1186.2816    176.28103   -1010.0006    2733.0048    186511.28    10.472245    1400.8912 
   97400    -1183.702    179.36776   -1004.3342    2780.8604    190797.85    10.472245    1405.2894 
   97500   -1184.8109    175.89728   -1008.9136    2727.0552    189478.02    10.472245    1410.3654 
   97600    -1182.483    164.42571   -1018.0573    2549.2036    188732.51    10.472245    1415.7888 
   97700   -1180.1331    182.57168   -997.56141    2830.5331    192152.66    10.472245    1416.5984 
   97800   -1184.0345    179.28633   -1004.7481    2779.5981    190437.42    10.472245    1415.8805 
   97900   -1180.9073    166.99003   -1013.9173    2588.9601    190920.32    10.472245    1415.9086 
   98000   -1174.7264    184.00012   -990.72625    2852.6791    196761.04    10.472245    1417.3541 
   98100   -1181.7869    176.99176   -1004.7951    2744.0237    191146.76    10.472245    1415.5126 
   98200    -1171.836    165.21841   -1006.6176    2561.4935    193524.72    10.472245    1417.1382 
   98300   -1182.1144    179.46253   -1002.6519    2782.3297    190395.73    10.472245    1422.5782 
   98400   -1197.6435    171.60877   -1026.0347    2660.5675    182215.03    10.472245     1421.759 
   98500   -1194.9405    181.48861   -1013.4519    2813.7414    182338.47    10.472245    1424.3677 
   98600    -1184.733    179.10995    -1005.623    2776.8635       190151    10.472245    1429.8223 
   98700   -1182.5282    176.45766   -1006.0705    2735.7432    189025.55    10.472245    1432.5212 
   98800   -1196.9405    167.46481   -1029.4757     2596.321    178754.99    10.472245    1432.0912 
   98900   -1181.3589    171.77268   -1009.5862    2663.1088    189471.63    10.472245    1432.4232 
   99000   -1177.6972    175.06953   -1002.6277    2714.2221    193551.49    10.472245    1433.5942 
   99100   -1186.9532    164.88627   -1022.0669    2556.3441    185463.07    10.472245    1431.5919 
   99200   -1174.8823    172.62424    -1002.258    2676.3112    195289.51    10.472245    1434.5561 
   99300   -1180.6435    170.80778   -1009.8357    2648.1493    190562.88    10.472245    1438.2308 
   99400   -1182.0072    168.45375   -1013.5535    2611.6532    189869.52    10.472245    1439.4843 
   99500   -1169.2934    180.58868   -988.70476    2799.7892    197864.47    10.472245    1439.7354 
   99600   -1180.3536    172.57821   -1007.7754    2675.5975    190275.23    10.472245    1441.8053 
   99700   -1194.0183    185.41279   -1008.6055    2874.5807    184731.02    10.472245    1446.4973 
   99800   -1182.9305    167.53112   -1015.3994     2597.349    191062.58    10.472245    1448.2964 
   99900   -1184.7458    177.53969   -1007.2061    2752.5187    188802.72    10.472245    1451.6679 
  100000   -1181.4908    176.11915   -1005.3716    2730.4951    191832.87    10.472245    1452.4351 
Loop time of 147.358 on 1 procs for 100000 steps with 500 atoms

Performance: 293.163 ns/day, 0.082 hours/ns, 678.619 timesteps/s
100.0% CPU use with 1 MPI tasks x no OpenMP threads

MPI task timing breakdown:
Section |  min time  |  avg time  |  max time  |%varavg| %total
---------------------------------------------------------------
Pair    | 87.278     | 87.278     | 87.278     |   0.0 | 59.23
Neigh   | 8.5376     | 8.5376     | 8.5376     |   0.0 |  5.79
Comm    | 1.3908     | 1.3908     | 1.3908     |   0.0 |  0.94
Output  | 0.037651   | 0.037651   | 0.037651   |   0.0 |  0.03
Modify  | 49.847     | 49.847     | 49.847     |   0.0 | 33.83
Other   |            | 0.267      |            |       |  0.18

Nlocal:    500 ave 500 max 500 min
Histogram: 1 0 0 0 0 0 0 0 0 0
Nghost:    2137 ave 2137 max 2137 min
Histogram: 1 0 0 0 0 0 0 0 0 0
Neighs:    26253 ave 26253 max 26253 min
Histogram: 1 0 0 0 0 0 0 0 0 0

Total # of neighbors = 26253
Ave neighs/atom = 52.506
Neighbor list builds = 7748
Dangerous builds = 226
Total wall time: 0:02:27
