LAMMPS (3 Mar 2020)

    # ---------- Initialize simulation ---------------------
    units metal
    atom_style atomic
    dimension  3
    boundary   p p p
    read_data /home/modeler/RemLabs/Lab4/ProblemEC1_v4_size_2/temp_1240/lammps.data
  orthogonal box = (0 0 0) to (8.18 8.18 8.18)
  1 by 1 by 1 MPI processor grid
  reading atoms ...
  32 atoms
  read_data CPU = 0.000904771 secs

    pair_style eam
    pair_coeff * * /usr/share/lammps-stable/potentials/Ag_u3.eam
Reading potential file /usr/share/lammps-stable/potentials/Ag_u3.eam with DATE: 2007-06-11

    velocity  all create 1240 87287 dist gaussian

    # ---------- Describe computed properties------------------
    compute msdall all msd
    thermo_style custom step pe ke etotal temp press density c_msdall[4]
    thermo 100

    # ---------- Specify ensemble  ---------------------
    #fix  1 all nve
    #fix  1 all nvt temp 1240 1240 0.25
    fix 1 all npt temp 1240 1240 0.25 tchain 2 iso 1.0 1.0 1.0 pchain 2

    # --------- Compute RDF ---------------
    compute rdfall all rdf 100 1 1
    fix 2 all ave/time 1 125000 125000 c_rdfall[*] file /home/modeler/RemLabs/Lab4/ProblemEC1_v4_size_2/temp_1240/lammps.rdf mode vector

    # --------- Run -------------
    timestep 0.005
    run 500000
Neighbor list info ...
  update every 1 steps, delay 10 steps, check yes
  max neighbors/atom: 2000, page size: 100000
  master list distance cutoff = 7.55
  ghost atom cutoff = 7.55
  binsize = 3.775, bins = 3 3 3
  2 neighbor lists, perpetual/occasional/extra = 1 1 0
  (1) pair eam, perpetual
      attributes: half, newton on
      pair build: half/bin/atomonly/newton
      stencil: half/bin/3d/newton
      bin: standard
  (2) compute rdf, occasional, copy from (1)
      attributes: half, newton on
      pair build: copy
      stencil: none
      bin: none
Per MPI rank memory allocation (min/avg/max) = 3.706 | 3.706 | 3.706 Mbytes
Step PotEng KinEng TotEng Temp Press Density c_msdall[4] 
       0        -91.2      4.96876    -86.23124         1240    9696.2678    10.472245            0 
     100   -88.192004    3.3094513   -84.882553    825.90417   -12757.398    9.8967196  0.046266948 
     200    -86.51315    2.8203849   -83.692765    703.85313    -15288.34    9.6656579  0.097643455 
     300   -86.624275    3.9929034   -82.631372    996.46597    246.76609    9.8101853   0.11237915 
     400   -85.943033    4.4467766   -81.496256    1109.7342    20402.557    9.9493672    0.1020647 
     500   -85.648303    5.1647413   -80.483562     1288.909    1522.2142    9.6725851   0.11835932 
     600   -85.256877    5.4497296   -79.807148    1360.0304   -7620.5969    9.4708849   0.11966673 
     700   -86.225684    5.4353319   -80.790352    1356.4373   -25790.065     9.454341   0.10081845 
     800   -85.879697    3.7587162   -82.120981    938.02239   -1232.0951    9.6827412   0.13056757 
     900   -84.798539    4.4350724   -80.363466    1106.8133   -7837.0468    9.4756167   0.15002811 
    1000   -85.263061    5.6393227   -79.623738    1407.3451   -4117.5974     9.552257   0.13689502 
    1100   -86.728209    4.9996121   -81.728597    1247.6994    17645.514    9.9905728  0.088795893 
    1200   -86.183998    4.8911841   -81.292814    1220.6402    3364.5286    9.7722218  0.091148746 
    1300   -83.787902    4.1614281   -79.626474    1038.5229   -2230.2409    9.3932872   0.18730229 
    1400   -84.654901    4.3645006     -80.2904    1089.2015   -4778.7386    9.4801407   0.16408156 
    1500   -86.939017    4.6217888   -82.317228    1153.4101   -7944.0508    9.7431275  0.091109959 
    1600   -84.939394    5.0828266   -79.856568    1268.4664     5873.716    9.6575257    0.1166126 
    1700   -85.401738    5.3910223   -80.010716    1345.3795   -4158.9687    9.6044624   0.10774603 
    1800   -85.133509    4.0012023   -81.132307    998.53704    19963.596    9.8407617    0.1506588 
    1900   -83.817122    5.0797811   -78.737341    1267.7063   -20109.399    9.1713603   0.23304161 
    2000   -84.391068    5.7232588   -78.667809    1428.2922   -1667.7866     9.425646   0.14572573 
    2100   -85.175897    4.9599631   -80.215934    1237.8047    4417.7445    9.6498419    0.1462609 
    2200   -85.054118    4.0190891   -81.035029    1003.0008    10177.926     9.727278   0.11518122 
    2300   -85.222939    6.2366171   -78.986322    1556.4055   -6548.5601    9.4870601   0.11418827 
    2400   -84.042985    6.2641718   -77.778814     1563.282    12522.746    9.5401417   0.15034873 
    2500   -85.236024    5.3405299   -79.895494    1332.7786     6078.371    9.6825823   0.12949044 
    2600   -85.250705    4.4926444   -80.758061    1121.1809   -938.22481    9.6142232   0.14034925 
    2700   -83.866598    5.5073486   -78.359249    1374.4098   -6063.7791    9.3270623   0.16860261 
    2800   -84.765808    6.5354819   -78.230327    1630.9899    19551.498    9.7152878   0.14994495 
    2900   -85.393871    4.7752369   -80.618634    1191.7045     6592.704    9.6766663     0.143225 
    3000    -84.87958    5.0044667   -79.875114     1248.911   -34474.348    9.1862816   0.14898962 
    3100   -83.643418    5.3155917   -78.327826    1326.5551   -14073.196    9.1830643   0.25518377 
    3200   -83.464738    5.8831177    -77.58162    1468.1864   -20360.343    9.1307032   0.18575805 
    3300   -85.382685    4.9709974   -80.411688    1240.5584    20169.601     9.850898   0.11176742 
    3400   -85.419655    5.1307646    -80.28889    1280.4298    4094.4335    9.7045529   0.11305249 
    3500   -85.020753    5.1207994   -79.899954    1277.9428    5008.6728    9.5929222    0.1264506 
    3600   -81.220624    4.2411173   -76.979507      1058.41    30870.912    9.4286898   0.24309231 
    3700   -84.359451    5.6409306    -78.71852    1407.7464    1934.4339    9.4677423   0.14840036 
    3800   -84.163457    4.1975557   -79.965902    1047.5388   -7485.3396     9.336942   0.17367106 
    3900   -85.061277     4.929262   -80.132015    1230.1429   -27371.706    9.2348389   0.14357347 
    4000    -85.45031    3.9039431   -81.546367     974.2651   -366.23885    9.6482138  0.091467685 
    4100   -86.540867    3.7383648   -82.802503     932.9435    18842.457    10.012612  0.097743459 
    4200   -86.192279     5.929288   -80.262991    1479.7086   -13340.945    9.5483077    0.1001192 
    4300   -85.193586    5.0853776   -80.108209     1269.103    9793.6109    9.6877483   0.14730687 
    4400   -85.315658     5.357984   -79.957674    1337.1345    13723.588    9.7771588   0.11184158 
    4500    -86.67139    4.1654608   -82.505929    1039.5293    5092.9288    9.8726669  0.093802195 
    4600   -85.472825    4.0171118   -81.455714    1002.5074   -11957.614    9.5007426   0.12390467 
    4700   -84.188408    4.0539184    -80.13449    1011.6928    -18307.28    9.2825719    0.1659223 
    4800   -85.220769    5.4651633   -79.755606     1363.882   -25291.502    9.3455383   0.15838301 
    4900   -85.965175    5.7962845    -80.16889    1446.5164    6767.9186    9.7517157   0.14707121 
    5000   -86.795803    4.4216812   -82.374122    1103.4714    5158.7186    9.9017291  0.071118964 
    5100   -86.017716    5.5902305   -80.427485    1395.0937   -12593.104    9.5431198   0.11288237 
    5200   -83.536467    4.2499935   -79.286474    1060.6252    28802.684    9.7147326   0.18705462 
    5300   -84.871959    4.5876542   -80.284305    1144.8915   -14981.364    9.4159363   0.15381198 
    5400   -86.250157      4.32507   -81.925087    1079.3612   -28077.075    9.4562501   0.11261525 
    5500   -85.387374    5.6920357   -79.695339    1420.5002   -4582.0056    9.5706964   0.11657399 
    5600   -84.884783    5.9064691   -78.978314     1474.014    19619.626    9.7339976   0.13226059 
    5700   -84.927433    4.0675927    -80.85984    1015.1054    7992.1953    9.6675657   0.14029651 
    5800   -85.083229    3.8659025   -81.217327    964.77172   -908.06326    9.5682058   0.13329032 
    5900   -84.808958    5.8386435   -78.970314    1457.0875    1571.1094    9.5300652   0.11249014 
    6000    -85.56635    4.9462017   -80.620148    1234.3704    14895.888    9.8243693   0.11099073 
    6100   -87.005414    5.8841835   -81.121231    1468.4524    1434.1775    9.8598458  0.082432776 
    6200   -85.758475    7.1056251    -78.65285    1773.2744     -34973.9    9.2714683   0.10782688 
    6300   -85.288403     5.278059   -80.010344    1317.1884   -305.01502    9.5985951   0.13275702 
    6400   -86.265549    4.7422339   -81.523315    1183.4683    6942.8735    9.8197555   0.10144441 
    6500   -84.241029    4.9364567   -79.304572    1231.9384   -1062.8161    9.4556382     0.167846 
    6600   -84.086558    4.4500817   -79.636476    1110.5591   -775.34344    9.4189919   0.16219678 
    6700   -85.957781    4.2856259   -81.672156    1069.5176   -10036.648    9.6123904   0.11670006 
    6800   -85.177434    5.4686653   -79.708769     1364.756   -9892.7052    9.4867098    0.1346053 
    6900   -83.671951    4.7993417   -78.872609    1197.7201     9914.663    9.5103658   0.16673294 
    7000   -86.051238    4.6505719   -81.400666    1160.5932    32583.275    10.057967   0.10301386 
    7100   -85.992035    5.3445879   -80.647447    1333.7913   -19917.588     9.482192   0.10707135 
    7200   -84.293966    4.9888453   -79.305121    1245.0125    1176.5242    9.5189901   0.20376548 
    7300   -84.538327    4.0770379   -80.461289    1017.4625    20278.884    9.7631165   0.12873082 
    7400   -86.493982    4.7088665   -81.785116    1175.1412   -5823.5907    9.7325527  0.099806363 
    7500    -84.52363    4.6237942   -79.899836    1153.9106   -7527.6164    9.4211817   0.13497943 
    7600   -84.813394    5.2136646   -79.599729    1301.1182   -6512.0659    9.4576677   0.16410149 
    7700   -86.566645    4.6678908   -81.898754    1164.9153    9846.9925    9.8913571   0.08512217 
    7800   -86.083007    4.7956323   -81.287374    1196.7944    27484.092    10.008987  0.098856664 
    7900   -84.970219    5.0296887    -79.94053    1255.2053    5911.7361    9.5971846   0.17214379 
    8000   -83.993036    4.5345516   -79.458485    1131.6393   -32073.871    9.0711643   0.18458268 
    8100   -85.206312    3.6507306   -81.555582    911.07358   -12641.837    9.4900365   0.15468655 
    8200   -86.327859    4.6652687   -81.662591    1164.2609    6270.7535     9.828175  0.096159305 
    8300   -84.394061    4.6841534   -79.709908    1168.9738    25235.154     9.768929   0.13835282 
    8400   -85.296006    5.5587054   -79.737301    1387.2263    3160.7993    9.6280895   0.11097208 
    8500   -85.450832    3.2893641   -82.161468    820.89123     6071.216    9.7324474   0.11995502 
    8600   -84.277143    3.9333118   -80.343832    981.59433   -6750.6721    9.4393047   0.14741767 
    8700    -83.55669    3.9844306    -79.57226    994.35151    26792.177    9.7042242   0.13513771 
    8800   -85.679219    5.1249084   -80.554311    1278.9683    28221.547     9.971248   0.12441846 
    8900   -85.932904     5.741072   -80.191832    1432.7376     2449.584    9.7157091    0.1071262 
    9000   -83.392788    5.4896622   -77.903126     1369.996   -3516.8315    9.3226272   0.21484353 
    9100   -83.799196     4.306547   -79.492649    1074.7386    -6110.793     9.330805   0.18387906 
    9200   -84.338628    3.4817942   -80.856834    868.91395   -15628.934    9.3425945   0.15745204 
    9300   -84.707088     4.677029   -80.030059    1167.1958    19973.759    9.7526123   0.12659064 
    9400   -83.295277    5.5884997   -77.706777    1394.6618    36275.334    9.7115844   0.15199379 
    9500   -85.005127    4.5860703   -80.419056    1144.4962    8632.0672    9.6874583   0.14458849 
    9600   -85.236561    4.8305144   -80.406047    1205.4995   -9801.4712    9.4787167   0.14774305 
    9700   -83.739214    5.6981059   -78.041108     1422.015   -18360.529    9.1820574   0.21340642 
    9800   -83.484139    4.6584606   -78.825679    1162.5619    5247.6054     9.434117   0.17095182 
    9900   -84.733422    4.3226085   -80.410814    1078.7469     17367.72     9.742565   0.15430611 
   10000   -85.803042    5.6419345   -80.161107    1407.9969   -2973.4476    9.6244965   0.12181247 
   10100   -83.439953    5.6233105   -77.816643    1403.3491    6345.7128    9.4045981   0.16263717 
   10200   -82.844106     4.853512   -77.990594    1211.2388   -5733.0738    9.2170659   0.26045411 
   10300   -84.836186    4.3931136   -80.443073    1096.3421    -17778.75    9.3838882   0.14513778 
   10400   -86.186035     5.915435     -80.2706    1476.2515    3878.6897    9.7593228   0.10552293 
   10500   -84.756616    6.0032909   -78.753325    1498.1768    24549.281    9.8074221   0.14823635 
   10600   -81.649629    5.3882654   -76.261363    1344.6915     2463.735    9.1492769   0.28196466 
   10700   -84.608797     5.051766   -79.557031    1260.7149   -8815.3504    9.4050776   0.18061583 
   10800   -85.513179    5.7287154   -79.784464    1429.6539   -1433.2538    9.6245101   0.11740314 
   10900   -85.044383    4.2241152   -80.820267     1054.167    15588.239    9.7587688   0.12929508 
   11000   -87.089204    4.8334326   -82.255771    1206.2278   -17497.846      9.67172  0.074825173 
   11100   -87.471517    4.5294676   -82.942049    1130.3705   -9340.3439    9.8137458  0.072012849 
   11200   -85.718533    4.9982276   -80.720305    1247.3539    25196.239    9.9522309   0.10336768 
   11300   -85.941157    5.9165502   -80.024607    1476.5298   -1245.8854    9.6713331   0.10971854 
   11400   -84.348991    5.2198863   -79.129104    1302.6709   -14477.114    9.3165919   0.16348542 
   11500    -82.90882    5.1924502    -77.71637     1295.824   -13459.436    9.0567482   0.23987304 
   11600   -84.560802    3.5458463   -81.014956    884.89874   -12939.771     9.422963   0.13897635 
   11700   -85.203357    4.5314397   -80.671918    1130.8627    9548.8155    9.7051921   0.13193311 
   11800   -85.056316    5.6536723   -79.402644    1410.9262    30469.006    9.9236725   0.12931823 
   11900   -83.232382    5.4592404   -77.773142    1362.4039    19421.776    9.5407078   0.16712046 
   12000   -85.281683    5.3576701   -79.924013    1337.0561   -29932.213    9.3023003   0.17255969 
   12100   -84.864828    4.3178795   -80.546948    1077.5668    -7701.067    9.4766491   0.15978906 
   12200   -84.907506    4.8243494   -80.083157     1203.961    2070.8425    9.5544272   0.13806812 
   12300   -84.451842    6.1830558   -78.268786    1543.0388    20894.989    9.6887821    0.1375983 
   12400    -84.55064    3.7811245   -80.769515    943.61459    10447.834    9.6580846   0.17532108 
   12500   -85.453759    4.6070769   -80.846682    1149.7386   -22621.592    9.3971109    0.1267104 
   12600   -83.880218    4.4278777    -79.45234    1105.0178    7458.0729    9.4569539   0.18028129 
   12700   -83.482595    4.8429467   -78.639649    1208.6021    15227.047    9.5232779   0.19510485 
   12800   -87.242735    5.7765433   -81.466192    1441.5898   -15941.347    9.6885204  0.086794668 
   12900   -85.050688    4.5998081    -80.45088    1147.9246   -19778.304    9.3968812   0.16006259 
   13000   -83.966313    5.1183477   -78.847965     1277.331   -30891.905    9.1341543   0.19585536 
   13100    -86.08643     5.450219   -80.636211    1360.1526   -9073.1014    9.6129799   0.11315638 
   13200   -86.303187    5.2335601   -81.069627    1306.0833    41855.025     10.18795  0.090657344 
   13300   -84.792631    5.6363862   -79.156245    1406.6123    12409.071    9.6567006   0.11579407 
   13400   -84.887129    4.6948794   -80.192249    1171.6506    430.57898    9.5455469   0.14904685 
   13500   -85.811443    3.8845271   -81.926916    969.41966   -18126.889    9.4926298    0.1317841 
   13600   -84.126949    4.6070358   -79.519913    1149.7284   -2179.2727    9.4595431   0.16548922 
   13700   -84.946773    5.2975166   -79.649257    1322.0442    11986.601    9.7015523   0.13729019 
   13800   -86.685948    5.2754063   -81.410542    1316.5264    17065.679    9.9784427  0.082659293 
   13900   -85.179276     5.479042   -79.700234    1367.3456   -4168.0804    9.5870302   0.12382583 
   14000   -83.787271    5.2162551   -78.571016    1301.7647    17766.675    9.6116258   0.16310217 
   14100   -85.080191    4.3533195   -80.726872    1086.4111    11277.602    9.7015594   0.10380646 
   14200    -85.30945    4.8350448   -80.474405    1206.6301   -34966.811    9.2321671   0.14792208 
   14300   -83.292794    5.0073988   -78.285396    1249.6427   -13282.575    9.1624616   0.19514849 
   14400   -86.106208    5.4768046   -80.629404    1366.7872    -120.8011    9.6831753  0.094118298 
   14500   -85.924412    5.0551456   -80.869267    1261.5583    9823.2343    9.7710327   0.12867037 
   14600   -84.664272    5.8158795   -78.848392    1451.4065   -17707.027    9.3330544   0.14605368 
   14700    -85.40456     4.788798   -80.615762    1195.0888   -18728.137     9.425326   0.15782549 
   14800   -86.677991    5.3393526   -81.338638    1332.4848   -83.293951    9.7906776  0.093394183 
   14900   -84.706079     5.811963   -78.894116    1450.4291    9586.8205     9.613423    0.1370949 
   15000    -85.45103    5.2655985   -80.185431    1314.0788    5265.5049    9.6882941    0.1218663 
   15100   -86.088791    4.6578456   -81.430946    1162.4084   -133.94787    9.7092981   0.10890438 
   15200    -84.20119    5.0822106   -79.118979    1268.3127   -7753.1118    9.3755763   0.14660274 
   15300   -84.446529    4.1550151   -80.291514    1036.9224    9896.5668    9.5669457   0.18574475 
   15400   -85.949948    4.8130447   -81.136903    1201.1398   -19685.546     9.533839   0.11748413 
   15500   -84.229698     6.311568    -77.91813    1575.1102    18094.146    9.5873654   0.16486198 
   15600   -83.186877    4.4584159   -78.728461    1112.6389    42352.191    9.8036379   0.15072457 
   15700     -87.0078     6.877625   -80.130175    1716.3749   -10593.266    9.6914482  0.078943654 
   15800   -85.995167    5.2174074   -80.777759    1302.0523   -5268.1316    9.6724399  0.096930905 
   15900   -84.170457    6.0062534   -78.164204    1498.9161   -2109.6086    9.4235533   0.16939584 
   16000   -83.439017    4.6346943   -78.804323    1156.6308    34129.071    9.7379603   0.15338992 
   16100   -84.718513    4.2165423   -80.501971    1052.2771   -15857.186    9.3726764   0.18485289 
   16200   -84.662935    4.9367712   -79.726164    1232.0169   -38039.628    9.1030481   0.13369142 
   16300   -82.919073    5.2430084   -77.676064    1308.4412    -4800.188    9.1925105   0.21624337 
   16400   -86.207023    5.6654773   -80.541545    1413.8722    4161.2513    9.7520674  0.080042607 
   16500   -86.111841    5.6248623   -80.486979    1403.7364    19270.978    9.9228652   0.10114414 
   16600   -84.736401    5.2427528   -79.493648    1308.3775   -6991.8215    9.4518099   0.11927682 
   16700   -84.132625    5.6796274   -78.452997    1417.4035   -7286.8116    9.3170995   0.18261153 
   16800    -86.05421    4.4165305    -81.63768     1102.186    5402.9865    9.7711198    0.1250839 
   16900   -85.391827    4.2556734   -81.136154    1062.0427    1160.9724    9.6318204   0.11137644 
   17000   -85.832469     5.632237   -80.200232    1405.5768   -22691.718    9.4176604    0.1188829 
   17100   -84.912457    6.1952783   -78.717178     1546.089   -14846.964    9.3668859   0.17849592 
   17200   -84.144251    4.8242749   -79.319976    1203.9424   -4492.6787    9.4344038    0.1790844 
   17300   -84.768428    3.6707733   -81.097655    916.07542   -26793.034    9.2331834   0.16058771 
   17400   -85.248352    5.0717936   -80.176559     1265.713   -6126.5411       9.5363    0.1321502 
   17500   -85.249065    6.0500727   -79.198992    1509.8516    27045.841    9.8212273   0.14028127 
   17600   -85.369483    4.1669346   -81.202548    1039.8971    8263.2856     9.748261   0.10932211 
   17700   -85.305143    3.6324647   -81.672678    906.51516   -1851.1377    9.5955283    0.1315689 
   17800   -85.824793    5.5732616   -80.251531     1390.859   -21044.496    9.4524401   0.12172393 
   17900   -84.275766     5.032187   -79.243579    1255.8288   -556.17225    9.4537316   0.17522824 
   18000   -84.040251    5.2065473   -78.833704     1299.342   -1458.4722    9.4517256   0.18572017 
   18100   -85.798968    4.2342021   -81.564766    1056.6843    5118.9152    9.7594386  0.095620303 
   18200   -85.525242    4.9727317   -80.552511    1240.9912    522.15669    9.6485171   0.14228747 
   18300   -84.593056    4.9460542   -79.647001    1234.3336   -11248.885    9.3992877   0.15427191 
   18400   -85.412735    4.3989489   -81.013786    1097.7984     -22200.6    9.3921628   0.15832724 
   18500   -86.952273    4.8704495   -82.081823    1215.4657    3016.0592    9.8791953  0.076624392 
   18600   -84.189754    4.7212759   -79.468478    1178.2381    30846.108    9.8397068   0.16503107 
   18700   -85.167918    5.4378502   -79.730068    1357.0658   -3868.7165    9.5738285     0.123022 
   18800   -85.821892    3.9151815   -81.906711    977.06976    6048.2253    9.7718876   0.10036151 
   18900   -85.513777    5.5757074   -79.938069    1391.4694   -4468.1658    9.5733673   0.15055896 
   19000    -84.63847    5.2077301    -79.43074    1299.6372   -13153.085    9.3788472   0.17347074 
   19100   -84.846261    3.7208192   -81.125442    928.56483   -28605.049      9.28523   0.11720597 
   19200   -85.238251    4.5301159   -80.708135    1130.5323    30623.636    9.9738363   0.12785143 
   19300   -85.062486    5.8595899   -79.202897    1462.3149    16363.053    9.7460579   0.13452896 
   19400   -85.836079     4.650318   -81.185761    1160.5299    3556.6825    9.7490993  0.098669797 
   19500   -84.727129    3.2798749   -81.447254    818.52311    13765.461    9.7108083   0.15155576 
   19600   -84.149449    4.9403232   -79.209125    1232.9033    3276.9022    9.4779213   0.17134866 
   19700    -84.87286    4.5965965   -80.276263    1147.1232    9454.4773    9.6350821   0.12110493 
   19800   -86.130336    4.5422477   -81.588088    1133.5599    8215.5448    9.8064725   0.10949928 
   19900   -83.364485    4.5678881   -78.796596    1139.9587   -12069.577    9.1751219   0.19977487 
   20000   -84.320258    4.8731439   -79.447114    1216.1381   -14376.686    9.3120588   0.15017561 
   20100   -86.098882    5.2542499   -80.844632    1311.2467    14489.003    9.8395792  0.098472114 
   20200   -85.722646    6.0052505   -79.717396    1498.6658    19241.538    9.8502678    0.1161466 
   20300   -83.768029    5.6812145   -78.086815    1417.7996    3338.3334    9.3540783   0.18288298 
   20400   -84.512862    4.1631146   -80.349747    1038.9438   -20164.415    9.2699168   0.17632941 
   20500   -84.144631    3.4022447   -80.742386    849.06164   -5992.4067    9.4065745   0.17227192 
   20600   -84.269737    5.9969528   -78.272784     1496.595    127.53978    9.4191268   0.16960892 
   20700   -85.282768    6.0117682      -79.271    1500.2923    24118.953    9.8330973   0.12885247 
   20800   -86.087845    4.9712867   -81.116558    1240.6306   -3904.8304    9.6878617   0.10160078 
   20900   -84.591443    5.4487667   -79.142677    1359.7901   -24539.996    9.1796079   0.17617326 
   21000   -83.717525    4.7863117   -78.931213    1194.4683   -20017.134    9.2284185   0.18342422 
   21100   -85.222267    4.4247737   -80.797493    1104.2432    7253.6231    9.7044817   0.16633672 
   21200   -85.532824    5.8796616   -79.653163    1467.3239    -10762.29    9.5094168   0.12526385 
   21300   -83.046261     5.572315   -77.473946    1390.6227    4663.3981    9.3558023   0.22175998 
   21400   -85.240282    5.2973258   -79.942956    1321.9966    16018.836     9.795299      0.12496 
   21500   -85.505752    5.2477971   -80.257955    1309.6363    16639.435    9.7950232   0.12144019 
   21600   -83.615873    5.2029624   -78.412911    1298.4474   -3201.6082    9.3098836   0.22177489 
   21700   -83.540548    5.0910218   -78.449526    1270.5116   -30551.731    9.0207662   0.25283002 
   21800   -83.790571    3.2121642   -80.578407    801.62528    8380.1105    9.5274192   0.18406834 
   21900   -84.279993    4.6239561   -79.656037     1153.951    23041.529     9.779153   0.19458038 
   22000   -84.812401    6.0070911    -78.80531    1499.1251    2294.5821    9.5195671   0.13317339 
   22100   -85.492332    3.9028491   -81.589483    973.99209    6555.6271    9.6949489   0.13415694 
   22200   -84.723291    4.6726733   -80.050618    1166.1088   -13371.238     9.359356   0.15690775 
   22300   -84.263112    5.1410231   -79.122089    1282.9899   -4755.8231    9.4190021   0.17449779 
   22400   -86.498098    4.6722713   -81.825827    1166.0085   -1130.5156    9.7740428  0.092443439 
   22500   -85.040059    4.3125086    -80.72755    1076.2264    3578.3239    9.6046942   0.12637577 
   22600   -83.795098    4.4277316   -79.367366    1104.9814    15180.172     9.591743   0.21748083 
   22700   -85.168566    4.7471514   -80.421415    1184.6955   -13373.177    9.4330663    0.1317816 
   22800   -86.075962    4.2590023    -81.81696    1062.8734   -9851.1148    9.6237733   0.12221693 
   22900   -84.344482    4.9956906   -79.348791    1246.7208    15182.426    9.6002487   0.17375979 
   23000    -84.66503      5.40318    -79.26185    1348.4135    19483.712    9.7571479   0.15939949 
   23100   -85.764134     4.222113   -81.542021    1053.6673    4732.3237    9.7481462   0.10838307 
   23200   -84.341855    4.0343688   -80.307486     1006.814   -23887.022    9.2428163   0.15079651 
   23300   -84.592526    5.6351784   -78.957348    1406.3109   -6198.1306    9.4221939   0.15435932 
   23400   -86.468445    6.2394908   -80.228955    1557.1226    22952.354    9.9989785  0.088539773 
   23500   -85.745294    5.2913682   -80.453926    1320.5099    27670.778    9.9701399  0.097296077 
   23600   -82.653426    4.9893971   -77.664029    1245.1502   -11821.414     9.096562    0.2530478 
   23700   -84.543154    5.3589953   -79.184159    1337.3868    -26465.91    9.1715101   0.17343234 
   23800   -85.576248    4.2753621   -81.300886    1066.9561    5167.3419      9.71147     0.137113 
   23900   -84.298873     4.759689   -79.539184    1187.8244    11531.857    9.5617138   0.16470792 
   24000   -84.305896    5.2791535   -79.026743    1317.4616   -7755.3881    9.3796643   0.18384483 
   24100    -85.87722    4.6994047   -81.177815    1172.7799   -20344.913    9.4804577   0.16053395 
   24200   -84.553152    4.9099844   -79.643167     1225.332   -239.66498    9.4960899   0.17398599 
   24300   -84.561686    5.9903748   -78.571311    1494.9534    26519.351    9.7867005    0.1261836 
   24400    -85.64483    4.8696702    -80.77516    1215.2712    7333.3608     9.772911   0.12355328 
   24500   -84.310441    4.0898413   -80.220599    1020.6577   -13725.287    9.3142487   0.16003746 
   24600   -81.748199    3.9518983     -77.7963    986.23278    379.83573    9.0815471   0.31579106 
   24700   -86.303296    6.1160413   -80.187255    1526.3147   -20629.847    9.5176109   0.13198727 
   24800   -85.483326    5.0065487   -80.476777    1249.4305    9046.1048    9.7379761   0.13415993 
   24900   -84.844064    5.7194647   -79.124599    1427.3453   -4483.4728    9.5052435   0.16276733 
   25000   -83.584907    5.2813747   -78.303532    1318.0159   -22685.556    9.1334487   0.22299572 
   25100   -85.064201    4.0867787   -80.977423    1019.8934   -20046.211    9.3809968   0.12978885 
   25200   -85.200197    4.7957715   -80.404425    1196.8291   -5508.2407    9.5391098   0.12304138 
   25300   -84.620803    6.1797359   -78.441067    1542.2102    11140.188    9.6223226   0.13564092 
   25400   -85.554483    4.4317939   -81.122689    1105.9952     17700.88    9.8473212   0.10092649 
   25500   -84.666656    3.7427003   -80.923956    934.02547    1556.2987    9.5294242    0.1376235 
   25600   -83.076831    3.8661685   -79.210663    964.83811    12002.753    9.4797731   0.20644636 
   25700   -85.953112    5.0893497   -80.863762    1270.0943   -5144.6523    9.6517943  0.098120676 
   25800   -85.336689    3.8565556   -81.480133    962.43913    10017.072    9.7451065   0.10804584 
   25900   -84.107364    4.9196118   -79.187752    1227.7346   -6588.8904    9.3847482   0.15630829 
   26000   -84.929409    4.4925651   -80.436844    1121.1612    25132.072    9.8471706   0.13928535 
   26100   -86.271102    4.7347112   -81.536391     1181.591    7446.0161    9.8355792  0.094179353 
   26200   -84.322153    5.1213192   -79.200834    1278.0726   -19146.156    9.2793342   0.16321931 
   26300   -85.499021    5.6474493   -79.851572    1409.3732   -27437.843    9.3229585   0.13273429 
   26400   -86.245006    4.6671865   -81.577819    1164.7395   -819.46521      9.76412   0.10653009 
   26500   -85.207562    5.9253759   -79.282186    1478.7324    21930.961    9.8498783   0.10958814 
   26600   -84.550403    5.4384348   -79.111968    1357.2117    2874.8093    9.5419975   0.15990469 
   26700    -85.47567    4.0446618   -81.431008    1009.3828    -8771.329    9.5929286   0.10829996 
   26800   -85.358385    4.8114836   -80.546901    1200.7502   -4025.4749    9.5792186   0.12006479 
   26900   -83.110975    4.2617069   -78.849268    1063.5484    8287.6298     9.417183   0.19234258 
   27000   -85.414617    4.4844516   -80.930165    1119.1364     -11960.8    9.5407288    0.1389752 
   27100   -85.237386    4.6133789   -80.624007    1151.3114    49441.452    10.151408  0.083075419 
   27200   -84.668823    5.9187154   -78.750108    1477.0702    20221.563    9.6936306   0.16146474 
   27300   -84.687047    5.6284444   -79.058603    1404.6304   -15639.624    9.3513063   0.15328338 
   27400   -85.853819    4.5368965   -81.316923    1132.2245    -22434.59    9.4778655   0.13578789 
   27500   -85.548521    5.6998704   -79.848651    1422.4554   -17967.076    9.4412271   0.14032766 
   27600    -83.27763    4.2461486   -79.031482    1059.6656   -12210.239     9.193155   0.22410379 
   27700    -85.24816    4.3706827   -80.877477    1090.7443    5315.7048    9.6360055   0.15245466 
   27800   -85.670617    4.6301644   -81.040453    1155.5003    23038.882    9.9429787  0.085379916 
   27900   -85.205758    6.0058576     -79.1999    1498.8173    6915.7413    9.6659525   0.13264475 
   28000   -84.200072    4.9029036   -79.297168    1223.5649   -3293.3836    9.4304973   0.14684087 
   28100   -86.197242    4.1256228   -82.071619    1029.5873   -8513.4952    9.6490822  0.098348431 
   28200   -84.745454     4.007756   -80.737698    1000.1726    10442.038     9.687294    0.1733034 
   28300   -84.138278    4.7051829   -79.433095    1174.2219   -3209.4956    9.4055113   0.17140782 
   28400   -85.281022    4.9463552   -80.334666    1234.4087   -23102.862    9.3328395   0.11533056 
   28500   -86.404156    4.3517815   -82.052374    1086.0273    11271.688    9.8913135  0.077116744 
   28600   -86.674272    7.0941588   -79.580113    1770.4129    14349.997    9.8840727  0.098013169 
   28700   -85.225277    5.4129875   -79.812289    1350.8611    19179.358    9.7559172   0.11793529 
   28800   -84.880325     4.907703   -79.972622    1224.7627   -14779.765    9.3996425   0.14689352 
   28900    -85.78561    3.4265175   -82.359093    855.11913   -24057.711    9.4498226   0.12017719 
   29000    -86.03285    4.4402312   -81.592619    1108.1008    11851.804    9.8417808   0.10692903 
   29100   -85.240713    5.2310527    -80.00966    1305.4576    3243.8663    9.6435286   0.13997898 
   29200   -84.696947    4.9440005   -79.752946    1233.8211   -3812.8324    9.4849576   0.15215595 
   29300   -86.389413    4.1994506   -82.189962    1048.0117    6456.4753    9.8397478   0.10058285 
   29400   -86.509592    4.9318843   -81.577708    1230.7973   -16603.228    9.6092265   0.10283814 
   29500    -84.84074    4.9865498    -79.85419    1244.4396     -1146.23    9.5473324    0.1246393 
   29600   -84.643837    4.6666563    -79.97718    1164.6072    28420.493    9.7922294   0.11048574 
   29700   -86.439588    4.2615165   -82.178071    1063.5009    3500.1521    9.8209036   0.10130145 
   29800   -84.920411    4.7908273   -80.129583    1195.5953   -15105.074    9.4249564   0.15249962 
   29900    -84.73118    5.0262381   -79.704942    1254.3442   -23471.931    9.2419477   0.15582186 
   30000   -85.482961    4.4387218   -81.044239    1107.7241     -22641.8    9.4409023   0.15571506 
   30100   -86.719635     4.971559   -81.748076    1240.6985    28231.352    10.098728  0.082616446 
   30200   -84.815989    5.7693803   -79.046609    1439.8022    15720.342    9.7014059   0.12118114 
   30300   -84.936566    5.1258723   -79.810694    1279.2088   -12296.064    9.4449481   0.12956128 
   30400   -85.531919    4.4811194     -81.0508    1118.3048   -7965.6404    9.5778574   0.12585121 
   30500   -85.664931    5.0666173   -80.598314    1264.4212   -2082.1212    9.6156558   0.12518693 
   30600   -83.441591    4.9161225   -78.525469    1226.8638    2337.9355    9.3638924   0.18097742 
   30700   -84.869026    4.3462497   -80.522776    1084.6468    5976.5649    9.6237059   0.12829654 
   30800   -85.490079    4.4157066   -81.074372    1101.9804    4291.1684     9.731264   0.11890033 
   30900   -83.642911    5.2970286   -78.345883    1321.9225    7020.4358    9.4126078   0.24076933 
   31000   -83.966838    5.1524717   -78.814366     1285.847   -22275.587    9.1796522   0.20001989 
   31100    -85.74267    4.9303367   -80.812333    1230.4111     -5257.78    9.6373465   0.13494232 
   31200   -85.390729    4.8996901   -80.491039     1222.763    12262.959    9.7529865   0.13241418 
   31300   -84.137256    6.2908127   -77.846444    1569.9305    1040.6322    9.4121652   0.19854523 
   31400   -86.084292    5.8853031   -80.198989    1468.7318   -34359.267     9.352136   0.13160158 
   31500   -85.079732    4.1981274   -80.881605    1047.6815   -981.75522    9.5877299   0.11572158 
   31600   -85.245027    6.6689519   -78.576075    1664.2986    24562.471    9.8408499   0.12708062 
   31700   -84.369948    5.7907657   -78.579182    1445.1391    43580.811    9.9197344   0.10650296 
   31800   -85.725366    5.1479543   -80.577412    1284.7196   -3863.7678    9.6262863   0.13417018 
   31900   -84.183029    4.4081079   -79.774921    1100.0841   -17378.003    9.2738326   0.16131559 
   32000   -83.109341    5.1601502   -77.949191    1287.7632   -1027.6959    9.3047288   0.21736873 
   32100    -84.40624    4.8698526   -79.536388    1215.3167   -17316.794    9.3394261   0.14543913 
   32200   -85.942071    5.3142533   -80.627817    1326.2211   -9736.6905    9.6091979   0.13187312 
   32300   -86.174366    6.1056496   -80.068716    1523.7213   -641.27355    9.7064643   0.11834718 
   32400   -85.306093    5.5722356   -79.733857    1390.6029   -13666.955    9.4927385   0.16173979 
   32500   -86.854507    4.3000132   -82.554494    1073.1081    1994.3252    9.8490159  0.081286116 
   32600   -85.675352    4.3568889   -81.318463    1087.3019    1062.4721    9.6958047  0.090421635 
   32700    -85.21143    5.0923435   -80.119086    1270.8414   -7387.6334    9.5184434   0.15303135 
   32800   -85.012111    5.6611549   -79.350957    1412.7935   -7954.7913    9.4344256   0.13516318 
   32900      -85.628    3.7392427   -81.888758    933.16258    10479.196    9.7801528   0.13672301 
   33000   -85.955345    4.8893503   -81.065994    1220.1826    15595.858    9.8737887  0.098876331 
   33100   -84.166386    4.8060193   -79.360366    1199.3866    11133.256    9.6069778   0.11352821 
   33200    -85.02355    4.2528207    -80.77073    1061.3307   -5275.0115    9.5242159   0.12384734 
   33300   -85.607787    3.9115325   -81.696254     976.1591   -15793.843    9.4904413   0.10826148 
   33400   -84.769781    5.6626178   -79.107163    1413.1586   -9984.6494    9.4603242   0.14316842 
   33500   -85.651952    6.1825618    -79.46939    1542.9155    12411.201    9.7446853   0.12299609 
   33600   -85.633796    4.1866615   -81.447134    1044.8201    18849.688    9.8775059   0.10629887 
   33700   -84.305044    3.8639834   -80.441061    964.29279    -1499.651    9.4999639   0.14478908 
   33800   -83.575117     4.272612   -79.302505    1066.2698   -10695.433    9.2676395   0.17034046 
   33900   -86.373677    5.2969732   -81.076703    1321.9087    -9095.331    9.6329079  0.098548436 
   34000   -86.203893    5.5875396   -80.616353    1394.4222    6242.0099    9.7955729   0.10768763 
   34100     -84.7443    6.2075603   -78.536739    1549.1541   -5171.5341    9.4512125   0.14834884 
   34200    -85.76277    5.2221905    -80.54058    1303.2459   -3316.9701    9.6311073   0.12496542 
   34300   -84.900651    4.3394909   -80.561161    1082.9601    7353.9031    9.6506439   0.13797189 
   34400    -83.57367    5.3768153   -78.196855     1341.834   -11008.726    9.2830736   0.20043526 
   34500    -85.00136    4.4807136   -80.520646    1118.2035   -6419.7134    9.5242394   0.14230031 
   34600   -86.589736    5.6264073   -80.963329     1404.122   -6442.8907    9.7225147  0.095509306 
   34700   -84.909824    6.5999447   -78.309879    1647.0772    6594.3835    9.6190801   0.13852627 
   34800   -84.199528    4.9279166   -79.271611    1229.8072    20751.785     9.682422   0.13558062 
   34900   -85.616639    4.4415633   -81.175075    1108.4332    3500.9223    9.6703038   0.11645419 
   35000   -84.552233    4.8063376   -79.745895     1199.466   -13956.751     9.361255   0.14495357 
   35100   -84.050063    5.3977855   -78.652278    1347.0673    306.51089    9.4567023   0.16430476 
   35200   -86.596227    5.7884184   -80.807809    1444.5533    19898.201    9.9961913  0.080980423 
   35300   -85.412785    5.1844505   -80.228335    1293.8276    8872.3785    9.7124571   0.09353555 
   35400   -83.841355    5.3999587   -78.441396    1347.6096   -1609.0234    9.3399592   0.19410401 
   35500   -85.194586     4.746747   -80.447839    1184.5946   -20013.032    9.3351607   0.12912048 
   35600   -84.975184     3.795852   -81.179332    947.28996   -2753.8304    9.5627819   0.16615304 
   35700   -83.191025    4.2830967   -78.907928    1068.8864    16958.335    9.5491835   0.16772176 
   35800   -83.780273    3.9783894   -79.801883    992.84386     10386.73     9.527768    0.2740175 
   35900   -85.460774    4.5093267   -80.951447    1125.3442   -5070.9931    9.6011104   0.13902744 
   36000   -86.344086    3.6869705   -82.657115    920.11759    1759.0769    9.7572978  0.080825336 
   36100   -84.770377    4.7131033   -80.057273    1176.1985    1292.0493    9.5623434   0.12274952 
   36200   -85.397986    5.5932644   -79.804722    1395.8509    2651.7465    9.6330628   0.16112196 
   36300   -85.067801    5.5924213    -79.47538    1395.6405    12935.592    9.7030807   0.13956475 
   36400   -82.087249    5.6036573   -76.483592    1398.4445   -16162.894    8.9451545   0.29592676 
   36500   -81.654818    4.9480238   -76.706795    1234.8251   -28921.697    8.7803789   0.23175388 
   36600   -84.215477    4.4427396   -79.772737    1108.7267   -8513.1338    9.3881387   0.17658955 
   36700   -85.027236    4.6808581   -80.346378    1168.1514    15168.326    9.7793038   0.11332565 
   36800    -85.71999    5.1384814   -80.581509    1282.3556    10815.169    9.7738514     0.141585 
   36900   -84.083855    6.1699032   -77.913952    1539.7564   -4953.4553    9.3254863   0.16327112 
   37000   -84.218361    4.6653732   -79.552987     1164.287   -9775.6769     9.382909   0.18260665 
   37100   -86.247249    5.1577582   -81.089491    1287.1663    -19142.69    9.5606268  0.099329914 
   37200   -84.285638    5.1344266   -79.151212    1281.3436    33769.194    9.8773595   0.12356883 
   37300   -84.663213    5.5566807   -79.106532     1386.721    23456.543    9.8044214   0.11460868 
   37400   -86.122451    5.2752753   -80.847176    1316.4937    -7393.773    9.6198158  0.099700941 
   37500   -82.977105     3.880735    -79.09637     968.4733    11379.061    9.4581837   0.26878852 
   37600   -83.905198     5.677082   -78.228116    1416.7683   -13292.284    9.2791982    0.2046965 
   37700   -85.741436    5.5080573   -80.233379    1374.5866   -19116.832     9.448727   0.11557911 
   37800   -85.059067     4.038836   -81.020231    1007.9289    4346.8649    9.6683108   0.14288101 
   37900   -85.007496    6.8933987   -78.114097    1720.3114   -11017.439    9.4038612   0.16281024 
   38000    -84.68984    4.6902159   -79.999624    1170.4868   -6553.8158    9.4838716   0.16043259 
   38100   -85.328091    4.4747418   -80.853349    1116.7132   -11718.116    9.5036581   0.13794236 
   38200   -84.788663    5.7959645   -78.992698    1446.4365   -286.23398    9.5075035   0.14089594 
   38300   -83.671839     5.660543   -78.011296    1412.6409    6302.4308    9.4243404   0.20710612 
   38400   -84.926537    4.1579221   -80.768615    1037.6479   -2448.8421    9.5410714   0.12009624 
   38500   -85.065304    4.6021899   -80.463114    1148.5191    1265.3553    9.5607542   0.15381039 
   38600    -83.27166     5.091839   -78.179821    1270.7155   -4770.7956    9.2546351   0.19732653 
   38700   -85.242859    5.7598549   -79.483004    1437.4251    2002.1077    9.5949326   0.12717511 
   38800    -85.70395     5.308161   -80.395789    1324.7007    32182.463    10.014496   0.11896185 
   38900   -84.378877    5.2693909   -79.109487    1315.0252    23779.154    9.7463881   0.11461099 
   39000   -84.776458    5.3836808   -79.392777    1343.5473   -2061.1597    9.4703526   0.14890213 
   39100   -86.579484     4.649467   -81.930017    1160.3175    -23490.59       9.5407   0.10218451 
   39200    -85.13892    4.8920828   -80.246837    1220.8645   -15032.491    9.4473399   0.12435723 
   39300   -85.750338    6.2558231   -79.494515    1561.1985    6516.7628    9.7306387   0.11919244 
   39400   -86.680067    5.0001535   -81.679913    1247.8345    7447.0193    9.8777996  0.090311019 
   39500   -85.028616    4.6062386   -80.422377    1149.5294   -3135.2803    9.5762773   0.16332455 
   39600   -83.866584    4.6524313   -79.214153    1161.0573    -20709.93    9.1723096   0.18384642 
   39700   -84.439233    3.7814587   -80.657774    943.69798   -15324.291    9.3623734   0.15846266 
   39800   -85.368513    4.1496279   -81.218885     1035.578    22884.527    9.9016591   0.11308462 
   39900    -84.41424    6.2067765   -78.207463    1548.9585    26818.712    9.7608287   0.13897493 
   40000   -84.761313    5.5112804   -79.250033     1375.391     7611.353    9.5965529   0.13378408 
   40100   -84.919669    3.6349294    -81.28474    907.13025    986.94278    9.6142941   0.15800386 
   40200   -85.308313    5.5521937   -79.756119    1385.6013   -16598.778    9.4176016   0.13498158 
   40300   -83.982179    5.4269446   -78.555234    1354.3442    14003.798    9.5743601   0.17063418 
   40400   -85.762468    4.8149265   -80.947542    1201.6094    2833.5135     9.721021  0.097780311 
   40500   -86.244082    5.8129307   -80.431152    1450.6706   -17614.214    9.5167788  0.092802145 
   40600   -83.944209    5.4574807   -78.486728    1361.9648   -4233.9299    9.3694812    0.1786745 
   40700   -85.067852    3.9214925    -81.14636    978.64471   -1729.9438    9.5995923   0.11705107 
   40800   -85.735447    5.0813656   -80.654081    1268.1018    9847.2331    9.7900147   0.11388332 
   40900   -84.908698    5.8748451   -79.033853    1466.1219    3181.7976    9.5508983   0.15440144 
   41000   -85.255102    3.8683778   -81.386725    965.38945    505.08515    9.6095228   0.12821446 
   41100   -85.417053    4.1161369   -81.300916      1027.22   -20279.479    9.4171435    0.1372179 
   41200   -85.114938    5.5223313   -79.592607    1378.1488    1155.7347    9.5686827   0.15083424 
   41300   -84.942517    4.8355662   -80.106951    1206.7603    10506.243     9.649628    0.1485588 
   41400    -85.83695    3.4279809   -82.408969    855.48433    29175.502    10.041928  0.085310467 
   41500   -84.618166    3.9486273   -80.669538    985.41645    9952.0015    9.7023428   0.13096517 
   41600   -83.152797    3.5987723   -79.554025    898.10692    2399.3414    9.3787483   0.19057919 
   41700   -84.802709    3.8801101   -80.922599    968.31736   -13025.022    9.3933731   0.17533875 
   41800    -86.30621    4.5551285   -81.751081    1136.7744    13833.145    9.8920348   0.10085518 
   41900   -83.884367    4.9672751   -78.917092    1239.6294    21352.727    9.6863566   0.18317981 
   42000   -83.984377    4.0206524   -79.963725     1003.391     4747.062    9.5090881   0.16048457 
   42100   -84.305322    3.5228787   -80.782443    879.16696   -22165.408     9.275124   0.17076922 
   42200   -84.865291    5.6204383   -79.244852    1402.6324    6269.3868    9.6141671   0.11887452 
   42300   -83.644166     5.579444   -78.064722    1392.4018     9159.534    9.4757751   0.21772032 
   42400   -85.187177    4.6400917   -80.547085    1157.9778    12601.254    9.7543202   0.11647501 
   42500   -85.937876    5.0429069    -80.89497    1258.5041   -590.13983    9.6850932   0.10777931 
   42600    -83.52278     5.054464   -78.468316    1261.3882   -3550.6505    9.3410064   0.20328232 
   42700   -85.139459    5.0652436   -80.074215    1264.0784   -3126.7147    9.5957372    0.1240147 
   42800   -85.863022    4.9294518    -80.93357    1230.1903    9343.5347    9.7766001    0.1199451 
   42900   -85.402264    6.3945049   -79.007759    1595.8078   -12881.165    9.4548154   0.15185907 
   43000   -84.345748    4.8977641   -79.447984    1222.2823    -10134.81    9.3215049   0.22213543 
   43100   -85.161358    3.6359686   -81.525389     907.3896   -21295.654    9.3681596   0.12555121 
   43200   -85.095543    5.1742498   -79.921293    1291.2819    15064.586    9.7226037   0.15149922 
   43300   -84.816386    6.5405514   -78.275835    1632.2551    31717.115    9.8960686   0.12044703 
   43400   -86.345889    6.0262371   -80.319652    1503.9032    3752.2486    9.7876497  0.097155414 
   43500   -85.844329    4.3066385    -81.53769    1074.7615   -5701.5288    9.6475647   0.12451051 
   43600   -83.970764    5.1734819   -78.797282    1291.0903   -28113.159    9.1296907   0.19378082 
   43700   -83.692796    4.2355939   -79.457202    1057.0316   -3094.8531    9.3463708   0.19179948 
   43800   -86.241098    5.1288071   -81.112291    1279.9412    11827.482    9.8482823  0.089524325 
   43900   -86.298721    5.4920609    -80.80666    1370.5946   -14934.499    9.5531764   0.11597683 
   44000   -84.253031    5.3707783   -78.882253    1340.3274   -3339.1944    9.4217702   0.19239077 
   44100   -84.928826    4.5126495   -80.416177    1126.1734    5045.2885     9.548375   0.13618046 
   44200   -85.580884    4.3928829   -81.188001    1096.2846   -9794.5234    9.5397753   0.11273869 
   44300   -82.699957    4.4885967    -78.21136    1120.1708    -20845.96    9.0461742   0.21495326 
   44400   -84.690684    5.0662562   -79.624428    1264.3311    24465.073     9.767215   0.11603883 
   44500   -86.258895     5.612778   -80.646117    1400.7206     19508.62    9.9519767  0.087857698 
   44600   -83.890404    4.0169478   -79.873456    1002.4665    2859.2256     9.493699   0.13709257 
   44700   -84.096805    6.1427645   -77.954041    1532.9837   -35115.006    9.0727094   0.19597579 
   44800   -84.939764    3.9384412   -81.001323    982.87443    6243.4887    9.5997514   0.13939961 
   44900   -85.715345    5.0572712   -80.658074    1262.0888   -12590.563    9.5689891   0.14014073 
   45000   -85.127638     6.307019   -78.820619    1573.9749    3372.6649    9.6148855   0.11120972 
   45100   -85.969417    5.1373798   -80.832037    1282.0806    3609.7778    9.7394604  0.096584129 
   45200   -85.714612    4.0110833   -81.703529    1001.0029   -6459.5788    9.6441733   0.12602918 
   45300   -84.410273    5.1752795   -79.234993    1291.5389   -11689.086    9.3501265   0.18357524 
   45400   -85.052473    4.8797132    -80.17276    1217.7775    3114.6711    9.5976269   0.13742654 
   45500   -86.003843    4.3868157   -81.617027    1094.7704    4371.8046    9.7533616   0.12232385 
   45600   -84.283306    5.3040669   -78.979239    1323.6789   -11260.074    9.3538718   0.17017719 
   45700    -84.84371    4.8654685   -79.978242    1214.2227   -15994.902    9.3906699   0.16420301 
   45800   -85.036172     3.736073   -81.300099    932.37157    4258.2479    9.6510404   0.12515051 
   45900   -84.819236    6.2281632   -78.591073    1554.2957    25270.741    9.8013386   0.14182161 
   46000    -85.25376    6.1753808   -79.078379    1541.1234    7762.9254      9.66864   0.14590971 
   46100   -86.015569    5.0798221   -80.935747    1267.7166   -6991.6594    9.6288052    0.1133432 
   46200   -85.039772    4.4404335   -80.599339    1108.1513   -4072.5761    9.5390056    0.1567193 
   46300    -84.08199    5.3596835   -78.722307    1337.5586    -10216.46    9.2950787   0.22251606 
   46400   -84.774149    4.5093945   -80.264754    1125.3611   -26974.005     9.263579   0.14663943 
   46500   -85.642765    4.7435803   -80.899185    1183.8043   -2051.0182    9.6148166   0.12199699 
   46600    -84.49863    6.7836992   -77.714931    1692.9349    32198.068    9.8400962   0.14078494 
   46700   -84.937026    6.0906976   -78.846329    1519.9899    26975.548    9.8224587   0.11634477 
   46800   -85.060886    5.1376423   -79.923244    1282.1462    1614.4174    9.5770053    0.1566605 
   46900   -85.348965    4.8833387   -80.465626    1218.6823   -27289.655     9.335949   0.14335371 
   47000   -85.470826    4.9135973   -80.557229    1226.2336   -20863.428    9.4175731   0.13519815 
   47100   -81.824418     4.909975   -76.914443    1225.3297   -22157.819    8.9186575   0.45747155 
   47200   -85.074301     6.253137   -78.821164    1560.5282   -11501.182    9.4327859   0.12766846 
   47300   -84.927221     4.810569   -80.116652     1200.522   -8148.1076    9.4723416   0.14295877 
   47400   -85.070804    4.6385006   -80.432303    1157.5807    1792.1097    9.5759767   0.17138986 
   47500   -84.508443    5.3894881   -79.118955    1344.9966   -3509.8326    9.4618383   0.16829895 
   47600   -82.305779    4.8734702   -77.432308    1216.2196   -4374.5478    9.0998473   0.27619876 
   47700   -85.127909    5.3572629   -79.770647    1336.9545   -8830.2471    9.5050622   0.16137629 
   47800   -86.140128    5.3560099   -80.784118    1336.6418    1039.1347    9.7415607  0.095867359 
   47900   -84.946968    4.9848339   -79.962135    1244.0114    22980.656    9.8203699    0.1346152 
   48000   -83.904782    5.8176261   -78.087156    1451.8424    -7769.864    9.3382526   0.22820939 
   48100   -84.896957    4.4421817   -80.454775    1108.5875    1310.3246     9.569176   0.14334384 
   48200   -84.230083     3.826976   -80.403107    955.05726   -34708.008     9.056615    0.1731939 
   48300   -84.065467    5.7785389   -78.286928    1442.0878   -24789.622    9.1367774   0.18636428 
   48400   -85.319381    5.3038144   -80.015566    1323.6159    2375.3428    9.6344095   0.14070422 
   48500   -85.821503    4.9414362   -80.880067    1233.1811    15172.406    9.8511226   0.11263187 
   48600   -85.630211    6.7842845   -78.845927    1693.0809   -7202.3802    9.5563312   0.10232376 
   48700   -84.702943    4.8764145   -79.826528    1216.9543   -1536.6273    9.5448704   0.13256088 
   48800   -85.602725    4.2662507   -81.336475    1064.6823   -13692.083    9.5337406   0.12435453 
   48900   -84.531071    4.9695907    -79.56148    1240.2073    1933.4487    9.5282592   0.11796615 
   49000   -84.748892     5.536213   -79.212679    1381.6132    14186.203    9.6932041   0.14906292 
   49100   -84.792083    3.2837433    -81.50834    819.48851    62738.498    10.268558   0.11611832 
   49200   -85.543353    4.7959234    -80.74743     1196.867   -2239.0256    9.6087732   0.12041553 
   49300   -84.404252    4.7374854   -79.666767    1182.2833   -17336.372    9.2613805   0.17155041 
   49400   -85.209813    5.3301025    -79.87971    1330.1764   -12973.545    9.4461863   0.13683016 
   49500   -87.406878    5.1448351   -82.262043    1283.9412   -18460.256    9.6976911  0.064499653 
   49600    -86.05536    5.6403565   -80.415003    1407.6031   -14737.155    9.5440341   0.11703713 
   49700    -85.43944    5.7738223   -79.665617    1440.9107    1661.2281    9.6343927    0.1430873 
   49800   -85.428835     4.454218   -80.974617    1111.5913    24401.791    9.8777949   0.11609082 
   49900   -86.973876    5.2342508   -81.739625    1306.2557    -2787.988    9.8515897   0.10505827 
   50000   -84.336248    4.6470351   -79.689213    1159.7106   -6056.9705     9.445466   0.15380955 
   50100   -85.064508    4.7930234   -80.271484    1196.1433   -1472.9911    9.5849035   0.14159629 
   50200   -86.353641    4.4658457   -81.887796    1114.4931    2626.1788    9.7764079  0.097593607 
   50300   -84.352826    5.1303935   -79.222432    1280.3371    4611.3424    9.5175177   0.15753601 
   50400   -84.079329    4.4722413   -79.607088    1116.0892   -15885.083    9.2797553   0.18551188 
   50500   -85.486897    4.1741743   -81.312722    1041.7038   -16307.335    9.4509696   0.12621468 
   50600   -86.402383    5.3578949   -81.044488    1337.1122    8475.5859    9.8341555  0.098657017 
   50700    -85.31533    6.7155353   -78.599794    1675.9239    11536.318    9.7274361    0.1330179 
   50800    -85.85486    5.5962523   -80.258608    1396.5965    1419.3905    9.6580048    0.1263601 
   50900   -85.179981    3.9284255   -81.251556    980.37491   -8609.2105    9.5176808     0.131702 
   51000   -83.594537    5.1603815   -78.434155    1287.8209   -7104.8139    9.2823937   0.21916945 
   51100   -84.741772    5.5297777   -79.211995    1380.0072   -30134.302    9.1936711   0.19278078 
   51200   -85.263972    4.1228804   -81.141092    1028.9029   -3812.8943     9.578786   0.15849824 
   51300   -84.642076    5.2727715   -79.369305    1315.8689    37006.872    9.9597002    0.1258978 
   51400   -84.960882    6.1457313    -78.81515    1533.7241    21595.257    9.8107645   0.12013275 
   51500   -85.820912      4.86406   -80.956852    1213.8712   -14351.178    9.5020789  0.099490265 
   51600   -85.040007    4.6814952   -80.358511    1168.3104   -13481.949    9.4293787   0.15287935 
   51700   -84.190102    5.7290664   -78.461036    1429.7415    356.72636    9.4211931   0.20430904 
   51800   -86.167807    5.4441417   -80.723666    1358.6359   -3715.9534    9.6552979  0.094618586 
   51900   -86.059336    5.1442348   -80.915102    1283.7914    5919.5292    9.7676716   0.12585657 
   52000   -83.651271    5.1289403   -78.522331    1279.9745   -11128.141    9.2614809   0.17342415 
   52100   -85.360402    4.9420826    -80.41832    1233.3424   -21224.285    9.4034517   0.15112682 
   52200   -86.208558    5.4643358   -80.744223    1363.6755   -3525.7906    9.7081757    0.1129142 
   52300   -83.946031    5.8546517   -78.091379    1461.0825    42867.105    9.8864155   0.15812554 
   52400   -84.748794    5.1859451   -79.562848    1294.2006    13276.808    9.6832689   0.13866054 
   52500    -85.07094     4.195434   -80.875506    1047.0093   -17460.278    9.4252668   0.12744479 
   52600   -84.049911    4.0232937   -80.026617    1004.0501   -7492.8827    9.4190143   0.18943071 
   52700   -84.239271    6.2765043   -77.962767    1566.3597   -6215.0519     9.376095   0.16505412 
   52800   -85.704521    5.6599262   -80.044594    1412.4869     24540.69    9.9573201   0.14652899 
   52900   -85.887869    5.1246664   -80.763202    1278.9079    17412.789    9.8825715   0.10433081 
   53000   -85.799784    6.6484331   -79.151351     1659.178   -30357.644    9.3015729   0.10487591 
   53100   -83.929982    4.2758822   -79.654099    1067.0859   -8325.0952    9.3621128   0.19915252 
   53200   -85.924816    4.3539345   -81.570882    1086.5646    23125.596    9.9189156  0.099753515 
   53300   -84.955754    5.2765686   -79.679186    1316.8165    5716.4266    9.6264712   0.12108304 
   53400    -83.80241    4.6893472   -79.113063      1170.27     12657.28    9.5096655   0.15024879 
   53500   -86.007181    4.2437173   -81.763463    1059.0589    10563.785    9.8267864   0.11712099 
   53600   -84.143662    3.6451954   -80.498467    909.69222     3564.346    9.5923559   0.15788225 
   53700   -84.915594    5.5979776   -79.317616    1397.0271   -12747.047    9.4228079   0.12058725 
   53800   -86.032645    4.5112549    -81.52139    1125.8254    980.95471    9.7115626  0.099820184 
   53900   -85.894187    5.3936409   -80.500546     1346.033     5154.506    9.7456413  0.093571604 
   54000   -84.933178    6.1884636   -78.744715    1544.3883     12394.51    9.6944948   0.13637891 
   54100   -85.324316    4.9033851   -80.420931    1223.6851    10754.902    9.7340322   0.11833297 
   54200   -85.383246    3.6807329   -81.702513    918.56093   -6485.9228    9.5855388   0.11135503 
   54300   -84.098815    5.1012589   -78.997556    1273.0663   -25526.006    9.1345227   0.20016356 
   54400   -84.934825    5.3013627   -79.633462    1323.0041   -6555.6386    9.5026541   0.14452307 
   54500   -85.700064    4.7363211   -80.963743    1181.9927    32636.423    10.041331    0.1167269 
   54600   -85.095313    5.8854428    -79.20987    1468.7667    14553.524     9.722013   0.14370822 
   54700   -84.847845    5.6622692   -79.185575    1413.0716    -25271.45     9.265904   0.13339458 
   54800    -85.12964    3.9955132   -81.134126    997.11727   -5236.0353    9.5145342   0.12926341 
   54900   -85.629859     5.711043   -79.918816    1425.2436   -1140.5571    9.6093193   0.13387452 
   55000   -84.197239    5.9687198   -78.228519    1489.5492   -7066.8311    9.3978039   0.15538553 
   55100   -85.007496    4.3111338   -80.696362    1075.8833   -3482.7693    9.5747406   0.14944766 
   55200   -87.309949    6.6578543   -80.652095    1661.5291   -9231.4764    9.7240451  0.069926328 
   55300   -83.708503    5.5717433    -78.13676    1390.4801    8594.6612    9.4880741   0.18686076 
   55400   -84.962225    5.2665878   -79.695637    1314.3257   -25072.326    9.3046661   0.14650596 
   55500   -85.012388    4.1119542   -80.900434    1026.1762   -3059.1613    9.5585421   0.15637133 
   55600   -85.297782    6.4387404   -78.859042    1606.8472    775.83415    9.5822941   0.13426111 
   55700   -84.816431    4.8704834   -79.945948    1215.4742    6512.2665    9.6421964   0.11771966 
   55800   -86.082959    4.7548049   -81.328154    1186.6055    5282.1466    9.7642988  0.099610218 
   55900   -85.232504    5.6184686   -79.614036    1402.1408   -2947.9032    9.5603263    0.1527252 
   56000   -84.453065    5.2498269   -79.203238    1310.1428   -22582.548    9.2665785    0.1422094 
   56100   -86.584031    4.6964156   -81.887615    1172.0339   -12088.985    9.6623049  0.091850374 
   56200   -86.403281    6.2238885   -80.179392    1553.2289    18159.725    9.9126563   0.10010743 
   56300   -84.790013    5.6732415   -79.116771    1415.8099     -1792.37    9.5505839   0.14034352 
   56400   -85.843054    4.7281972   -81.114857    1179.9653   -12073.719    9.5388189   0.11985386 
   56500   -85.945425    4.7060025   -81.239423    1174.4265   -12458.723     9.588277   0.10717202 
   56600   -84.701753    5.4123478   -79.289405    1350.7014     12371.53    9.6776018   0.13198969 
   56700   -85.462977     5.120035   -80.342942    1277.7521    36782.938    10.045642   0.09871674 
   56800    -86.40925    4.8654456   -81.543805    1214.2169     6046.781    9.8096697  0.093968872 
   56900   -82.843314    3.5719149   -79.271399    891.40439   -18053.075    9.1375674   0.19846359 
   57000   -84.339556    4.5733917   -79.766164    1141.3322    188.32256    9.4430676   0.17662873 
   57100   -86.383246    4.5131354    -81.87011    1126.2947   -5952.6456    9.7037638   0.11946436 
   57200   -85.474251    5.5474329   -79.926818    1384.4132       2412.8    9.6659015   0.14009962 
   57300   -84.309006    4.9276333   -79.381373    1229.7365   -22634.597    9.2246301   0.17513994 
   57400   -84.725966    3.4968709   -81.229095    872.67647   -8113.6392    9.4938945   0.15512779 
   57500    -85.65721    4.2591581   -81.398052    1062.9123    12520.423    9.8027225   0.11210264 
   57600   -85.369883    6.3507517   -79.019131    1584.8888   -1896.2002    9.6043333   0.11913366 
   57700   -86.005154    5.5809794   -80.424175     1392.785    -330.6253    9.6816714   0.12306631 
   57800   -86.919377     5.014255   -81.905122    1251.3537   -5062.4003    9.7812567  0.074851596 
   57900   -84.135338    4.6488579    -79.48648    1160.1655    14407.333    9.6340636   0.17896512 
   58000   -85.330591    6.0464224   -79.284169    1508.9406    -6192.807    9.5216195   0.11590658 
   58100   -85.121462     4.392992    -80.72847    1096.3118   -30148.003    9.2976781   0.14318723 
   58200   -83.506403    3.3642032     -80.1422    839.56801   -14429.468    9.2090939    0.2299999 
   58300   -83.897337    5.6861816   -78.211156    1419.0392    -5317.339    9.3228476   0.16037856 
   58400   -85.421597    5.3676921   -80.053905    1339.5572    29645.129    9.9742653   0.13984027 
   58500   -86.106004    6.0827576   -80.023246    1518.0084    14418.305    9.8147617   0.10291855 
   58600    -85.47035    7.5450919   -77.925258    1882.9475   -11383.316    9.4899939   0.11786248 
   58700   -85.511251    5.0523356   -80.458915    1260.8571     1280.197     9.679401   0.14642936 
   58800   -85.987112    5.2163434   -80.770768    1301.7867   -1951.7914    9.6981782  0.093342968 
   58900   -85.356469    5.6618326   -79.694636    1412.9627   -8457.0555    9.5290687   0.15409848 
   59000   -83.147902    5.1195999   -78.028302    1277.6435    12827.118    9.4539046   0.19597277 
   59100   -86.386664    5.4070931   -80.979571    1349.3901   -25693.765    9.4964521   0.12869826 
   59200   -84.819258    4.5442378    -80.27502    1134.0566   -2162.2554    9.4919636   0.16589499 
   59300   -83.817905    4.7764248   -79.041481     1192.001   -2961.1213     9.367927   0.18415117 
   59400   -85.328477    4.8050391   -80.523438    1199.1419    3878.7039    9.6875308   0.14902908 
   59500   -87.045272    5.8234565   -81.221815    1453.2974    7329.9206    9.9134138  0.066057835 
   59600   -85.158157     5.743414   -79.414743    1433.3221    5518.5224    9.6567474   0.12445689 
   59700   -84.865916    5.1771389   -79.688777    1292.0029   -2032.0491    9.4993093   0.11607631 
   59800    -86.15671    4.6002398    -81.55647    1148.0324   -18408.316    9.5226824   0.11351629 
   59900   -83.913778    4.4578396   -79.455938    1112.4951    1435.7732    9.4323338    0.2175915 
   60000   -83.993398     5.039487   -78.953911    1257.6506   -22159.784    9.1875595   0.23766338 
   60100   -85.347663    4.3264966   -81.021166    1079.7172    13073.636     9.774284   0.13385608 
   60200   -86.772275    6.1987717   -80.573504    1546.9608    11909.786    9.9089971   0.08066237 
   60300   -84.184933    5.9661244   -78.218809    1488.9015   -1422.3232    9.4629115   0.16458447 
   60400    -84.78715    4.8412304    -79.94592    1208.1738   -11600.633    9.4512225    0.1486622 
   60500   -85.241024    4.1219324   -81.119091    1028.6663   -41024.265    9.1698594    0.1384976 
   60600    -83.65993    4.4566782   -79.203252    1112.2053   -3956.1094    9.3436391   0.19134303 
   60700   -84.524158     5.214396   -79.309762    1301.3007    13367.062    9.6818683   0.17968572 
   60800   -85.166958    4.4786206   -80.688338    1117.6812    11917.456    9.7656198   0.13515434 
   60900   -85.445628    4.2101091   -81.235519    1050.6717     9731.372      9.76768   0.12229856 
   61000    -83.55074    5.2882471   -78.262493     1319.731   -13565.606    9.1796174   0.21256668 
   61100   -84.595879    5.0808343   -79.515044    1267.9692       -11656    9.3882553   0.17244882 
   61200   -85.762019    4.6577029   -81.104316    1162.3728   -4250.6309    9.5880766   0.12768553 
   61300   -85.118873    5.5837508   -79.535123    1393.4767     7483.655    9.6378553   0.11378739 
   61400   -83.796994    5.7312854   -78.065709    1430.2953   -1419.5667    9.3615909   0.17111187 
   61500   -85.513407    4.5551152   -80.958292    1136.7711    -8953.969     9.575484   0.12776757 
   61600   -84.683963    4.2260635     -80.4579    1054.6532   -6055.3579     9.436403   0.16835518 
   61700   -83.469702    4.8746601   -78.595042    1216.5165   -3839.3839    9.2905085   0.17025539 
   61800   -85.557708    5.0830227   -80.474685    1268.5153    16587.657    9.8104706   0.11833162 
   61900   -86.153594    5.2411732   -80.912421    1307.9832    19657.603    9.9066523  0.078005367 
   62000    -85.22656    5.6678299    -79.55873    1414.4594   -10883.635    9.4719055   0.11778611 
   62100   -83.714181    5.3020426   -78.412138    1323.1738    168.28576    9.3842185    0.1842119 
   62200   -85.190655    3.8280251    -81.36263    955.31907    12647.507    9.7782038   0.12468437 
   62300   -84.536491    3.5643794   -80.972112    889.52385    12734.244    9.6787352   0.14635809 
   62400   -84.423288    4.9792209   -79.444067    1242.6106   -7176.5165    9.4241299   0.17786362 
   62500   -83.100433    5.1887176   -77.911715    1294.8925    31921.281     9.643444   0.18959328 
   62600   -85.782935    4.9598076   -80.823127    1237.7659    9799.9507    9.7985352   0.10604758 
   62700   -84.961741    4.3517194   -80.610022    1086.0118   -6387.8831    9.5093617   0.12842161 
   62800   -83.784883    4.4172868   -79.367596    1102.3748    15846.127    9.5570379   0.18656267 
   62900   -84.699619    5.6093279   -79.090291    1399.8597    514.35489    9.5039982   0.14812884 
   63000   -85.342941     3.984677   -81.358264    994.41298     20146.26    9.8659905   0.11127743 
   63100   -84.626993    4.3924386   -80.234554    1096.1737     19607.92    9.7363049   0.12580675 
   63200   -85.042604    6.4847368   -78.557867     1618.326   -37998.071    9.1184107   0.14709483 
   63300   -84.684178    3.6452788   -81.038899    909.71303   -18010.697    9.3819306   0.16868418 
   63400   -85.727558    5.0875103   -80.640048    1269.6352     11816.97     9.800263  0.093980423 
   63500   -84.903952    5.5033929   -79.400559    1373.4226    30756.163    9.9145791   0.14895026 
   63600   -83.507542    5.7849332   -77.722609    1443.6836   -9607.6211    9.2251958     0.223504 
   63700   -82.007089     7.093945   -74.913144    1770.3596   -10915.097    8.9269258   0.44445108 
   63800   -82.214262    5.5199324    -76.69433    1377.5502    28885.621    9.4847462   0.54629013 
   63900   -84.895773    5.2068911   -79.688882    1299.4278   -6103.8741    9.4932483    1.3430431 
   64000   -85.678412    5.3208454   -80.357567    1327.8662    -26786.73    9.3954238    1.2414333 
   64100   -85.830957    4.7110918   -81.119865    1175.6965    93.187624    9.6619624    1.1191138 
   64200   -86.946699    3.6073101   -83.339389     900.2376    9259.1366    9.9732296     1.301268 
   64300   -86.287347    4.6242793   -81.663068    1154.0317    5576.4905    9.8342685    1.2132869 
   64400   -84.683273    3.9615793   -80.721694    988.64874   -11757.975    9.4038227    1.2719614 
   64500   -84.813433    4.8521301   -79.961302    1210.8939   -10806.005    9.4305647    1.3370929 
   64600   -85.193157    4.7097288   -80.483428    1175.3564    31023.453    9.9649902     1.244988 
   64700   -86.508864    4.2762011   -82.232663    1067.1655    28093.202    10.105243    1.2823324 
   64800    -84.64429      4.34919     -80.2951    1085.3806   -22669.742    9.3171372    1.3190918 
   64900   -84.491214     4.737873   -79.753341      1182.38   -25284.005    9.2661889    1.0965801 
   65000   -85.876191    4.7174539   -81.158737    1177.2842   -12431.156    9.5560418    1.1743048 
   65100   -87.236925    5.0378513   -82.199074    1257.2424    11510.346    9.9694188    1.0820106 
   65200   -85.046254    5.4252439   -79.621011    1353.9198   -15074.271      9.38181    1.0291912 
   65300   -84.864373     4.857501   -80.006872    1212.2343   -9455.7988    9.4235433    1.0402925 
   65400   -86.136132     4.369534   -81.766598    1090.4576   -11587.009    9.6177213   0.91486586 
   65500   -85.798456    4.6786651   -81.119791    1167.6041    12801.992    9.8134405    1.0757869 
   65600   -84.926119    5.4484229   -79.477696    1359.7043   -2537.2024    9.5229926    1.0558045 
   65700   -84.992076    4.6044787   -80.387597    1149.0902    1765.4222    9.5782296    1.1737696 
   65800    -85.44774    3.7976084   -81.650132    947.72831    -9116.007    9.5670784    1.1708135 
   65900   -86.847049    4.0649276   -82.782121    1014.4403     -7315.85    9.7450094    1.1174989 
   66000    -84.82968    4.8426952   -79.986984    1208.5394    12513.341    9.6839264    1.0887232 
   66100   -85.361161     5.330745   -80.030416    1330.3367   -571.46591    9.5860801    1.0010035 
   66200   -85.709526    4.9359396   -80.773587    1231.8094    -27253.89    9.3805773    1.1296178 
   66300   -86.374838    3.9988701   -82.375968      997.955    1743.4205    9.7711968    1.1349776 
   66400   -84.893241    4.8318516   -80.061389    1205.8332    14153.026    9.6980493    1.1349427 
   66500   -84.851367    4.9835939   -79.867773    1243.7019   -24926.184    9.2987931    1.1988521 
   66600   -84.588966    4.2673418   -80.321625    1064.9546   -11455.048    9.4011359    1.1500075 
   66700   -86.717372     5.418365   -81.299007    1352.2031   -16572.698    9.6289358    1.1581211 
   66800   -87.634422    4.9017334   -82.732688    1223.2729     11625.43    10.040893    1.1399121 
   66900   -86.196645    5.4456076   -80.751038    1359.0017    21299.397    9.9380816    1.1447495 
   67000   -84.189535    4.2567094   -79.932826    1062.3012   -11050.521    9.3117151    1.3284733 
   67100   -84.493316    4.6165901   -79.876726    1152.1128   -37091.741    9.0951692    1.1960647 
   67200   -84.563809    4.7105302   -79.853278    1175.5564    9962.2449    9.6686969     1.043613 
   67300   -81.919134    5.7576185   -76.161516     1436.867     10116.79    9.1254166    1.4186087 
   67400   -84.485714    6.1379371   -78.347777     1531.779   -13902.203    9.3140007     1.313608 
   67500   -85.745961    5.7896353   -79.956325     1444.857    1274.5932    9.6807434    1.0390504 
   67600   -85.793388    4.9468542   -80.846533    1234.5332    10493.389    9.8031249    1.1954011 
   67700   -85.195235    5.6309837   -79.564251    1405.2641   -4052.9975    9.5308362    1.1802878 
   67800   -84.388331    6.5414897   -77.846841    1632.4892   -14082.981    9.2910411    1.2543722 
   67900   -84.817062    4.7820044   -80.035058    1193.3934    11661.747     9.689839    1.2351183 
   68000   -85.163399    4.4395367   -80.723862    1107.9274       9327.8    9.7058981    1.3275813 
   68100   -85.277961    5.2827863   -79.995174    1318.3682    4528.8944    9.6444087    1.1788057 
   68200   -84.321342    6.2957049   -78.025638    1571.1514   -27590.418    9.1638757    1.3686376 
   68300   -85.578605    5.4783357   -80.100269    1367.1693    13739.969     9.783176    1.1211058 
   68400   -85.590004    4.7641281   -80.825876    1188.9322    18326.022    9.8534774     1.176245 
   68500   -83.736486    5.1837403   -78.552745    1293.6503   -15291.662    9.2530059    1.1869805 
   68600   -83.506483    4.3110637    -79.19542    1075.8658   -24715.861    9.0690479    1.1536583 
   68700   -84.985339    4.0247268   -80.960612    1004.4078   -19295.906    9.4083566     1.083504 
   68800    -84.67207    4.3694919   -80.302578    1090.4471    33463.507    9.9013898    1.0140288 
   68900   -84.740443    7.0275843   -77.712859    1753.7986      -5218.7     9.425674    1.0529152 
   69000   -85.051821    5.2840114    -79.76781    1318.6739    22704.567    9.8127025    1.1688029 
   69100   -85.344864    4.2439097   -81.100954    1059.1069   -2497.8562    9.5590719    1.1590489 
   69200   -83.544192    4.6614292   -78.882762    1163.3028   -15132.037    9.2445787    1.1809854 
   69300   -84.872126    5.2865565    -79.58557    1319.3091   -848.29255    9.5162595    1.0630227 
   69400   -87.052129    5.3486079   -81.703521    1334.7946   -8583.7715    9.7517557    1.0549749 
   69500   -85.694018    5.6705417   -80.023476    1415.1361    778.52195    9.6703323    1.1640199 
   69600   -84.960098    5.4922253   -79.467873    1370.6356   -11090.787    9.4566444     1.174515 
   69700   -86.361973    4.1606252   -82.201348    1038.3225   -13882.562    9.5974999    1.1867348 
   69800   -84.493375    3.6190456   -80.874329    903.16629   -40608.979    9.0993432    1.3167752 
   69900   -84.581826    4.6332873   -79.948538    1156.2797   -7982.0241    9.4223976    1.1895652 
   70000   -85.091682    5.2236384   -79.868044    1303.6073    25370.035    9.8568779    1.1385168 
   70100   -85.910837    4.5015083   -81.409329     1123.393   -413.20102    9.6862747    1.1841217 
   70200   -86.185905    3.9305691   -82.255336    980.90986   -16767.969    9.5997458    1.1512801 
   70300    -84.48045    4.3512331   -80.129217    1085.8905    11626.977    9.6327513    1.2434409 
   70400   -85.368601    5.2963519   -80.072249    1321.7536    6507.6242    9.6786489    1.0539148 
   70500   -85.528444    4.5850714   -80.943373     1144.247    16223.942     9.843274    1.0360725 
   70600   -85.968953    3.3183574   -82.650596    828.12677     -12077.6    9.6191912    1.0113768 
   70700   -84.750561    4.4632223   -80.287339    1113.8384   -9045.7274    9.4063888    1.0859404 
   70800   -85.072385    5.1133146   -79.959071    1276.0749    2862.6348    9.6122396    1.1662689 
   70900   -85.708145    5.5741781   -80.133966    1391.0877    45439.266    10.152724     1.019141 
   71000   -87.153534    4.3554001   -82.798134    1086.9304    5925.2308    9.9262151    1.0104182 
   71100   -84.511326     3.760993   -80.750333    938.59058   -24364.183    9.2505247    1.1927644 
   71200       -85.04    5.0842121   -79.955788    1268.8121   -15703.318    9.4241026    1.1131248 
   71300   -85.737707    5.7318045   -80.005903    1430.4248    5122.3967     9.730768    1.1138303 
   71400   -86.314974    4.0913401   -82.223634    1021.0318    18018.081      9.98571    1.0469032 
   71500   -85.516992    5.0897275   -80.427265    1270.1886   -11654.893    9.4728611    1.1862944 
   71600   -84.634647    5.1086218   -79.526026    1274.9038   -12261.292    9.3658392    1.0849571 
   71700   -85.614888    4.7427448   -80.872143    1183.5958    13176.449    9.8153536    1.1188141 
   71800   -86.689897    4.2487067    -82.44119    1060.3041    17286.767    9.9783281    1.1122201 
   71900   -84.354107    4.4093854   -79.944722    1100.4029   -13120.751    9.3469795    1.1715595 
   72000   -85.193124    5.2866414   -79.906482    1319.3302    -12039.25    9.4194818    1.2456991 
   72100   -87.074105    6.0933647    -80.98074    1520.6555    -11750.59    9.7101267    1.0044911 
   72200    -85.80718     3.321873   -82.485307    829.00413    26767.821    10.007058    1.1866816 
   72300   -84.653107    4.8101254   -79.842982    1200.4113   -17885.039    9.3404295    1.2351922 
   72400   -84.625481    4.6293054   -79.996176     1155.286    -24537.77    9.2295332    1.2946214 
   72500   -84.540229    4.2854201   -80.254809    1069.4662   -15438.711    9.3451791    1.1776219 
   72600   -86.358487    5.3902868     -80.9682    1345.1959    13379.931     9.899352    1.1323108 
   72700   -86.870148    4.0880589   -82.782089    1020.2129    23414.612    10.097279    1.1548342 
   72800   -85.295307    4.0315732   -81.263734    1006.1164   -18026.206    9.4261347    1.2136776 
   72900   -85.270053    5.1377741   -80.132279     1282.179   -17107.101    9.4212539    1.1755228 
   73000   -84.174483    4.3036278   -79.870855    1074.0101    24189.608    9.7654604    1.2434514 
   73100   -87.029612    4.9592629   -82.070349    1237.6299    10171.041    9.9628502    1.0936001 
   73200   -86.192002    4.3345886   -81.857413    1081.7367   -6611.8075    9.6756323     1.199792 
   73300   -84.583291    4.4578785   -80.125412    1112.5048    -13000.88    9.3569972    1.2646735 
   73400   -84.889033    5.1453318   -79.743701    1284.0651   -14806.907    9.4122721    1.2359311 
   73500   -86.570538    5.1244786   -81.446059     1278.861    1927.1836    9.8256205    1.1441385 
   73600   -87.186281    5.5521134   -81.634168    1385.5813     27115.28    10.143204    1.0021375 
   73700   -85.655726    5.7413359   -79.914391    1432.8035   -11925.862     9.509432      1.12612 
   73800   -84.558594    4.8014831   -79.757111    1198.2545    -41418.97    9.0474502    1.3666209 
   73900   -85.934599    4.2321269   -81.702472    1056.1664   -27641.905    9.4415795    1.2436246 
   74000   -86.665257     4.948238   -81.717019    1234.8785     11744.43    9.9301169    1.2419049 
   74100   -85.274921    5.8393367   -79.435584    1457.2605    6585.7354     9.700929    1.3167567 
   74200   -85.563027    5.0502045   -80.512823    1260.3252   -1556.0125    9.6040738    1.2230539 
   74300   -84.624125    3.7517315   -80.872393    936.27928   -21288.053    9.2885014    1.3141577 
   74400   -83.482191    5.2299432   -78.252248    1305.1807   -37126.413    8.9464588    1.1883543 
   74500   -85.059331    4.9230393   -80.136292      1228.59   -9621.5314    9.4516609     1.055379 
   74600   -85.919434    5.3852793   -80.534154    1343.9462    23054.102     9.915356    1.1179513 
   74700   -83.960316     5.782156    -78.17816    1442.9905    13317.554    9.5446349    1.0784972 
   74800   -84.870161    5.1420158   -79.728145    1283.2376   -10622.088     9.428528    1.1642363 
   74900   -85.184448    4.4627265   -80.721722    1113.7147   -22675.241    9.3663658    1.3539591 
   75000   -85.179825    5.8210254     -79.3588    1452.6907   -14022.521    9.4227271    1.1258494 
   75100   -84.240322    6.2954706   -77.944852    1571.0929    18179.668     9.611236    1.1757674 
   75200    -85.42237    4.6507702     -80.7716    1160.6427   -2357.1968    9.5961525    1.3299116 
   75300   -84.538306    4.2763151    -80.26199     1067.194   -24769.995    9.2682232    1.2524193 
   75400   -83.932484    5.6080609   -78.324423    1399.5435   -10860.724    9.2712481     1.329483 
   75500   -85.139828    4.6989807   -80.440847    1172.6741    8139.7566    9.6660774    1.1031767 
   75600   -85.704301     4.745497   -80.958804    1184.2827   -6817.1171    9.5806843     1.021235 
   75700   -84.620836    5.8649743   -78.755862    1463.6586   -4662.9905    9.4416898    1.0411508 
   75800   -84.583093    5.1626412   -79.420452    1288.3849   -3804.6391    9.4918315    1.1422255 
   75900   -85.639893    4.5844173   -81.055476    1144.0837    19416.412    9.8764395   0.94797457 
   76000   -84.597977    5.2755625   -79.322415    1316.5654    27580.317    9.8069631    1.1396137 
   76100   -84.404841    5.1675818    -79.23726    1289.6178    6738.5123    9.5571223    1.1220963 
   76200   -85.139858      3.77472   -81.365137    942.01629    -38913.72    9.2195659    1.2694512 
   76300   -85.071759    5.0756798   -79.996079    1266.6828   -13635.849    9.4317741    1.2989303 
   76400   -84.868536    5.8738145   -78.994722    1465.8647     10180.27    9.6572198    1.0722841 
   76500    -86.43739    5.2412293   -81.196161    1307.9972    5833.8388    9.8072209    1.1581486 
   76600   -84.890855    5.2804792   -79.610376    1317.7924   -7293.0142    9.4457847    1.0604679 
   76700   -84.511171    5.5503911    -78.96078    1385.1514     -17968.7    9.2717806    1.1477482 
   76800    -84.73973    3.6961466   -81.043583    922.40756   -5589.5139    9.5205167    1.1514777 
   76900   -84.936707    4.7068123   -80.229895    1174.6285    11330.789    9.7196366    1.0987149 
   77000   -83.487754    4.9611411   -78.526613    1238.0986    37588.028    9.7715073    1.1334681 
   77100   -85.789725    4.6789141   -81.110811    1167.6663    8404.3199    9.7538273    1.1532874 
[...]
  481400   -84.568197    4.9054567   -79.662741    1224.2021   -7357.3919     9.452583    1.0927541 
  481500   -83.732845    4.5009654    -79.23188    1123.2575    6801.3769    9.4493379    1.0835955 
  481600   -86.303292    4.3882778   -81.915014    1095.1353   -7717.4183    9.6579577    1.1074477 
  481700   -85.400651    4.8795254   -80.521125    1217.7307    7489.6906    9.7217219    1.1990041 
  481800   -84.945186    5.4976158    -79.44757    1371.9809    13325.456    9.7173093    1.2510688 
  481900   -85.546706    4.4654533   -81.081253    1114.3952    698.83446    9.6513859    1.0211125 
  482000   -86.780887    4.7116344   -82.069252    1175.8319   -4447.9952    9.7596426    1.0756001 
  482100   -84.757312    4.6720981   -80.085214    1165.9653    18776.175    9.7426732    1.2043208 
  482200   -84.534103     4.660849   -79.873254     1163.158   -1505.7609     9.513978    1.2225846 
  482300   -86.277991    4.1639385   -82.114053    1039.1494   -735.50216    9.7539855    1.0928396 
  482400   -85.696217    4.8104938   -80.885723    1200.5032    25567.926    9.9437114    1.1750602 
  482500   -85.026066    5.1408574   -79.885208    1282.9485    4108.0846    9.5864044    1.0956608 
  482600   -84.853809    5.0837338   -79.770075    1268.6928   -23349.259    9.2790994    1.2389451 
  482700   -85.761851    3.5074535   -82.254398    875.31746   -11356.124    9.5842905    1.2278597 
  482800   -85.558118    5.0720657   -80.486052    1265.7809    12618.686    9.7816628    1.1318556 
  482900   -85.200826    6.2188853   -78.981941    1551.9803    13181.674    9.7410547    1.0458218 
  483000   -85.046868    4.6998191   -80.347049    1172.8833    21896.565    9.8338349    1.1269603 
  483100    -85.59034    4.2150904    -81.37525    1051.9148   -16741.574    9.4808636    1.0942623 
  483200   -83.153193    4.4044009   -78.748792     1099.159   -27673.278    9.0226624    1.2668137 
  483300   -84.833572    4.8372045   -79.996368    1207.1691   -6177.4863    9.4378123    1.1350665 
  483400   -86.452668    5.0487429   -81.403925    1259.9605     32751.09    10.128712    1.1304734 
  483500   -85.981961     6.609264   -79.372697    1649.4029     2403.303    9.6814681    1.0550601 
  483600   -84.671717    5.3608745   -79.310843    1337.8558   -8053.4175    9.4447862    1.0031927 
  483700   -84.950163    3.4243085   -81.525854    854.56786   -8685.8576    9.4738841    1.0543406 
  483800   -84.523486    3.9244154   -80.599071    979.37415   -4517.6026    9.4698573    1.2563725 
  483900   -84.522328    5.3424784   -79.179849    1333.2649   -342.23535    9.5192385    1.1534767 
  484000   -85.429902    4.5963166   -80.833586    1147.0533    18585.331    9.8231073    1.0152717 
  484100   -85.006889    4.2985458   -80.708343    1072.7418   -3867.1765    9.5577998    1.0991113 
  484200   -83.708876    5.0791537   -78.629722    1267.5498   -26789.571    9.0930414    1.2218651 
  484300   -85.245098    5.0531135   -80.191985    1261.0512   -8036.9947    9.4868022     1.196427 
  484400   -85.278591    4.5881842   -80.690407    1145.0238    58770.154    10.302253    1.2424771 
  484500   -83.987405    5.0731889   -78.914216    1266.0612    17015.833    9.5920748    1.3837752 
  484600    -84.20207     5.083357   -79.118713    1268.5988    -7088.965    9.3729135    1.3145732 
  484700   -85.950586    4.3421896   -81.608397    1083.6336   -15164.524    9.5526934    1.0639533 
  484800   -85.627097    5.4353153   -80.191782    1356.4332   -21013.896     9.429998    1.1441609 
  484900    -85.11385    6.5325102    -78.58134    1630.2483    4883.8006    9.6043545    1.0027024 
  485000   -85.908816    4.8236074   -81.085209    1203.7758   -4092.2772    9.6503028    1.1096525 
  485100   -85.455711    4.9653633   -80.490348    1239.1523    -14734.86    9.4831036   0.98511071 
  485200    -84.12294    5.9268101    -78.19613    1479.0903     12408.95    9.5953498    1.1235419 
  485300   -85.428367    5.0347906   -80.393577    1256.4785    918.15927    9.6701096   0.93353205 
  485400   -85.367318    4.6424699   -80.724848    1158.5713    4495.0881    9.6702512   0.96939329 
  485500   -84.682054    5.6764058   -79.005648    1416.5996    11945.121    9.6883984    1.1681273 
  485600   -83.873852    6.0025879   -77.871264    1498.0013    9461.6795    9.5018501    1.0662049 
  485700   -84.179633    4.0085091   -80.171123    1000.3605   -6055.3878    9.4041761    1.2091453 
  485800   -84.319521     3.619724   -80.699797    903.33559   -5231.3959    9.4528183    1.1782304 
  485900   -84.593788    5.7904414   -78.803346    1445.0582    4364.5616    9.5315627    1.2272065 
  486000   -84.097436    5.4900125   -78.607423    1370.0834    18796.576    9.6737585    1.3515091 
  486100   -85.661547    5.0512406   -80.610307    1260.5838   -227.66821    9.6843568    1.2119531 
  486200   -84.392029    4.2231656   -80.168863      1053.93   -20965.501    9.2155557    1.3023416 
  486300   -81.977737     4.361696   -77.616041    1088.5016   -47799.545    8.6729473    1.3061815 
  486400   -85.528773    5.2052194   -80.323554    1299.0106   -15265.391    9.4997804     1.272452 
  486500   -85.637956    4.9019548   -80.736001    1223.3282    38883.887    10.103114    1.1452863 
  486600   -84.346037    5.5769027   -78.769134    1391.7677    14510.241    9.6358843     1.105206 
  486700   -84.276967    4.8567764    -79.42019    1212.0535   -11433.199    9.3829974    1.1987713 
  486800    -85.79143    4.4914092   -81.300021    1120.8727   -18133.832    9.4764844    1.0798433 
  486900   -85.107314    5.6294768   -79.477837     1404.888   -545.84946    9.5755221    1.2991538 
  487000   -84.905659    6.1588408   -78.746818    1536.9957   -3422.3047     9.521161    1.1202621 
  487100   -86.876043    5.5744776   -81.301566    1391.1624   -929.36308    9.8000972    1.0287851 
  487200    -84.59776    4.2715109   -80.326249     1065.995   -10885.082    9.4198192    1.0880773 
  487300   -83.444819    4.7189922   -78.725827    1177.6681   -3396.7628    9.3078093     1.044346 
  487400   -85.581359    4.5392232   -81.042136    1132.8051   -6192.4438    9.5769512    1.1951103 
  487500   -85.445777    4.7131901   -80.732587    1176.2202    5164.3146    9.6853649    1.1344081 
  487600   -84.802754    6.3194504   -78.483304    1577.0773    31026.051    9.8273914    1.2353633 
  487700   -86.151359    5.5094217   -80.641938    1374.9271   -982.87682    9.6805432    0.9962418 
  487800   -84.731275    3.6416975   -81.089577    908.81929   -8597.9233     9.457848     1.148352 
  487900    -83.11309    4.5046087   -78.608481    1124.1668   -19254.695    9.0557999    1.3057281 
  488000    -84.39301    4.4641453   -79.928865    1114.0687    -6366.956    9.3640598    1.3199268 
  488100   -84.843634    3.6773113   -81.166323    917.70704    19885.502     9.787988    1.2544501 
  488200   -84.339688    5.3844016   -78.955286    1343.7272    9483.3781    9.5536274    1.2945868 
  488300    -84.15153    5.1179534   -79.033577    1277.2326   -10545.758    9.3527039    1.1879513 
  488400   -85.625995    4.4489902   -81.177005    1110.2866   -17900.553    9.4896515    1.2667088 
  488500   -85.490375    5.7680656   -79.722309    1439.4741   -7590.8513    9.5119715    1.1318883 
  488600   -84.347999    5.8822018   -78.465798    1467.9579    576.08489    9.4784625    1.1460418 
  488700   -86.779708    6.0267425   -80.752965    1504.0293    4633.5667    9.8380128    1.1027392 
  488800   -85.879453    5.6757999   -80.203653    1416.4484    34182.901    10.054363    1.2381908 
  488900   -84.372098    5.8079658   -78.564133    1449.4316    3373.5437    9.5042795     1.114569 
  489000   -84.669023    4.9823933    -79.68663    1243.4023   -1018.7272    9.5421957    1.1150107 
  489100   -85.309815    3.9892516   -81.320563    995.55464   -6366.3443    9.5531372    1.1618023 
  489200   -85.799255    6.1157096   -79.683546    1526.2319     -33091.6    9.2963079    1.0973014 
  489300   -85.658137    6.3616463   -79.296491    1587.6077    4213.0704    9.6896561     1.100132 
  489400   -87.795908    6.1409986   -81.654909     1532.543    11009.428    10.027867    1.0882243 
  489500   -85.911638      5.63418   -80.277458    1406.0617   -15600.953    9.4896874    1.2334833 
  489600   -84.255836    5.1514103   -79.104426    1285.5821   -7834.3692    9.3985185    1.3639036 
  489700   -85.449999    4.0507912   -81.399208    1010.9124    18488.536    9.8408974    1.1807224 
  489800   -85.446266    4.6870144   -80.759251    1169.6878   -325.31044    9.6411219    1.2087949 
  489900    -83.89708    4.8346153   -79.062464     1206.523    10535.952    9.4707206    1.2835542 
  490000    -85.66299    4.9600064   -80.702983    1237.8155   -15800.659     9.465649    1.1425304 
  490100    -85.85942     4.103889   -81.755531    1024.1634   -9734.5824    9.5903602    1.2851221 
  490200   -84.400384    5.4303765   -78.970007    1355.2007     7386.806    9.5726642    1.0551618 
  490300   -85.125315    6.1878782   -78.937437    1544.2422    31189.208    9.9040535   0.99135241 
  490400   -85.223987    4.3341892   -80.889798     1081.637   -4647.2315    9.5971654    1.0965864 
  490500   -84.355156    4.1120716   -80.243084    1026.2055   -14102.366    9.3912382    1.1585964 
  490600   -83.819622    5.8631861   -77.956436    1463.2123   -18696.945    9.1495002      1.39628 
  490700   -85.505556    5.0859617   -80.419595    1269.2488    11277.974    9.7948774    1.1610971 
  490800   -86.232153    5.4676094   -80.764543    1364.4925     7548.449    9.8001021    1.1264251 
  490900   -84.680615    5.1736236   -79.506992    1291.1256   -10040.693    9.4300987    1.1202515 
  491000   -83.790303    4.7715907   -79.018713    1190.7946    5518.3801    9.4751602    1.1463574 
  491100   -86.130201    4.4380343   -81.692167    1107.5525   -12108.623    9.6009318    1.2283917 
  491200   -85.082848    4.7945802   -80.288268    1196.5318   -15604.193    9.4218253    1.0586491 
  491300   -84.146853    4.9800675   -79.166785    1242.8219    -4321.231    9.4278052    1.3695132 
  491400   -86.163904    4.8599055   -81.303999    1212.8344    26082.754     10.03088    1.0760718 
  491500   -85.964239    4.7637381   -81.200501    1188.8349    37071.937     10.12704    1.0948818 
  491600   -84.350706    4.3044679   -80.046238    1074.2198   -11475.557    9.3885213    1.0649785 
  491700    -83.86089    4.7516938   -79.109196    1185.8291   -14249.179    9.2667765    1.1354505 
  491800   -85.837699     4.628909    -81.20879     1155.187   -6052.6481    9.6474983    1.1339626 
  491900   -86.230495    4.8544249    -81.37607    1211.4666   -732.31262    9.7273496    1.1180794 
  492000   -85.415543    5.6591307   -79.756413    1412.2884   -7077.7807    9.5576809    1.2142616 
  492100    -86.15972    6.1899459   -79.969774    1544.7582   -18337.339    9.5008559    1.0127885 
  492200   -86.925882    4.7610467   -82.164836    1188.1632   -12649.303    9.6784021    1.0844365 
  492300   -85.471137    5.3805806   -80.090557    1342.7736    20523.038    9.8632699    1.0985984 
  492400   -86.055003    6.9115758   -79.143427    1724.8477    13769.759    9.8206553    1.1351782 
  492500   -85.898776    4.8166579   -81.082118    1202.0415    1246.4319    9.6857953    1.2380532 
  492600   -85.030531    3.7372399   -81.293291    932.66277   -24785.577    9.2974987    1.2507869 
  492700   -84.929069     5.710696   -79.218373     1425.157   -31840.581    9.2134639    1.3810619 
  492800   -84.781897    4.9608102   -79.821087    1238.0161    14879.254    9.6719101    1.2889801 
  492900   -85.996074    4.4151798   -81.580894     1101.849    21621.482    9.9718676    1.1842734 
  493000   -86.070356    4.3262925   -81.744064    1079.6663    5159.2043    9.7975582    1.2239399 
  493100   -84.852891    5.3614541   -79.491437    1338.0005   -5714.5319    9.4843777    1.2750615 
  493200   -85.735922    5.3767979   -80.359124    1341.8296   -3738.0201    9.6027424    1.1274211 
  493300   -85.970737    4.3805729   -81.590164    1093.2125    29369.987    10.037782    1.0305609 
  493400   -83.580603    4.1908538   -79.389749    1045.8663    7432.2158    9.4367299    1.1013764 
  493500   -83.907032      4.72239   -79.184642    1178.5161   -16939.906    9.1685045    1.4067464 
  493600   -85.057494    4.1021376   -80.955356    1023.7264   -11376.831    9.4523546    1.0430901 
  493700   -86.461769    4.8311379   -81.630631    1205.6551   -8738.5871    9.6642375    1.0710742 
  493800   -84.709807    5.6384523   -79.071355    1407.1279    15456.283    9.6682401    0.9893767 
  493900   -86.338571    6.4215831   -79.916987    1602.5655    1443.6684    9.7515835    1.1472276 
  494000   -86.417355    5.3686144    -81.04874    1339.7874   -2012.3999    9.7488296    1.0873575 
  494100   -84.060864    5.7042292   -78.356634    1423.5431    -6345.019    9.3513475    1.2184954 
  494200   -84.561181    4.6931843   -79.867997    1171.2275   -10157.742    9.4445229    1.2970173 
  494300   -85.693333    5.2494093   -80.443924    1310.0386    2782.2397    9.7222636    1.0978544 
  494400   -85.036504    6.6323526   -78.404152    1655.1649    25570.872    9.8356889    1.2299507 
  494500   -84.809339    5.9314403   -78.877899    1480.2458     14601.37    9.6792782    1.0541979 
  494600   -85.677217    4.4007713   -81.276445    1098.2532   -3212.8921    9.6451963    1.1640796 
  494700   -84.692627    4.5853871    -80.10724    1144.3258   -15583.563    9.3358356    1.1981442 
  494800   -83.972678     5.080613   -78.892065     1267.914   -5776.8699    9.3521933    1.1573362 
  494900   -86.542787    4.8778795   -81.664908    1217.3199    7342.1137     9.855405    1.0607072 
  495000   -85.580417    4.9012708   -80.679146    1223.1574    5785.4626      9.71863    1.0417924 
  495100   -85.075565    6.1318251   -78.943739    1530.2537   -22241.527    9.3034993    1.3297409 
  495200   -84.848264    4.4983803   -80.349883    1122.6124    6314.0749     9.621494    1.2665165 
  495300   -86.576165    4.5815821   -81.994583    1143.3762    24717.901    10.069763     1.147917 
  495400   -84.514499    4.5870422   -79.927457    1144.7388   -5030.5033    9.4526314    1.2454523 
  495500   -84.550095     4.690936   -79.859159    1170.6665   -10818.511    9.4050644    1.2686315 
  495600   -85.944502    4.1284247   -81.816077    1030.2866   -15929.884    9.5717862    1.2393611 
  495700   -86.369219    5.0573818   -81.311837    1262.1164    3554.5596    9.8025918    1.1011884 
  495800   -84.149862    4.5318575   -79.618004    1130.9669    23508.488    9.7338416    1.3575507 
  495900   -85.333236    4.9182411   -80.414995    1227.3925    -287.0259    9.6407238    1.1599416 
  496000   -85.499148    3.0405574   -82.458591    758.79921    16609.721    9.8895093    1.1013074 
  496100   -84.627181    4.2527945   -80.374386    1061.3242   -7105.8314    9.4643787    1.1969162 
  496200   -83.729857    3.9628424   -79.767015    988.96398   -7268.2149    9.3036205    1.1972925 
  496300   -83.976968    4.2945443   -79.682424    1071.7432   -2602.2285    9.4122754    1.3146912 
  496400   -86.165212    4.3973088   -81.767903    1097.3891    28039.094    10.055314    1.2160243 
  496500   -86.090716    5.0042841   -81.086432    1248.8654    2447.0702    9.7651861     1.069299 
  496600   -83.852503    4.3141678   -79.538335    1076.6405   -15426.129    9.2301268    1.2878756 
  496700   -84.296038    4.2443801   -80.051658    1059.2243   -17976.592    9.2827146    1.3186919 
  496800   -86.829887    4.5157955   -82.314091    1126.9585    187.03684    9.8347209    1.0286861 
  496900   -85.435496    5.0377848   -80.397711    1257.2258    21580.949    9.8728489    1.1041898 
  497000   -85.822184    6.6267368   -79.195447    1653.7634    -15968.96    9.5018957    1.0277917 
  497100   -85.661432    4.7704439   -80.890988    1190.5084   -14477.775    9.4863907    1.0722195 
  497200   -84.943291    3.4790834   -81.464208    868.23744   -2476.5844    9.5512586     1.063677 
  497300    -83.79246    4.7165385   -79.075921    1177.0558    3628.8864    9.4852438    1.1352421 
  497400   -85.558494    4.9026938     -80.6558    1223.5126    10294.193    9.7446871    1.0626042 
  497500   -85.777254    5.4988381   -80.278416    1372.2859    -9674.921     9.532435    1.0773728 
  497600   -84.030162    5.8502917    -78.17987    1459.9944   -24909.195     9.146498    1.2574085 
  497700   -85.557566    4.9871894   -80.570376    1244.5992   -625.85109    9.6501704    1.1893795 
  497800   -85.820922    5.4382374   -80.382685    1357.1624     48402.57     10.21983    1.1966345 
  497900   -85.370073    6.4204321    -78.94964    1602.2782    7925.9513    9.6825243    1.2718888 
  498000   -84.342198     4.198717   -80.143481    1047.8287   -11769.565    9.3687782     1.203679 
  498100   -86.000714    4.6241124   -81.376602      1153.99   -27580.285    9.4099648    1.1381383 
  498200   -84.795683    5.7723783   -79.023305    1440.5504   -3824.3558    9.4664582    1.3169227 
  498300   -83.820681    5.0079492   -78.812731      1249.78    4180.7918    9.4382207    1.3708484 
  498400   -86.213345    4.6947466   -81.518598    1171.6174    1319.8419      9.74623    1.1670857 
  498500   -86.558694    5.9743151   -80.584379    1490.9456   -14055.076    9.6199351    1.2559534 
  498600   -84.703134    5.4708276   -79.232306    1365.2956   -10714.663    9.4045767    1.3427136 
  498700   -86.238288    5.0034321   -81.234856    1248.6527    9067.7509    9.8405129    1.1665013 
  498800     -86.2604    5.2939901    -80.96641    1321.1642    26950.409    10.016977    1.1957613 
  498900   -85.034801    5.6656601   -79.369141    1413.9179    4303.7232    9.6149993    1.2571495 
  499000   -84.667616    4.8053455   -79.862271    1199.2184   -13391.047     9.401414    1.3049106 
  499100   -86.026727    3.8485438   -82.178183    960.43969    7770.3482    9.8442033    1.2122297 
  499200   -85.536324    5.5166265   -80.019697    1376.7251    13797.672     9.786652    1.2852067 
  499300   -84.799676    5.0089078   -79.790768    1250.0193   -4664.7939    9.4665137    1.2060932 
  499400   -85.487149    4.2052079   -81.281942    1049.4485   -31428.981    9.3344413    1.1612124 
  499500   -85.774507    4.0237511   -81.750755    1004.1643    17574.503    9.8668931    1.1412038 
  499600   -84.983483    5.8730894   -79.110393    1465.6838    15041.196     9.735088    1.2405952 
  499700   -85.768651    5.7558675   -80.012784      1436.43   -1747.1637    9.6408958    1.2446097 
  499800   -87.002137     5.212956   -81.789181    1300.9414   -5112.2931    9.7753595    1.0964387 
  499900   -86.728314    5.5257456   -81.202568    1379.0009   -7081.5858    9.7247432    1.0098145 
  500000   -84.527713    4.8913305   -79.636383    1220.6768    8209.7092    9.5988886     1.164491 
Loop time of 44.1029 on 1 procs for 500000 steps with 32 atoms

Performance: 4897.632 ns/day, 0.005 hours/ns, 11337.111 timesteps/s
100.0% CPU use with 1 MPI tasks x no OpenMP threads

MPI task timing breakdown:
Section |  min time  |  avg time  |  max time  |%varavg| %total
---------------------------------------------------------------
Pair    | 25.988     | 25.988     | 25.988     |   0.0 | 58.93
Neigh   | 1.0121     | 1.0121     | 1.0121     |   0.0 |  2.29
Comm    | 1.4555     | 1.4555     | 1.4555     |   0.0 |  3.30
Output  | 0.073917   | 0.073917   | 0.073917   |   0.0 |  0.17
Modify  | 15.26      | 15.26      | 15.26      |   0.0 | 34.60
Other   |            | 0.3142     |            |       |  0.71

Nlocal:    32 ave 32 max 32 min
Histogram: 1 0 0 0 0 0 0 0 0 0
Nghost:    633 ave 633 max 633 min
Histogram: 1 0 0 0 0 0 0 0 0 0
Neighs:    1442 ave 1442 max 1442 min
Histogram: 1 0 0 0 0 0 0 0 0 0

Total # of neighbors = 1442
Ave neighs/atom = 45.0625
Neighbor list builds = 14425
Dangerous builds = 0
    
Total wall time: 0:00:44
