LAMMPS (3 Mar 2020)
Reading data file ...
  orthogonal box = (0 0 0) to (12.27 12.27 12.27)
  1 by 1 by 1 MPI processor grid
  reading atoms ...
  108 atoms
  read_data CPU = 0.00089756 secs
Reading potential file /usr/share/lammps-stable/potentials/Ag_u3.eam with DATE: 2007-06-11
Neighbor list info ...
  update every 1 steps, delay 10 steps, check yes
  max neighbors/atom: 2000, page size: 100000
  master list distance cutoff = 7.55
  ghost atom cutoff = 7.55
  binsize = 3.775, bins = 4 4 4
  2 neighbor lists, perpetual/occasional/extra = 1 1 0
  (1) pair eam, perpetual
      attributes: half, newton on
      pair build: half/bin/atomonly/newton
      stencil: half/bin/3d/newton
      bin: standard
  (2) compute rdf, occasional, copy from (1)
      attributes: half, newton on
      pair build: copy
      stencil: none
      bin: none
Setting up Verlet run ...
  Unit style    : metal
  Current step  : 0
  Time step     : 0.005
Per MPI rank memory allocation (min/avg/max) = 3.723 | 3.723 | 3.723 Mbytes
Step PotEng KinEng TotEng Temp Press Density c_msdall[4] 
       0       -307.8    32.364155   -275.43585         2340    18713.212    10.472245            0 
     100   -287.02996    23.595923   -263.43404    1706.0374    85278.903    10.472245   0.11522551 
     200   -276.89526    31.644756   -245.25051    2287.9859    119744.98    10.472245   0.15417036 
     300   -271.02569    35.565332   -235.46036    2571.4522    137934.98    10.472245   0.24010513 
     400   -275.80102    32.745869   -243.05515    2367.5987    123866.26    10.472245   0.23646445 
     500   -278.17088    32.607134   -245.56374    2357.5679    118136.66    10.472245   0.23109921 
     600   -271.46884    32.746321   -238.72252    2367.6314    136693.92    10.472245   0.29237295 
     700   -277.95686    36.327681   -241.62918    2626.5717    119839.98    10.472245   0.20154834 
     800   -275.50311    29.300025   -246.20309    2118.4567    122093.93    10.472245   0.23460909 
     900   -270.94517    30.491549   -240.45362    2204.6065    136432.89    10.472245   0.25166957 
    1000   -274.28666    32.347199   -241.93946     2338.774    126223.17    10.472245   0.23430839 
    1100   -275.74098    33.027353   -242.71363    2387.9507    127119.33    10.472245   0.17257037 
    1200   -279.16095    32.404829   -246.75612    2342.9408    112995.24    10.472245   0.13882588 
    1300   -275.92888    26.571997   -249.35688    1921.2141     120949.9    10.472245   0.17537484 
    1400   -276.05327    32.923533   -243.12974    2380.4443    122818.51    10.472245   0.18238999 
    1500   -275.96187    36.228214   -239.73365      2619.38    124935.41    10.472245    0.2148455 
    1600   -271.88265     31.41629   -240.46636    2271.4673       134459    10.472245   0.24151101 
    1700   -276.07119    30.271882   -245.79931     2188.724    122584.72    10.472245   0.20901124 
    1800   -272.23835    35.626295   -236.61205    2575.8599    136155.17    10.472245   0.22881887 
    1900   -274.63356    32.724733   -241.90883    2366.0706     132016.8    10.472245   0.20253385 
    2000   -275.07311      32.0667   -243.00641    2318.4933    125412.96    10.472245    0.1855218 
    2100   -274.60884    31.807065   -242.80178    2299.7212    126709.49    10.472245   0.22912529 
    2200   -274.88248    28.469589   -246.41289    2058.4142    125409.03    10.472245   0.22173651 
    2300   -273.03144    32.857729   -240.17371    2375.6864    136174.22    10.472245   0.21846534 
    2400   -275.26708     33.97846   -241.28862    2456.7178    126258.58    10.472245   0.23416996 
    2500   -275.34051    30.843924   -244.49659    2230.0839    123926.97    10.472245   0.17551714 
    2600   -274.67921    31.667713    -243.0115    2289.6457    130309.73    10.472245   0.24008775 
    2700    -270.8383    32.555081   -238.28322    2353.8043    138622.14    10.472245   0.26685801 
    2800   -276.35524    37.746922   -238.60832     2729.186    125989.69    10.472245    0.2323174 
    2900   -276.34477    31.100284   -245.24449    2248.6193       123431    10.472245   0.16223707 
    3000    -274.1595    32.950153   -241.20935    2382.3689    129443.29    10.472245    0.2636301 
    3100   -272.13639    32.760464   -239.37593     2368.654    135626.85    10.472245   0.21693931 
    3200   -273.49983    28.338403   -245.16143    2048.9292    128854.11    10.472245   0.27675155 
    3300    -274.9842    33.743195     -241.241    2439.7077    124479.61    10.472245   0.19117502 
    3400   -274.25261    31.258862   -242.99375    2260.0849    127931.76    10.472245   0.23532147 
    3500   -274.90541    32.046769   -242.85864    2317.0523    126995.84    10.472245   0.21782655 
    3600    -272.9837    32.465413   -240.51828    2347.3211    132720.11    10.472245   0.25930325 
    3700    -268.3273    32.875092   -235.45221    2376.9419    146618.95    10.472245   0.31419036 
    3800   -275.00177    32.012209   -242.98956    2314.5535    125257.61    10.472245   0.20143657 
    3900   -279.15461    33.882627   -245.27198    2449.7889    112977.75    10.472245   0.16900077 
    4000   -272.85633    37.476952   -235.37938    2709.6666    138330.11    10.472245   0.20249385 
    4100   -274.76934    28.660912   -246.10842    2072.2473    127652.73    10.472245   0.22476189 
    4200    -274.8158    31.423205    -243.3926    2271.9672    125005.24    10.472245   0.21096882 
    4300   -270.53862    32.615931   -237.92269    2358.2039    138847.97    10.472245   0.22301964 
    4400    -277.4228    31.666926   -245.75588    2289.5888    118291.92    10.472245   0.17718439 
    4500   -273.33685    34.634223   -238.70262    2504.1309     134154.8    10.472245   0.19073773 
    4600   -271.59351    34.495755   -237.09775    2494.1194    137085.57    10.472245   0.26899805 
    4700   -272.87391    28.342937   -244.53098     2049.257    132300.34    10.472245   0.25287516 
    4800    -274.7257    35.862832   -238.86287    2592.9621    129743.06    10.472245   0.18107017 
    4900   -278.24333    31.498558   -246.74477    2277.4154    115329.01    10.472245   0.15557899 
    5000   -274.14134    29.034561   -245.10678     2099.263    125234.88    10.472245   0.21098216 
    5100   -273.26536    33.476088   -239.78928    2420.3952    132791.41    10.472245   0.22186626 
    5200   -280.00263    32.018517   -247.98412    2315.0096    113022.57    10.472245    0.1981201 
    5300   -279.21597    33.000999   -246.21497    2386.0452    115113.05    10.472245   0.18157054 
    5400   -272.08475    30.194401   -241.89035     2183.122     134964.7    10.472245   0.21395447 
    5500   -272.50407    34.230647   -238.27342    2474.9515    136582.12    10.472245   0.20367745 
    5600   -275.51658    28.467805   -247.04877    2058.2852    122607.18    10.472245    0.1961025 
    5700   -275.40361     33.44079   -241.96282    2417.8431    125098.58    10.472245    0.1964971 
    5800   -274.75023    34.747734   -240.00249     2512.338    128948.68    10.472245   0.20725135 
    5900    -277.2212    36.050523   -241.17068    2606.5326    123972.66    10.472245   0.17631884 
    6000   -273.65925    27.314307   -246.34494    1974.8848    128990.12    10.472245    0.2103568 
    6100   -275.49697    30.245835   -245.25114    2186.8407    123292.99    10.472245   0.17964238 
    6200   -270.94778    32.295912   -238.65187    2335.0659    136397.01    10.472245   0.29960304 
    6300   -272.88432    31.710238   -241.17408    2292.7204     135970.2    10.472245   0.24233581 
    6400   -280.43291    32.879414    -247.5535    2377.2544    111399.61    10.472245   0.15303695 
    6500    -273.3893    31.916462   -241.47284    2307.6308    130103.65    10.472245   0.19918204 
    6600   -274.02194    32.496254   -241.52568     2349.551    127645.79    10.472245   0.20085788 
    6700   -280.12408    29.326557   -250.79753    2120.3749    109016.03    10.472245   0.17414134 
    6800   -272.51303    29.349225    -243.1638    2122.0139    132237.89    10.472245   0.18139921 
    6900    -270.7502    30.604207   -240.14599    2212.7519    139861.35    10.472245   0.22172027 
    7000   -276.98513    33.364314   -243.62082    2412.3137    121531.42    10.472245   0.22755322 
    7100    -276.4666    32.589812   -243.87679    2356.3155    122835.73    10.472245   0.23487071 
    7200   -269.17257    31.846944   -237.32563    2302.6045    145461.75    10.472245   0.38139126 
    7300   -273.05722    32.213179   -240.84404    2329.0841    130881.27    10.472245   0.24808322 
    7400   -273.51491     27.50518   -246.00973    1988.6854    128806.21    10.472245   0.19276612 
    7500   -271.64244    33.662578   -237.97986    2433.8788    139632.78    10.472245   0.21849102 
    7600   -270.62837    36.104431   -234.52394    2610.4302    142961.08    10.472245   0.28561416 
    7700   -276.18924    32.189056   -244.00019    2327.3399    126864.99    10.472245   0.18618504 
    7800   -275.42633    31.800817   -243.62551    2299.2694    127649.71    10.472245    0.2075266 
    7900   -268.13033    29.769657   -238.36067    2152.4121    145406.27    10.472245   0.28499882 
    8000   -277.96346    30.342995   -247.62047    2193.8656    116519.03    10.472245   0.18812453 
    8100   -274.00253    32.422366   -241.58016    2344.2088    129166.37    10.472245   0.21816364 
    8200    -272.7512       32.548    -240.2032    2353.2924    133371.73    10.472245   0.21891944 
    8300   -274.64468    31.006412   -243.63826    2241.8321    126849.86    10.472245   0.21527556 
    8400   -276.92314    34.038823   -242.88432    2461.0822    120854.74    10.472245   0.17517655 
    8500   -275.75257     34.71061   -241.04195    2509.6539    124388.75    10.472245   0.16339722 
    8600   -275.10231    28.537421   -246.56489    2063.3186    125311.44    10.472245     0.178422 
    8700   -279.95765    34.790168   -245.16749    2515.4061    112438.56    10.472245   0.16319989 
    8800   -274.51953    34.789535      -239.73    2515.3603    131392.15    10.472245    0.2182678 
    8900    -274.1394    29.242955   -244.89645    2114.3303    125496.96    10.472245   0.21294942 
    9000   -277.20645    26.315776   -250.89067    1902.6888    119015.18    10.472245   0.17668341 
    9100   -274.87375    33.934344    -240.9394    2453.5281    124686.67    10.472245   0.21705393 
    9200   -275.18235    32.772766   -242.40959    2369.5435    125525.98    10.472245   0.22457382 
    9300    -278.2645    29.875847   -248.38865    2160.0899    114829.07    10.472245   0.14628642 
    9400    -276.0021    35.983771   -240.01833    2601.7062    126076.67    10.472245   0.21313593 
    9500   -272.55861    31.884091   -240.67452    2305.2903     134383.1    10.472245   0.20607813 
    9600   -279.00387    29.999807   -249.00406    2169.0524    114691.38    10.472245   0.18216287 
    9700   -272.44022    27.301522   -245.13869    1973.9604    129791.81    10.472245   0.22478704 
    9800    -277.1742     36.94873   -240.22547    2671.4749    120720.38    10.472245   0.19322621 
    9900   -275.21415    26.486593   -248.72755    1915.0393    122674.99    10.472245   0.20711982 
   10000   -277.97591    34.161152   -243.81476    2469.9268    119377.32    10.472245   0.17782266 
   10100   -277.84807    36.172803   -241.67527    2615.3736     121184.3    10.472245    0.1837221 
   10200   -273.79377    30.402296   -243.39147    2198.1532     130046.2    10.472245   0.19059434 
   10300   -277.85284    33.217561   -244.63528    2401.7031    117178.17    10.472245   0.15313009 
   10400   -276.97733    33.640029    -243.3373    2432.2485     123340.8    10.472245    0.1767372 
   10500    -268.6988    31.928666   -236.77013    2308.5132    144182.95    10.472245   0.30961373 
   10600   -279.14636    33.711866    -245.4345    2437.4425    115571.49    10.472245   0.17797501 
   10700   -273.52122    30.464948   -243.05627    2202.6831    130333.87    10.472245   0.19461699 
   10800   -269.46136    32.346986   -237.11437    2338.7586    146724.25    10.472245   0.23002214 
   10900   -281.34495    34.665113   -246.67983    2506.3643    107797.25    10.472245   0.15405785 
   11000   -274.39289    32.673442   -241.71945    2362.3621    128302.18    10.472245   0.21656981 
   11100   -274.53989    34.996941   -239.54295    2530.3562    130026.21    10.472245   0.22850614 
   11200   -274.61161    25.653144   -248.95846    1854.7791    122973.85    10.472245   0.18363975 
   11300   -273.85012    32.254986   -241.59514    2332.1068    129149.86    10.472245   0.21585703 
   11400   -274.17172    32.012595   -242.15912    2314.5814    128187.73    10.472245   0.20520008 
   11500   -278.34084    27.688383   -250.65246    2001.9313    114578.17    10.472245   0.15343458 
   11600   -279.61976    32.499907   -247.11985    2349.8152    113398.42    10.472245   0.15645865 
   11700   -272.94457    32.033554   -240.91101    2316.0968    134028.07    10.472245   0.19275212 
   11800   -273.30211    33.107782   -240.19433    2393.7659    130281.94    10.472245    0.2528491 
   11900   -274.33717    32.328172     -242.009    2337.3983    129333.93    10.472245   0.22538455 
   12000   -274.63816    28.341872   -246.29628      2049.18    126700.51    10.472245   0.19310528 
   12100   -265.92404    28.354336    -237.5697    2050.0812    152243.41    10.472245   0.25363373 
   12200   -271.80603    29.478575   -242.32746    2131.3662    134292.64    10.472245   0.22906021 
   12300   -272.82248    28.708039   -244.11444    2075.6547    131850.17    10.472245   0.23674557 
   12400    -272.8804    34.700361   -238.18004    2508.9129    133035.48    10.472245   0.19429482 
   12500   -270.62988    35.738498   -234.89138    2583.9725    140486.94    10.472245   0.26526468 
   12600    -280.0067    36.029824   -243.97688     2605.036    112717.41    10.472245   0.17259309 
   12700   -274.74375     32.07888   -242.66487     2319.374    127793.94    10.472245   0.17021704 
   12800    -273.4365    38.444554   -234.99194    2779.6263     134397.2    10.472245   0.23587514 
   12900   -273.85957    31.618382   -242.24118    2286.0789    128648.73    10.472245   0.23998748 
   13000   -273.91831    30.970406    -242.9479    2239.2289    130183.73    10.472245     0.184251 
   13100   -278.16414    32.563087   -245.60105    2354.3832    117239.01    10.472245   0.21041594 
   13200   -269.57714    32.334861   -237.24228     2337.882    144117.65    10.472245   0.24831593 
   13300   -275.77666    32.490017   -243.28665    2349.1001    124715.61    10.472245   0.20517612 
   13400   -279.94639    33.681385   -246.26501    2435.2386    113196.66    10.472245   0.14966218 
   13500   -273.74729    33.113953   -240.63334    2394.2121    129347.47    10.472245   0.22304142 
   13600   -272.57659    31.014706   -241.56189    2242.4319    132532.75    10.472245   0.23270646 
   13700   -276.64796     27.92759   -248.72037    2019.2265    115692.92    10.472245   0.18853503 
   13800    -271.9403    32.644217   -239.29609    2360.2491    136996.66    10.472245   0.26523194 
   13900   -273.06325    32.712424   -240.35083    2365.1806    130901.55    10.472245   0.23933826 
   14000   -276.56043    31.395124    -245.1653    2269.9369     120871.4    10.472245    0.1963552 
   14100   -275.06612    34.008861   -241.05726    2458.9159    125808.73    10.472245   0.24386914 
   14200   -269.83495    35.030238   -234.80471    2532.7637    141137.66    10.472245   0.28933921 
   14300   -275.50337    30.985282   -244.51808    2240.3044    123134.14    10.472245   0.20714049 
   14400   -271.17719    28.727307   -242.44988    2077.0479    134987.83    10.472245   0.25556339 
   14500   -271.01885    33.583841     -237.435     2428.186    140114.43    10.472245   0.25636925 
   14600   -278.11576    30.641575   -247.47419    2215.4536    115088.59    10.472245   0.20273728 
   14700    -276.7701    34.712348   -242.05775    2509.7796    124490.61    10.472245   0.19183617 
   14800   -272.47534    33.546996   -238.92835     2425.522    135366.33    10.472245   0.22346126 
   14900   -275.03172    32.591851   -242.43987    2356.4629    126682.05    10.472245   0.19565699 
   15000   -275.34139    26.816927   -248.52446    1938.9231    121673.23    10.472245   0.19698339 
   15100   -276.31368    30.158449   -246.15523    2180.5226    122728.17    10.472245   0.17772184 
   15200   -272.01902    31.666533   -240.35249    2289.5604    133821.24    10.472245   0.19124767 
   15300   -276.36093     31.99069   -244.37024    2312.9976    122243.72    10.472245   0.19799168 
   15400   -277.16686    30.985644   -246.18122    2240.3306     118989.7    10.472245   0.18316711 
   15500   -271.85711     32.15362   -239.70349    2324.7778     135501.8    10.472245   0.24328914 
   15600   -275.22653    33.130875   -242.09566    2395.4355    126139.63    10.472245   0.21031488 
   15700   -278.69708    29.126991   -249.57009    2105.9458       111164    10.472245   0.17197425 
   15800   -274.13874    34.541346   -239.59739    2497.4157    131274.83    10.472245   0.20434514 
   15900   -277.93947    34.096649   -243.84282    2465.2632    119703.66    10.472245   0.18467801 
   16000   -275.72252    29.419628   -246.30289    2127.1042    122908.78    10.472245   0.20048132 
   16100   -271.49846    35.069585   -236.42887    2535.6085    140590.82    10.472245   0.23247827 
   16200   -274.92307     30.71327    -244.2098    2220.6373    126681.22    10.472245   0.18247302 
   16300   -275.66595    32.094309   -243.57164    2320.4895    123889.19    10.472245   0.23622407 
   16400   -273.59484    32.804206   -240.79064    2371.8167    128352.18    10.472245   0.21762603 
   16500   -276.98656    31.295702   -245.69086    2262.7485    120018.64    10.472245   0.17100769 
   16600    -277.6873    28.789752   -248.89755    2081.5628    118669.11    10.472245   0.18063092 
   16700   -275.84363    33.332391   -242.51124    2410.0056    122660.87    10.472245   0.18685388 
   16800   -271.61029    33.057066   -238.55322     2390.099    135693.65    10.472245   0.21789378 
   16900   -278.58958    33.773142   -244.81644    2441.8728    119047.56    10.472245   0.15367216 
   17000   -276.82466     31.45525   -245.36941    2274.2842    119962.24    10.472245    0.2088383 
   17100   -270.75491    32.276769   -238.47815    2333.6818    140486.68    10.472245    0.2196088 
   17200   -274.23981    29.635327   -244.60448    2142.6997    127307.81    10.472245   0.21927424 
   17300   -276.87683     33.37458   -243.50225    2413.0559    122630.62    10.472245   0.19477729 
   17400   -267.22924    37.673521   -229.55572    2723.8789    153379.19    10.472245    0.3030883 
   17500   -270.64905    33.225448    -237.4236    2402.2733    142779.88    10.472245   0.31454536 
   17600    -277.2522    35.996286   -241.25592    2602.6111    121218.38    10.472245   0.17770767 
   17700    -278.5935    30.293724   -248.29978    2190.3032    115701.41    10.472245   0.17298897 
   17800   -277.62842    34.850198   -242.77822    2519.7464    118873.59    10.472245   0.19352722 
   17900   -273.42407    34.671782   -238.75229    2506.8465    133131.96    10.472245   0.18358854 
   18000   -274.42134     27.96783   -246.45351     2022.136    126475.28    10.472245   0.20130718 
   18100   -274.87265    32.248987   -242.62366    2331.6731    126839.16    10.472245    0.1974961 
   18200   -277.10165    34.197686   -242.90396    2472.5683    120753.11    10.472245   0.16047789 
   18300   -277.27498     31.49284   -245.78214     2277.002    120848.21    10.472245   0.16947881 
   18400   -276.68962    33.594904   -243.09472    2428.9858    123708.12    10.472245   0.20735952 
   18500   -273.24091    34.762269   -238.47864    2513.3889    131633.16    10.472245   0.23183035 
   18600   -276.32178     31.77057   -244.55121    2297.0825    120562.47    10.472245   0.20025782 
   18700   -276.02721     32.41973   -243.60748    2344.0182    123604.04    10.472245   0.21011342 
   18800   -274.27737     34.17628   -240.10109    2471.0206    129468.11    10.472245   0.24599702 
   18900   -267.99942    32.453779   -235.54564      2346.48     147798.5    10.472245   0.28400164 
   19000   -274.56973    29.796542   -244.77318    2154.3559    124309.05    10.472245   0.20477909 
   19100   -277.46103     34.12601   -243.33502     2467.386    119882.08    10.472245   0.16984531 
   19200   -271.10581    38.821174   -232.28464    2806.8567    147169.34    10.472245   0.23945886 
   19300   -269.92675    33.222987   -236.70376    2402.0955    141331.62    10.472245   0.35706288 
   19400   -274.75003    33.617034     -241.133    2430.5859    129637.52    10.472245    0.2319062 
   19500   -277.50214    30.636811   -246.86533    2215.1092    118563.31    10.472245   0.19200271 
   19600   -283.00176    33.690542   -249.31122    2435.9007    103491.51    10.472245   0.14609168 
   19700    -276.1324    36.305418   -239.82698     2624.962    127964.16    10.472245   0.18361587 
   19800   -274.12894    32.410458   -241.71849    2343.3478    130665.54    10.472245   0.20415904 
   19900   -279.46306    30.353379   -249.10968    2194.6165    112291.22    10.472245   0.15660184 
   20000   -271.71945    31.618681   -240.10077    2286.1006    137535.64    10.472245   0.23586031 
   20100   -269.21651    28.657231   -240.55928    2071.9812    140630.35    10.472245   0.26695354 
   20200   -274.74457     32.86588   -241.87869    2376.2758    129438.22    10.472245   0.18781624 
   20300   -278.00986     29.45153   -248.55833    2129.4107    118381.55    10.472245   0.17562436 
   20400   -271.91119    32.080001   -239.83119     2319.455    138652.57    10.472245   0.23684148 
   20500   -275.71956    32.433234   -243.28633    2344.9946    123615.52    10.472245   0.23555464 
   20600   -274.98891    32.455628   -242.53328    2346.6137    126805.34    10.472245     0.189544 
   20700   -272.79963    40.233012   -232.56661    2908.9357    136409.22    10.472245   0.22809795 
   20800   -274.67116    34.057791   -240.61337    2462.4536    130491.47    10.472245   0.24220905 
   20900   -274.60869    30.060446   -244.54825    2173.4367    124986.25    10.472245   0.24888817 
   21000   -271.04034    33.544129   -237.49622    2425.3147    140300.49    10.472245   0.24745823 
   21100   -274.80001    34.289831   -240.51018    2479.2306     128457.9    10.472245   0.20116638 
   21200   -271.74685     27.94154   -243.80531    2020.2351    135596.11    10.472245   0.22005759 
   21300   -272.36539    33.072665   -239.29273    2391.2268    132226.13    10.472245   0.17506554 
   21400    -273.7565    37.613751   -236.14275    2719.5574    131850.34    10.472245   0.20850153 
   21500   -277.28288    31.561998   -245.72088    2282.0023    119899.83    10.472245   0.17490604 
   21600   -273.63836    30.734496   -242.90387    2222.1721    128510.49    10.472245   0.21301098 
   21700   -275.91243    39.806254   -236.10618    2878.0802    126897.27    10.472245   0.18537394 
   21800   -274.74464     32.99084    -241.7538    2385.3107    128224.35    10.472245    0.1639243 
   21900   -276.19717    31.215124   -244.98205    2256.9225    122247.35    10.472245   0.19748381 
   22000   -271.14229    36.200149   -234.94215    2617.3509    138522.36    10.472245   0.21918717 
   22100   -274.96387    32.172202   -242.79167    2326.1214    125506.12    10.472245   0.18539934 
   22200   -273.21663    29.464957   -243.75168    2130.3816    131340.39    10.472245   0.23806957 
   22300   -265.73738    31.122322   -234.61506    2250.2128     157644.7    10.472245    0.3168413 
   22400   -274.44115    34.995179   -239.44597    2530.2289    129383.36    10.472245   0.18375347 
   22500    -275.1117    31.450859   -243.66084    2273.9667    125253.66    10.472245   0.18049443 
   22600   -279.54978    30.581658   -248.96812    2211.1215    112982.82    10.472245   0.13789368 
   22700   -275.08115    28.587886   -246.49326    2066.9674    122662.33    10.472245   0.18254773 
   22800   -272.42837    31.766235   -240.66213    2296.7691     132587.3    10.472245   0.20179986 
   22900    -272.1582    31.875964   -240.28223    2304.7027    134777.49    10.472245   0.21847844 
   23000   -270.28227    30.918042   -239.36423    2235.4428    139884.46    10.472245   0.29342495 
   23100   -274.00398    28.023279    -245.9807     2026.145     126255.4    10.472245   0.18172303 
   23200   -270.57623    34.301915   -236.27431    2480.1043    142102.01    10.472245   0.23948932 
   23300   -274.00382    34.364787   -239.63904    2484.6501     128589.7    10.472245   0.23998382 
   23400   -273.75794    28.794498   -244.96345    2081.9059    127368.47    10.472245   0.19921382 
   23500   -271.19517    33.088124   -238.10704    2392.3446    139736.63    10.472245   0.25945244 
   23600   -270.00879    32.035149   -237.97364    2316.2122    141404.02    10.472245   0.23079245 
   23700   -277.71311    32.155527   -245.55759    2324.9157    116859.18    10.472245   0.18922112 
   23800   -272.60441     32.20901    -240.3954    2328.7827    131728.66    10.472245    0.2424521 
   23900   -267.88256    37.620383   -230.26218    2720.0369    151329.51    10.472245   0.25998311 
   24000   -278.06752    39.231248   -238.83628     2836.506    121854.45    10.472245   0.19123638 
   24100   -277.85497    33.541506   -244.31347    2425.1251     117485.7    10.472245    0.1581615 
   24200   -279.43801    34.421931   -245.01608    2488.7818    115244.96    10.472245   0.15695545 
   24300   -268.55116    33.254959   -235.29621    2404.4071    147604.15    10.472245   0.35025851 
   24400   -273.99864    33.114678   -240.88397    2394.2645    130198.56    10.472245   0.20283416 
   24500   -274.65388    29.682664   -244.97122    2146.1222    124566.84    10.472245   0.17134976 
   24600   -271.76406    33.629984   -238.13408    2431.5222    138728.52    10.472245   0.21803471 
   24700   -274.04088    34.603623   -239.43725    2501.9185    130622.88    10.472245   0.22828281 
   24800   -277.84504     31.25391   -246.59113    2259.7269     116758.2    10.472245   0.14948413 
   24900   -270.52374    30.804881   -239.71885    2227.2611    138054.91    10.472245   0.31260782 
   25000   -268.03596    31.370929   -236.66503    2268.1876    145495.53    10.472245   0.30883079 
   25100   -271.47524     30.43883   -241.03641    2200.7948    136855.96    10.472245   0.20172795 
   25200   -276.61311    33.146592   -243.46652    2396.5719    125006.97    10.472245   0.19580579 
   25300   -272.22325    30.514616   -241.70863    2206.2743     135158.6    10.472245   0.22081512 
   25400   -268.00729    34.621296     -233.386    2503.1963    147533.77    10.472245   0.22910989 
   25500   -275.03032    32.311255   -242.71906    2336.1752    125381.55    10.472245    0.2010426 
   25600   -272.19879    31.630032   -240.56876    2286.9213    133426.07    10.472245   0.25281701 
   25700   -272.92037    34.354919   -238.56545    2483.9366    136645.92    10.472245   0.21998292 
   25800   -276.33313     31.45526   -244.87787    2274.2848    122825.71    10.472245     0.172698 
   25900   -274.99117    34.601528   -240.38964     2501.767    125365.99    10.472245   0.19724871 
   26000   -270.28669    33.773774   -236.51292    2441.9186    140815.09    10.472245   0.21856902 
   26100   -277.97979    31.839979   -246.13981    2302.1009    118542.25    10.472245   0.18287136 
   26200   -272.90334    31.732851   -241.17049    2294.3553    131499.42    10.472245   0.20330094 
   26300   -267.85295    34.565977   -233.28697    2499.1966    148248.75    10.472245   0.27758787 
   26400   -276.71021    34.348718   -242.36149    2483.4883     121263.1    10.472245   0.23058443 
   26500   -274.91275    29.362721   -245.55003    2122.9896    124344.29    10.472245   0.19547709 
   26600   -274.07222    33.057156   -241.01507    2390.1055    130834.42    10.472245   0.20626767 
   26700    -276.8281    36.353534   -240.47456    2628.4409    119128.73    10.472245   0.19454422 
   26800     -276.704    30.086642   -246.61736    2175.3308    121156.65    10.472245   0.17276781 
   26900   -273.79884    31.873136   -241.92571    2304.4983    132065.77    10.472245   0.23921184 
   27000    -270.2551    31.834449   -238.42065    2301.7011    142662.94    10.472245   0.26020072 
   27100   -277.67478    29.055163   -248.61962    2100.7526    117741.05    10.472245   0.18893083 
   27200   -276.72811    35.702832   -241.02528    2581.3937       121852    10.472245   0.18549199 
   27300   -273.81715    33.092793   -240.72436    2392.6821    130286.25    10.472245   0.20549621 
   27400   -278.63168    28.026618   -250.60506    2026.3865    112405.42    10.472245   0.18931227 
   27500    -274.1472    29.528467   -244.61874    2134.9735    130303.62    10.472245   0.25762077 
   27600   -273.63722    32.207535   -241.42968     2328.676    132083.24    10.472245   0.22457589 
   27700   -279.60983    32.513332    -247.0965    2350.7858    114461.81    10.472245   0.14714413 
   27800   -276.83961    29.851455   -246.98815    2158.3262    119439.25    10.472245   0.17923927 
   27900   -272.80993    30.863833    -241.9461    2231.5234    130091.98    10.472245   0.25660087 
   28000   -272.14907    35.439543   -236.70953    2562.3573    135713.37    10.472245   0.20166154 
   28100   -278.58122    32.830954   -245.75026    2373.7506    117292.77    10.472245   0.16540325 
   28200   -271.83903    28.156289   -243.68274     2035.762    135885.88    10.472245   0.20706908 
   28300   -271.35851    32.275186   -239.08333    2333.5673    137775.93    10.472245   0.23546578 
   28400   -272.61295    29.746771   -242.86618    2150.7573    133086.98    10.472245   0.18466597 
   28500   -276.24876    34.051594   -242.19717    2462.0056    124546.07    10.472245   0.20521582 
   28600   -272.01669    35.887253   -236.12943    2594.7277    134898.45    10.472245    0.1919048 
   28700   -276.50618    32.457515   -244.04867    2346.7501    121553.49    10.472245   0.18890449 
   28800   -277.88322    33.593032   -244.29019    2428.8505    117806.59    10.472245   0.17067217 
   28900   -274.23013    39.634155   -234.59598     2865.637    133763.81    10.472245   0.19002721 
   29000    -270.0008    39.091666   -230.90913    2826.4139    147522.14    10.472245   0.26412592 
   29100   -272.87296    30.120454    -242.7525    2177.7754    131047.48    10.472245   0.23187434 
   29200   -278.07989    33.755263   -244.32463    2440.5802    116682.38    10.472245    0.1731149 
   29300   -274.90374    38.790186   -236.11356    2804.6163    132651.12    10.472245   0.20906152 
   29400   -275.52842    30.253129    -245.2753    2187.3681    122006.07    10.472245   0.17004046 
   29500   -276.02944    32.891469   -243.13797     2378.126    123484.93    10.472245   0.26603951 
   29600   -272.70722    33.271098   -239.43612     2405.574    133885.84    10.472245   0.22552926 
   29700   -276.16917    32.592109   -243.57706    2356.4816    124277.81    10.472245   0.22647591 
   29800   -273.99376    32.236071   -241.75769    2330.7392    130322.02    10.472245   0.24760512 
   29900   -273.94239    36.090306   -237.85209     2609.409    133305.36    10.472245   0.18243498 
   30000   -275.35122    32.136987   -243.21423    2323.5753    127013.01    10.472245   0.20831329 
   30100   -278.65666    33.157243   -245.49941     2397.342    114728.08    10.472245   0.20313012 
   30200   -272.20204    34.911338    -237.2907     2524.167    139125.14    10.472245   0.22205849 
   30300   -275.01884    31.772213   -243.24663    2297.2013    126170.07    10.472245   0.23571121 
   30400   -275.56254    32.737545     -242.825    2366.9969    125029.81    10.472245   0.17262484 
   30500   -272.11403     38.09557   -234.01846     2754.394    135476.21    10.472245   0.26007013 
   30600   -273.37721    35.347932   -238.02928    2555.7336    136359.87    10.472245   0.28879161 
   30700   -271.72659    28.458843   -243.26775    2057.6373     133942.9    10.472245   0.22733175 
   30800   -271.99222    31.061859   -240.93036    2245.8411    133527.11    10.472245   0.22133875 
   30900   -270.95015    30.867646   -240.08251    2231.7991    140940.92    10.472245   0.20874601 
   31000   -276.32077    28.913153   -247.40762    2090.4849    123046.47    10.472245   0.17531667 
   31100   -272.40484    34.406305   -237.99854    2487.6519    135806.46    10.472245   0.23284259 
   31200   -274.00309    32.544634   -241.45845     2353.049    131390.02    10.472245   0.18882116 
   31300   -269.90734    26.760964   -243.14638    1934.8769    136954.41    10.472245   0.29872745 
   31400   -276.59646    35.819752   -240.77671    2589.8473    125146.72    10.472245   0.23241196 
   31500   -277.82487    31.567911   -246.25696    2282.4298    117358.17    10.472245   0.17777931 
   31600   -277.76384    30.547723   -247.21612    2208.6679       118998    10.472245   0.18876002 
   31700   -270.78609    28.033919   -242.75218    2026.9143    136968.53    10.472245    0.2488099 
   31800   -275.95404    38.414269   -237.53977    2777.4366    126368.87    10.472245   0.18192422 
   31900   -275.97757    29.962657   -246.01491    2166.3664    124039.71    10.472245     0.176416 
   32000   -277.22061    33.161411    -244.0592    2397.6433    118377.28    10.472245   0.15647375 
   32100   -271.98353    34.055618   -237.92791    2462.2965    138072.05    10.472245   0.21179514 
   32200   -275.06667      34.9456   -240.12107    2526.6442    128207.05    10.472245   0.22156425 
   32300   -278.61234    32.185105   -246.42724    2327.0543    116009.27    10.472245   0.20278677 
   32400    -275.0192    31.316743   -243.70246    2264.2698    125401.18    10.472245   0.17408418 
   32500   -272.83001    34.153204    -238.6768    2469.3522    134571.44    10.472245   0.20407147 
   32600   -276.90562    33.052054   -243.85356    2389.7366    120234.49    10.472245   0.26077469 
   32700    -274.8197     34.01475   -240.80495    2459.3416    129075.51    10.472245   0.19466941 
   32800   -274.90861    30.879846   -244.02876    2232.6811    126801.89    10.472245   0.19735235 
   32900   -278.94001    29.511714    -249.4283    2133.7622    112839.31    10.472245   0.18280555 
   33000   -274.53182    32.557632   -241.97419    2353.9888    126402.75    10.472245   0.21822247 
   33100   -272.28466     33.80125   -238.48341    2443.9052    134102.86    10.472245    0.2268482 
   33200   -279.13405     30.81767   -248.31638    2228.1857    112340.65    10.472245   0.15483113 
   33300   -274.90214    30.444538    -244.4576    2201.2074    123510.19    10.472245   0.19348861 
   33400   -279.56848     38.01708    -241.5514     2748.719    116211.46    10.472245   0.15352907 
   33500   -274.24474    30.113867   -244.13088    2177.2992    128089.79    10.472245   0.18235414 
   33600   -272.32445     31.95442   -240.37003    2310.3752    132336.23    10.472245   0.24854629 
   33700   -270.97438    32.878419   -238.09596    2377.1824    139103.95    10.472245   0.29437883 
   33800   -276.62478    30.411033   -246.21375    2198.7849    119587.01    10.472245   0.24980544 
   33900   -271.04659    28.572006   -242.47458    2065.8192    135590.88    10.472245   0.24149641 
   34000   -273.98945    33.246651    -240.7428    2403.8064    129227.57    10.472245   0.19283101 
   34100   -276.99206    29.280432   -247.71162      2117.04    122550.16    10.472245   0.20551012 
   34200   -275.98039    30.847998   -245.13239    2230.3785    121660.86    10.472245   0.20098751 
   34300    -273.1088    32.494334   -240.61446    2349.4122     132425.8    10.472245   0.24488421 
   34400   -273.75311    29.247864   -244.50525    2114.6852    130142.74    10.472245   0.24511179 
   34500   -277.51033    28.638186   -248.87215    2070.6042    117247.14    10.472245   0.16446445 
   34600   -274.03612    34.958503   -239.07762    2527.5771    131768.67    10.472245   0.18525943 
   34700   -277.39597    33.102444   -244.29353    2393.3799    121406.17    10.472245   0.18099678 
   34800   -279.01094    32.203345    -246.8076    2328.3731    116133.73    10.472245   0.18549799 
   34900   -271.73533    33.791406   -237.94392    2443.1934    136007.59    10.472245   0.22076787 
   35000   -277.80256    32.760408   -245.04216      2368.65    117724.43    10.472245   0.17607259 
   35100   -275.48675    33.795997   -241.69075    2443.5254    125238.62    10.472245   0.19081451 
   35200   -274.04651    35.713025   -238.33349    2582.1307    133492.96    10.472245   0.23419048 
   35300    -277.5067    34.519871   -242.98683     2495.863    121090.99    10.472245   0.22562636 
   35400   -275.21087    32.189812   -243.02106    2327.3946    126030.59    10.472245   0.20135628 
   35500   -278.45656    33.773497   -244.68307    2441.8985    116061.88    10.472245   0.18320659 
   35600   -273.70977    33.995549   -239.71422    2457.9534    128511.68    10.472245    0.2055955 
   35700   -270.77186    31.624429   -239.14743    2286.5161    137914.14    10.472245   0.26271603 
   35800   -274.77221    28.012985   -246.75923    2025.4008    125439.08    10.472245   0.23384378 
   35900   -270.84831    30.817678   -240.03063    2228.1863    138249.64    10.472245   0.21917097 
   36000   -272.67721    30.741462   -241.93575    2222.6757    132089.27    10.472245   0.20954782 
   36100   -277.19841    32.624441   -244.57397    2358.8192    121543.59    10.472245   0.18968287 
   36200   -278.30947    33.506377   -244.80309    2422.5852     116426.6    10.472245    0.1695167 
   36300   -271.51419     31.68473   -239.82946    2290.8761    138446.27    10.472245   0.23254038 
   36400   -272.27757     30.31274   -241.96483    2191.6781    134186.14    10.472245   0.24597948 
   36500   -276.05569    29.384055   -246.67163    2124.5322    121227.13    10.472245   0.25569727 
   36600   -272.39999    31.184412   -241.21558     2254.702    134114.57    10.472245    0.2542671 
   36700   -274.30768    31.443288   -242.86439    2273.4193    129917.34    10.472245   0.22979211 
   36800   -279.90463    30.981059   -248.92357    2239.9991    109795.99    10.472245   0.15365698 
   36900   -272.95078    33.522546   -239.42823    2423.7542       135447    10.472245   0.26438976 
   37000   -272.31662    31.419846   -240.89677    2271.7243    130484.72    10.472245   0.27581085 
   37100   -280.00255    31.320884   -248.68166    2264.5692    111915.59    10.472245     0.174602 
   37200    -271.5038    30.755206   -240.74859    2223.6694    136309.07    10.472245   0.27977095 
   37300   -272.09075    33.426828   -238.66393    2416.8336    135933.26    10.472245   0.23190878 
   37400    -273.9888    27.874387   -246.11441    2015.3799    126078.71    10.472245   0.16828037 
   37500   -276.37056    34.819307   -241.55125    2517.5129     123573.4    10.472245   0.16279592 
   37600   -275.06587     33.26192   -241.80395    2404.9104    126439.68    10.472245   0.19897155 
   37700   -279.30363    30.599793   -248.70384    2212.4327    112598.18    10.472245   0.18641063 
   37800    -272.9018    31.698222   -241.20358    2291.8516    131826.19    10.472245   0.24368935 
   37900   -271.83204    30.698009   -241.13404     2219.534    134333.88    10.472245   0.28464935 
   38000    -280.4401    30.994154   -249.44594    2240.9459    110217.41    10.472245   0.14279383 
   38100   -274.28019    32.755171   -241.52502    2368.2713    128834.46    10.472245    0.1613626 
   38200   -273.42926    32.852623   -240.57663    2375.3173    128798.54    10.472245   0.22068813 
   38300   -273.70909    30.426688    -243.2824    2199.9168    128101.12    10.472245   0.21375341 
   38400   -277.34854    30.409537     -246.939    2198.6768    116613.61    10.472245   0.17910514 
   38500   -269.92568    29.995284    -239.9304    2168.7254    139882.16    10.472245   0.28972207 
   38600   -272.37108    33.861994   -238.50909    2448.2971     136908.4    10.472245   0.21584257 
   38700   -273.20356    30.109494   -243.09407     2176.983    129813.73    10.472245   0.23726721 
   38800   -275.09828    32.602179    -242.4961    2357.2096    127702.87    10.472245   0.22371362 
   38900   -269.30883    36.099702   -233.20913    2610.0883    150835.07    10.472245   0.28540273 
   39000   -273.24856     31.73421   -241.51435    2294.4536    131915.95    10.472245   0.21269641 
   39100   -275.15612    32.452038   -242.70409    2346.3541    125814.49    10.472245    0.2507251 
   39200    -271.8307    33.935789   -237.89491    2453.6326    137757.06    10.472245   0.22555163 
   39300   -275.91077    32.664013   -243.24676    2361.6804    127046.67    10.472245   0.19486475 
   39400   -277.13556     33.00211   -244.13345    2386.1255    122169.71    10.472245   0.19360381 
   39500   -274.01972     36.50994   -237.50978    2639.7494    132222.27    10.472245   0.19791525 
   39600   -268.94371    32.513339   -236.43038    2350.7863     146477.2    10.472245    0.2528085 
   39700    -278.4222     32.68726   -245.73494    2363.3612    115943.31    10.472245   0.18133035 
   39800   -272.61699    30.937671   -241.67932    2236.8621    135293.74    10.472245   0.23392194 
   39900   -272.73339    35.246321   -237.48707     2548.387    135827.17    10.472245   0.21674921 
   40000   -275.84877    33.005731   -242.84304    2386.3874    122899.17    10.472245   0.15172887 
   40100   -276.50213    32.397233   -244.10489    2342.3916    121468.83    10.472245   0.18712743 
   40200   -271.55909    36.242861   -235.31623     2620.439    140478.08    10.472245   0.24398947 
   40300   -275.01562    31.594897   -243.42073     2284.381     124561.2    10.472245   0.19662246 
   40400   -273.48738    30.427242   -243.06014    2199.9569    128430.58    10.472245   0.21074581 
   40500   -269.00188    33.797699   -235.20419    2443.6484    146409.58    10.472245   0.28233461 
   40600   -278.71898     34.61074   -244.10824     2502.433    118735.83    10.472245   0.18513193 
   40700   -272.79692    28.743058   -244.05386    2078.1867    130188.73    10.472245   0.22676953 
   40800   -269.95885    32.374106   -237.58474    2340.7194    142199.72    10.472245   0.22364171 
   40900    -282.3559    34.624357   -247.73154    2503.4176    105097.98    10.472245   0.16534598 
   41000   -272.20492    30.922441   -241.28248    2235.7609    135987.57    10.472245   0.21214681 
   41100   -274.63189    34.777019   -239.85487    2514.4554     130049.1    10.472245   0.18220837 
   41200   -276.18864    27.439206   -248.74943    1983.9153    120079.76    10.472245   0.18161514 
   41300   -273.22111    30.417941   -242.80317    2199.2844    133061.61    10.472245   0.20981872 
   41400   -274.03402    31.777321    -242.2567    2297.5706    129025.06    10.472245   0.24172756 
   41500   -276.26996    34.794957   -241.47501    2515.7523    123342.85    10.472245   0.18647677 
   41600   -275.12841    31.499233   -243.62917    2277.4642     123069.8    10.472245   0.22618977 
   41700   -275.05926    36.764675   -238.29459    2658.1673    126788.36    10.472245    0.2035589 
   41800   -276.13183    31.691802   -244.44003    2291.3874    122732.53    10.472245   0.20315525 
   41900    -277.3604    31.531015   -245.82938    2279.7622    122356.77    10.472245   0.18250787 
   42000   -272.69068    35.271037   -237.41964     2550.174    134892.27    10.472245   0.21726246 
   42100    -273.9269    31.009827   -242.91707    2242.0791    128166.94    10.472245   0.25884475 
   42200   -277.46431    34.098026   -243.36629    2465.3627    120246.69    10.472245   0.20326172 
   42300   -271.19347    34.690738   -236.50273    2508.2171    137294.28    10.472245   0.26549389 
   42400   -276.06959    32.674646   -243.39495    2362.4492    124756.69    10.472245   0.19465282 
   42500   -274.32858    30.110209   -244.21837    2177.0347    129898.99    10.472245   0.19728927 
   42600   -275.46631    34.917624   -240.54868    2524.6214    127081.38    10.472245    0.1858185 
   42700   -280.03329    32.490491    -247.5428    2349.1344    113316.27    10.472245   0.16550099 
   42800   -278.51979    35.745487    -242.7743    2584.4778    117917.53    10.472245   0.15366949 
   42900   -273.85371    32.966828   -240.88688    2383.5746    130248.51    10.472245   0.22649733 
   43000    -278.8099    27.884232   -250.92567    2016.0917    111499.56    10.472245   0.15411095 
   43100   -275.50364    30.235745    -245.2679    2186.1112    124137.36    10.472245   0.18542371 
   43200   -275.58485    34.373928   -241.21092     2485.311    126916.92    10.472245   0.19196187 
   43300    -277.6805    33.719996   -243.96051    2438.0303    117625.77    10.472245   0.19367845 
   43400   -277.34949    30.891234   -246.45826    2233.5046     117344.4    10.472245   0.16969943 
   43500   -274.62295    36.082529   -238.54042    2608.8466    130256.17    10.472245   0.20731862 
   43600   -274.50776    31.815965   -242.69179    2300.3647    128097.19    10.472245   0.20145865 
   43700   -277.10487    34.174254   -242.93061    2470.8741    119684.68    10.472245   0.16587637 
   43800   -273.57781     31.07202   -242.50579    2246.5758    129995.88    10.472245   0.20868229 
   43900   -269.97863     36.64456   -233.33407    2649.4827    144531.56    10.472245   0.22898013 
   44000    -275.2516    32.282689   -242.96891    2334.1098    125823.02    10.472245   0.19743052 
   44100   -273.50177    29.333628   -244.16814    2120.8862    130726.57    10.472245   0.19117932 
   44200   -268.05074    32.331029   -235.71971    2337.6049     150839.9    10.472245   0.20850028 
   44300   -273.44332    29.716163   -243.72716    2148.5443    130049.99    10.472245   0.20881593 
   44400   -275.25687    30.957758   -244.29911    2238.3144    125225.65    10.472245   0.21879505 
   44500   -266.76811    30.791027   -235.97708    2226.2593     152845.1    10.472245   0.37826821 
   44600   -265.67325    31.416161   -234.25709    2271.4579    154342.18    10.472245   0.29251511 
   44700   -275.56198    32.742899   -242.81908    2367.3841    128052.78    10.472245   0.28907458 
   44800   -271.57947    33.078666    -238.5008    2391.6607    136609.43    10.472245   0.21748199 
   44900   -274.36523     31.29902   -243.06621    2262.9884    125624.19    10.472245   0.23591118 
   45000   -277.05286     30.84072   -246.21214    2229.8523    119878.89    10.472245    0.1953283 
   45100   -270.92693    29.031034   -241.89589     2099.008    137313.77    10.472245   0.26090144 
   45200   -272.69249    31.998107   -240.69438    2313.5339    134083.88    10.472245   0.22296757 
   45300   -277.86141    28.856652   -249.00476    2086.3998    114055.21    10.472245   0.15077945 
   45400   -273.42101    28.485493   -244.93551    2059.5642    128186.28    10.472245   0.24101313 
   45500   -274.91648    32.784819   -242.13166    2370.4149    126950.75    10.472245   0.25821205 
   45600   -274.87215    37.540774   -237.33137     2714.281    132064.76    10.472245   0.20092948 
   45700   -273.87481    29.024052   -244.85076    2098.5032    128930.63    10.472245    0.2301335 
   45800   -271.84178    27.747934   -244.09384     2006.237    134783.65    10.472245    0.2809056 
   45900   -271.18852    32.414789   -238.77374    2343.6609    138324.47    10.472245   0.22534442 
   46000    -276.7264     31.09822   -245.62818    2248.4701     120060.7    10.472245   0.17543641 
   46100   -275.41549    31.999048   -243.41644     2313.602    126039.05    10.472245   0.20598281 
   46200    -274.0107    33.439593   -240.57111    2417.7565    131217.16    10.472245   0.22654139 
   46300   -276.67399     32.26252   -244.41147    2332.6516    120335.26    10.472245   0.18119645 
   46400   -276.73644    29.828797   -246.90765     2156.688    120210.89    10.472245   0.16964985 
   46500   -275.20996    34.280016   -240.92994     2478.521    127753.27    10.472245   0.21413226 
   46600   -274.49762    34.257603   -240.24001    2476.9005    130929.69    10.472245   0.23328263 
   46700   -276.69052    29.849688   -246.84083    2158.1984    120600.71    10.472245   0.17712784 
   46800   -275.52452    31.554516      -243.97    2281.4613     122046.3    10.472245   0.19817399 
   46900   -271.72641    33.183305   -238.54311    2399.2264    135620.05    10.472245   0.23481558 
   47000   -278.18342    35.036818    -243.1466    2533.2395    118927.29    10.472245   0.21503093 
   47100   -273.30586    34.991362   -238.31449    2529.9529    131500.97    10.472245    0.1745089 
   47200   -274.15252    31.264338   -242.88818    2260.4808    127611.59    10.472245   0.21855742 
   47300   -273.96121    28.367242   -245.59397    2051.0143    129087.15    10.472245   0.19088917 
   47400   -274.74446    34.019175   -240.72528    2459.6616     129314.2    10.472245    0.2312349 
   47500   -275.68204    32.353438    -243.3286    2339.2251    124746.76    10.472245   0.20002023 
   47600   -274.70687    31.293209   -243.41366    2262.5682    128080.93    10.472245   0.19782761 
   47700   -271.81404    34.906722   -236.90731    2523.8332    140665.93    10.472245   0.21180546 
   47800   -278.72084    33.093222   -245.62761    2392.7131     114878.5    10.472245   0.18487854 
   47900   -272.87478    32.077853   -240.79692    2319.2997    133602.45    10.472245   0.19479707 
   48000   -269.77583    34.474713   -235.30112     2492.598    142095.99    10.472245   0.25384543 
   48100   -274.12416     33.89396    -240.2302    2450.6083    129074.71    10.472245   0.23768355 
   48200   -271.75404    26.862533    -244.8915    1942.2205    133626.06    10.472245   0.29818931 
   48300   -273.59551    37.265382   -236.33013    2694.3696    130884.34    10.472245    0.2289909 
   48400   -274.87012    32.674988   -242.19513    2362.4739    126569.18    10.472245   0.22537254 
   48500    -274.5611    30.942164   -243.61893    2237.1869    130390.89    10.472245   0.20166459 
   48600   -273.85006    40.294207   -233.55586    2913.3603    135725.27    10.472245   0.21805759 
   48700   -271.87637    31.208045   -240.66832    2256.4107    136228.58    10.472245   0.22750016 
   48800   -275.55661    31.094001   -244.46261    2248.1651    121832.52    10.472245   0.23490088 
   48900    -274.4511    31.934812   -242.51629    2308.9575    129537.97    10.472245   0.21203992 
   49000   -275.97966    33.929477   -242.05018    2453.1762    122830.72    10.472245   0.19197578 
   49100   -275.33557    32.143278   -243.19229    2324.0301    127274.05    10.472245   0.23557144 
   49200   -272.07876    38.453735   -233.62503    2780.2901    140094.62    10.472245   0.26088842 
   49300   -272.74323    30.949872   -241.79335    2237.7442    133522.82    10.472245   0.30541941 
   49400   -277.25801    37.095922   -240.16209    2682.1172    120737.19    10.472245   0.18439292 
   49500   -272.83789    31.317116   -241.52078    2264.2967     131565.2    10.472245   0.22587784 
   49600   -277.26147    31.895471   -245.36599    2306.1131    116781.58    10.472245   0.15849167 
   49700   -272.97978    34.193715   -238.78607    2472.2812    135584.53    10.472245   0.21867313 
   49800   -269.43179      29.0341   -240.39769    2099.2297    141597.65    10.472245   0.21627308 
   49900    -276.2866    30.027527   -246.25908    2171.0566    120673.78    10.472245   0.17105159 
   50000   -272.20006    31.903328   -240.29673    2306.6812    133991.01    10.472245   0.23253383 
   50100   -267.02709    35.942371   -231.08472    2598.7129    152039.47    10.472245   0.21820241 
   50200   -275.37368    34.413606   -240.96008    2488.1798    122352.47    10.472245   0.22024983 
   50300    -271.9552    29.761383   -242.19382    2151.8138     133225.1    10.472245   0.22676874 
   50400   -270.33721     26.96787   -243.36934    1949.8366    136223.31    10.472245   0.37989083 
   50500   -269.73643    31.828202   -237.90822    2301.2494    139112.11    10.472245   0.29782218 
   50600   -275.88317    28.062751   -247.82042     2028.999     120698.9    10.472245   0.19237019 
   50700   -275.30733    32.528194   -242.77914    2351.8604    127661.37    10.472245   0.17438097 
   50800   -271.14342     31.63271   -239.51071    2287.1149    137359.59    10.472245   0.25776185 
   50900    -269.2741    35.762637   -233.51146    2585.7178    146009.66    10.472245   0.31854306 
   51000   -273.57311    31.186484   -242.38663    2254.8518    129982.47    10.472245   0.21245455 
   51100   -275.12895     30.62003   -244.50892    2213.8959    127488.17    10.472245   0.17542586 
   51200   -272.48589    35.568278   -236.91761    2571.6651     138253.5    10.472245   0.21236854 
   51300   -272.51203    30.104273   -242.40775    2176.6055    135327.21    10.472245   0.23515538 
   51400   -276.32897    31.242048   -245.08693    2258.8692    124034.25    10.472245   0.19264909 
   51500   -274.40958    37.369879    -237.0397    2701.9249    130567.21    10.472245   0.20771257 
   51600   -269.78841    31.630808    -238.1576    2286.9774    140712.65    10.472245    0.2540125 
   51700   -271.90247    28.155545   -243.74692    2035.7081    130766.22    10.472245   0.20080975 
   51800   -275.05324    33.248918   -241.80432    2403.9703       125832    10.472245   0.19688643 
   51900   -273.06114    35.348435   -237.71271      2555.77    136111.29    10.472245   0.21115872 
   52000   -273.77481    28.152655   -245.62215    2035.4992    127894.47    10.472245   0.20909197 
   52100   -277.48839     35.24689    -242.2415    2548.4281    119302.27    10.472245   0.20090199 
   52200   -273.90308    37.878967   -236.02411    2738.7331    135970.91    10.472245    0.2468625 
   52300   -267.83894    35.497659   -232.34128    2566.5592    152178.93    10.472245   0.34837459 
   52400   -274.83868    32.057124   -242.78155     2317.801     129044.7    10.472245   0.21140043 
   52500   -272.27163    31.853373   -240.41826    2303.0693     135601.2    10.472245   0.22870728 
   52600    -272.6357     36.73869   -235.89701    2656.2885    135295.32    10.472245   0.22731001 
   52700   -276.08146     30.39849   -245.68297    2197.8781    120672.36    10.472245   0.22393088 
   52800   -271.55523    32.098721   -239.45651    2320.8086    137341.34    10.472245   0.23916232 
   52900   -273.26301    34.270959   -238.99205    2477.8661    134362.78    10.472245   0.19486017 
   53000   -276.10116     33.28562   -242.81554    2406.6239    123613.48    10.472245   0.20704111 
   53100   -273.19821    28.968833   -244.22938    2094.5107    128712.57    10.472245   0.21884162 
   53200   -273.39971    31.897186   -241.50252    2306.2371    129688.25    10.472245   0.34005819 
   53300   -273.03704    34.885651   -238.15139    2522.3097    134064.11    10.472245    0.2479134 
   53400   -274.26948    30.483569   -243.78591    2204.0295    127561.04    10.472245   0.22376107 
   53500   -275.90708    33.109545   -242.79754    2393.8934    124530.89    10.472245   0.20685468 
   53600   -271.92247    38.539845   -233.38263     2786.516    140587.45    10.472245   0.20313322 
   53700   -272.13278    31.011869   -241.12092    2242.2268    132696.74    10.472245   0.23188862 
   53800   -273.44385    30.574727   -242.86913    2210.6204    132375.33    10.472245   0.20113918 
   53900   -274.33299     32.08429    -242.2487    2319.7651    127477.71    10.472245   0.20639291 
   54000   -272.10117    30.732973    -241.3682    2222.0619    135350.32    10.472245   0.23752384 
   54100   -276.70465    32.801545    -243.9031    2371.6242    121068.74    10.472245   0.21187164 
   54200   -277.27801    30.782165   -246.49584    2225.6186    121790.27    10.472245   0.20538947 
   54300   -273.92909    35.712473   -238.21661    2582.0908     133282.1    10.472245   0.22852123 
   54400   -272.84251    28.206365   -244.63614    2039.3826    132563.77    10.472245   0.25927474 
   54500   -275.45181    28.844617   -246.60719    2085.5296    121906.02    10.472245   0.24292147 
   54600   -273.62151       33.778   -239.84351    2442.2241    131697.91    10.472245   0.20785863 
   54700   -275.48674    32.562661   -242.92408    2354.3524    123697.55    10.472245   0.18652629 
   54800   -276.52614     29.56612   -246.96002    2137.6959    120201.89    10.472245   0.18199903 
   54900   -272.99233    32.457766   -240.53456    2346.7683    132187.99    10.472245   0.25463866 
   55000   -272.99664    32.502916   -240.49373    2350.0327    132014.47    10.472245   0.17137067 
   55100   -275.32614    31.756026   -243.57011     2296.031    122662.78    10.472245   0.20795691 
   55200   -272.79771    34.645784   -238.15192    2504.9668    136748.83    10.472245   0.23571244 
   55300   -267.32022    31.421585   -235.89864    2271.8501     151449.8    10.472245   0.38055116 
   55400   -273.81209    37.357538   -236.45455    2701.0326    133124.98    10.472245   0.23647159 
   55500   -280.09761    33.741084   -246.35652     2439.555    111611.71    10.472245   0.16368687 
   55600   -276.59934     36.08471   -240.51463    2609.0044    124312.52    10.472245    0.2455164 
   55700   -275.31434    35.952705   -239.36163    2599.4601    128054.52    10.472245   0.22013161 
   55800   -277.09652    35.073282   -242.02324    2535.8759    122238.93    10.472245   0.15635585 
   55900    -278.8744    29.070881   -249.80352     2101.889    112210.45    10.472245   0.19087052 
   56000   -278.04167    29.475076   -248.56659    2131.1132    116318.13    10.472245   0.19008437 
   56100    -273.6943    33.143101    -240.5512    2396.3195    132883.07    10.472245   0.19780034 
   56200   -273.61635    32.082988   -241.53336     2319.671    129600.69    10.472245   0.20372092 
   56300   -275.99348    28.167374    -247.8261    2036.5634    120921.42    10.472245   0.25342143 
   56400   -276.07494    34.012842    -242.0621    2459.2037    121872.33    10.472245   0.17343973 
   56500   -271.89636    30.313635   -241.58273    2191.7429    133451.81    10.472245   0.23616134 
   56600   -275.01255    34.261736   -240.75081    2477.1993     128753.9    10.472245   0.18814613 
   56700   -277.46062     30.77282    -246.6878     2224.943    119309.37    10.472245   0.19115803 
   56800   -270.86218    33.430839   -237.43134    2417.1236    137497.41    10.472245    0.1938943 
   56900   -273.45177    32.910852   -240.54092    2379.5274    132556.99    10.472245   0.23088141 
   57000   -275.05912     30.54413   -244.51499    2208.4082    125019.13    10.472245   0.18924899 
   57100   -281.80169    32.076267   -249.72542     2319.185     105970.9    10.472245   0.14046433 
   57200   -272.89181    31.686895   -241.20492    2291.0326    134180.24    10.472245   0.24627199 
   57300   -272.46384    34.059839     -238.404    2462.6017    134247.79    10.472245   0.24820275 
   57400    -275.9329     28.36879   -247.56411    2051.1263    122178.78    10.472245   0.18767199 
   57500   -272.50993    29.055651   -243.45428    2100.7879    133870.96    10.472245   0.23009627 
   57600   -274.09756    32.737927   -241.35963    2367.0246    129074.43    10.472245   0.22177733 
   57700   -272.50243    30.707885   -241.79455     2220.248    132329.45    10.472245   0.24635712 
   57800   -264.61062    29.349436   -235.26119    2122.0292    157190.09    10.472245    0.3765484 
   57900   -275.70369    31.199662   -244.50403    2255.8046    123643.65    10.472245   0.22818686 
   58000   -276.06292    32.448594   -243.61432    2346.1052    125594.91    10.472245    0.1670061 
   58100   -271.12137    35.595883   -235.52549    2573.6611    138032.25    10.472245   0.28676885 
   58200   -270.83608    34.479567   -236.35651     2492.949    142408.33    10.472245   0.23127962 
   58300   -274.52196    29.531534   -244.99042    2135.1953       127337    10.472245   0.19287522 
   58400   -277.19111    37.321374   -239.86974    2698.4179    123283.81    10.472245   0.18331054 
   58500   -273.58475    33.913511   -239.67124    2452.0219    131715.26    10.472245    0.2456849 
   58600   -278.53679    31.378073   -247.15872    2268.7041    115434.81    10.472245   0.17002179 
   58700   -276.39334    33.645746   -242.74759    2432.6618    120351.48    10.472245   0.23426814 
   58800   -272.32533    34.263793   -238.06154     2477.348    134579.64    10.472245   0.29894138 
   58900   -276.34087    33.588545   -242.75233    2428.5261    123187.71    10.472245   0.17281891 
   59000   -276.30987    30.475771    -245.8341    2203.4656    119239.89    10.472245   0.18521127 
   59100   -272.76924    30.844094   -241.92515    2230.0962    134233.87    10.472245   0.25426736 
   59200   -275.40434    33.592257   -241.81209    2428.7945    125835.32    10.472245   0.19427585 
   59300   -274.67077    26.006358   -248.66441    1880.3172    126514.24    10.472245   0.22056649 
   59400   -269.46748    30.176066   -239.29141    2181.7963    141380.43    10.472245    0.2522932 
   59500   -271.96072    29.660465   -242.30025    2144.5172    132339.55    10.472245    0.1966555 
   59600   -277.42843    31.701444   -245.72699    2292.0845    119654.75    10.472245   0.16982608 
   59700   -276.90929    34.031761   -242.87753    2460.5716    123931.38    10.472245   0.18430343 
   59800   -271.57523     32.03915   -239.53608    2316.5014    136808.37    10.472245   0.22028838 
   59900   -270.20957    34.909395   -235.30018    2524.0265    142073.02    10.472245   0.27958688 
   60000   -278.56076     34.69318   -243.86758    2508.3937    116156.91    10.472245   0.16923183 
   60100   -279.12136    33.156907   -245.96445    2397.3177    113873.92    10.472245   0.16047956 
   60200   -271.48058    34.664406   -236.81617    2506.3132    139192.62    10.472245   0.22138983 
   60300    -275.1258    31.217107   -243.90869    2257.0659     125624.7    10.472245    0.2025159 
   60400   -275.74505    32.656033   -243.08902    2361.1034     124452.1    10.472245   0.25162941 
   60500   -275.95792    34.790585   -241.16733    2515.4363    127124.66    10.472245   0.17267802 
   60600   -279.46583    29.383463   -250.08237    2124.4894     111549.4    10.472245   0.16167071 
   60700   -274.10268    30.118858   -243.98382      2177.66       126892    10.472245   0.25352477 
   60800   -274.98842    34.424954   -240.56347    2489.0003    129400.33    10.472245   0.20304294 
   60900    -279.4247    32.139203    -247.2855    2323.7354    114346.95    10.472245   0.18310562 
   61000   -279.67338    33.322576   -246.35081     2409.296    114467.49    10.472245   0.18491414 
   61100   -273.08433    32.443093   -240.64123    2345.7074    131847.55    10.472245   0.24215917 
   61200   -275.86108     30.74388    -245.1172    2222.8505    122108.74    10.472245   0.15584734 
   61300   -281.23816    32.728146   -248.51001    2366.3173    108341.37    10.472245   0.11857302 
   61400       -275.8    35.882052   -239.91795    2594.3517    127353.66    10.472245   0.18870074 
   61500   -276.77567    32.114153   -244.66152    2321.9243    120349.16    10.472245    0.1546183 
   61600   -275.68657    28.355822   -247.33074    2050.1887    122180.53    10.472245   0.15562269 
   61700   -271.69392    32.931361   -238.76256    2381.0102    135792.03    10.472245   0.22610711 
   61800   -272.09717    29.284145   -242.81303    2117.3084    132946.76    10.472245   0.27236926 
   61900   -278.20426    32.727456   -245.47681    2366.2674    117043.41    10.472245   0.18888737 
   62000    -277.2966    39.224547   -238.07205    2836.0215    125630.03    10.472245   0.16568976 
   62100   -273.78337     28.00739   -245.77598    2024.9963    126834.38    10.472245   0.22498101 
   62200   -271.71066    27.301469   -244.40919    1973.9566    134297.93    10.472245    0.1967747 
   62300   -271.36265    32.395095   -238.96756     2342.237     137205.2    10.472245   0.20969232 
   62400   -276.75473    29.278927    -247.4758    2116.9312    119333.37    10.472245   0.18580076 
   62500   -274.06262    31.560456   -242.50216    2281.8908    128729.06    10.472245   0.21519481 
   62600   -274.64755    34.945221   -239.70233    2526.6168    129211.57    10.472245   0.19481694 
   62700   -277.23629    33.201981   -244.03431    2400.5766    119987.76    10.472245   0.20383782 
   62800    -273.6311    32.326933   -241.30417    2337.3087    131727.33    10.472245   0.20181977 
   62900   -263.81864    34.821825   -228.99681     2517.695    161056.87    10.472245   0.33208288 
   63000   -272.87248    33.522694   -239.34978    2423.7649    133665.91    10.472245   0.18540057 
   63100   -276.87935    32.669728   -244.20962    2362.0936    120592.45    10.472245   0.24233577 
   63200   -274.74542    38.055047   -236.69038     2751.464    130280.06    10.472245   0.25640097 
   63300   -267.74834    28.186826   -239.56151    2037.9698    145491.22    10.472245   0.26872926 
   63400   -272.95829    30.158163   -242.80013    2180.5019    132048.16    10.472245   0.24367535 
   63500   -273.78774    36.295201   -237.49254    2624.2233    131271.93    10.472245    0.1852647 
   63600   -274.02221    29.618924   -244.40329    2141.5137    127559.92    10.472245   0.23673722 
   63700   -275.01556    28.139056    -246.8765     2034.516    125231.01    10.472245   0.18697121 
   63800   -272.13127    34.201673    -237.9296    2472.8566    137948.67    10.472245   0.19740118 
   63900    -274.4893    30.749832   -243.73947    2223.2809    127966.27    10.472245   0.20295451 
   64000   -280.04052    35.582917    -244.4576    2572.7236    113516.56    10.472245   0.18507938 
   64100   -273.96744    32.330824   -241.63662    2337.5901    129293.01    10.472245   0.25142365 
   64200    -271.0795    36.148713   -234.93079    2613.6319    142269.12    10.472245   0.19744089 
   64300   -274.43189    32.707436   -241.72446      2364.82       128464    10.472245   0.18680955 
   64400   -275.79187    30.231626   -245.56025    2185.8135       126009    10.472245    0.2029775 
   64500   -273.36891    35.702377   -237.66654    2581.3609    135139.64    10.472245   0.22397387 
   64600   -276.61477    34.769822   -241.84495     2513.935    123692.59    10.472245   0.22478448 
   64700   -274.12208    31.387366   -242.73472     2269.376    128038.32    10.472245   0.23078056 
   64800   -276.25966    33.019383   -243.24028    2387.3744    124507.55    10.472245   0.18637602 
   64900   -275.33824     29.59267   -245.74557    2139.6155    123418.48    10.472245   0.18394467 
   65000   -272.94481    34.359546   -238.58527    2484.2712    136096.64    10.472245   0.20020312 
   65100   -276.73543    30.553028    -246.1824    2209.0515    119234.02    10.472245   0.18397363 
   65200   -275.88525     31.50846   -244.37679    2278.1313    125603.14    10.472245   0.18277289 
   65300   -272.04026    33.317336   -238.72292    2408.9171    136884.71    10.472245   0.22111074 
   65400   -276.34299    26.846206   -249.49678    1941.0401    118885.91    10.472245   0.18888435 
   65500    -273.8005    30.526629   -243.27387    2207.1428    129233.03    10.472245   0.19159575 
   65600   -273.30713    32.558491   -240.74864    2354.0509    133969.87    10.472245   0.18810587 
   65700   -280.45024    30.420759   -250.02948    2199.4882     108374.9    10.472245   0.15115874 
   65800   -277.96073    32.105876   -245.85486    2321.3259    116034.37    10.472245   0.18269518 
   65900   -273.34882    32.570819     -240.778    2354.9423    133240.33    10.472245   0.20372453 
   66000   -275.19766    33.681029   -241.51663    2435.2129    126706.28    10.472245   0.19464222 
   66100   -276.12638    29.437215   -246.68917    2128.3758    120707.68    10.472245   0.19188513 
   66200   -275.51187    37.168384   -238.34349    2687.3564    126827.26    10.472245   0.18973455 
   66300   -272.32384      31.1149   -241.20894    2249.6761    132669.67    10.472245    0.2331556 
   66400   -275.06296    31.043538   -244.01942    2244.5165    125360.31    10.472245   0.18697232 
   66500    -275.0185    33.521153   -241.49734    2423.6535     128898.2    10.472245   0.20410849 
   66600    -269.9495    36.015116   -233.93439    2603.9725    140732.72    10.472245   0.31423441 
   66700   -275.48542    32.943722   -242.54169    2381.9039    123923.61    10.472245   0.23419615 
   66800   -273.77636    29.153176   -244.62318    2107.8391    131874.01    10.472245   0.18962447 
   66900   -278.66425    40.436179   -238.22808    2923.6252    122534.72    10.472245   0.16244579 
   67000   -275.84002    34.575192   -241.26482    2499.8629    126123.09    10.472245   0.21042245 
   67100    -273.5544    28.405179   -245.14922    2053.7573    128924.75    10.472245   0.20456559 
   67200   -271.90614    32.839613   -239.06653    2374.3766    135652.91    10.472245   0.24580691 
   67300    -264.6986    34.201927   -230.49668     2472.875    160490.56    10.472245   0.32220828 
   67400   -271.70278    32.086937   -239.61584    2319.9565    137057.92    10.472245    0.2623999 
   67500    -275.2351    31.991868   -243.24323    2313.0828    125508.82    10.472245    0.2053976 
   67600   -275.99483    29.503646   -246.49118    2133.1788    121517.93    10.472245   0.19713407 
   67700   -270.75993    32.190958   -238.56898    2327.4775    137386.13    10.472245   0.27212252 
   67800   -274.59776     34.36489   -240.23287    2484.6575    129709.81    10.472245   0.27597917 
   67900   -276.82971    28.472727   -248.35699    2058.6411    121292.49    10.472245   0.23497995 
   68000   -274.97378    32.905409   -242.06837    2379.1339    127339.32    10.472245   0.26919672 
   68100   -270.55705    30.819268   -239.73778    2228.3013    135492.34    10.472245   0.23029888 
   68200   -278.50902     29.24874   -249.26028    2114.7486    114686.32    10.472245   0.19116887 
   68300   -273.71387    32.786281   -240.92759    2370.5206    131157.56    10.472245    0.2554608 
   68400   -276.14877    36.170401   -239.97837       2615.2    125688.45    10.472245   0.21006513 
   68500   -276.33271    27.819125   -248.51358    2011.3843    120726.54    10.472245   0.18011741 
   68600    -272.1175    29.784856   -242.33264     2153.511    134309.03    10.472245   0.20830499 
   68700   -275.04357    33.453776   -241.58979     2418.782     127338.5    10.472245   0.15554684 
   68800   -279.49766    27.634773   -251.86289    1998.0552    109442.76    10.472245   0.16310126 
   68900   -277.32737    28.630114   -248.69726    2070.0206    116998.94    10.472245   0.16367131 
   69000   -273.77655    32.510331   -241.26622    2350.5688    130361.96    10.472245   0.22530351 
   69100   -274.86748    33.754962   -241.11252    2440.5584    130889.58    10.472245   0.18394031 
   69200   -279.05827    30.592275     -248.466    2211.8892    113986.07    10.472245   0.16870453 
   69300   -272.49634    30.809699   -241.68664    2227.6094    130789.47    10.472245   0.23870767 
   69400   -275.51417    33.320318   -242.19385    2409.1327    126200.61    10.472245   0.19609124 
   69500   -283.16721    31.257211      -251.91    2259.9655    100621.54    10.472245   0.13840408 
   69600   -278.82879    32.354567   -246.47422    2339.3067    117821.98    10.472245   0.15136808 
   69700   -277.88159    38.214328   -239.66727    2762.9805    120979.92    10.472245   0.18061844 
   69800   -275.87798      34.3529   -241.52508    2483.7906    123832.83    10.472245   0.20181668 
   69900   -278.87205    30.760174   -248.11188    2224.0286    113725.73    10.472245   0.16956867 
   70000   -273.91171    33.432566   -240.47914    2417.2485    131663.14    10.472245   0.18981424 
   70100   -276.52148    33.727395   -242.79409    2438.5652     121849.3    10.472245   0.16882897 
   70200   -279.43786    33.757924   -245.67994    2440.7726     114181.3    10.472245   0.18223181 
   70300   -270.48207    32.952116   -237.52995    2382.5109    140828.07    10.472245   0.23891369 
   70400    -273.7131    31.639915   -242.07318    2287.6359    131661.65    10.472245     0.241252 
   70500   -275.17741    30.415364   -244.76205    2199.0981    124491.62    10.472245     0.177746 
   70600    -275.2972    34.384732   -240.91247    2486.0922    127997.53    10.472245     0.173935 
   70700   -271.38406    29.202403   -242.18165    2111.3984    137717.93    10.472245    0.2257692 
   70800   -276.44173     31.33924   -245.10249    2265.8964     119554.1    10.472245   0.17297163 
   70900   -279.20577     32.40518   -246.80059    2342.9662    116284.96    10.472245   0.15730412 
   71000   -275.29521    36.868362   -238.42685    2665.6641    127329.74    10.472245   0.18714084 
   71100   -276.76977    33.546552   -243.22322    2425.4899    123121.91    10.472245   0.17736529 
   71200   -273.17928    31.161297   -242.01798    2253.0307    129597.34    10.472245   0.22767652 
   71300   -273.02093    36.175682   -236.84525    2615.5818    134084.95    10.472245   0.22088788 
   71400    -273.4227    30.315095   -243.10761    2191.8484    132375.73    10.472245   0.21564127 
   71500    -271.7469      31.8654   -239.88149    2303.9389    137604.11    10.472245   0.21384897 
   71600   -273.95349    34.134624   -239.81886    2468.0088    131058.32    10.472245   0.20550121 
   71700    -275.3692    29.599328   -245.76987    2140.0969     124097.8    10.472245   0.20039303 
   71800   -273.04585    32.996625   -240.04923     2385.729    134301.05    10.472245   0.23154027 
   71900   -270.25406    28.893678   -241.36038    2089.0768    140776.06    10.472245   0.24358103 
   72000    -277.5323    29.268618   -248.26368    2116.1858    115641.64    10.472245    0.2011548 
   72100   -272.13612    31.635515   -240.50061    2287.3177    136332.07    10.472245   0.20837682 
   72200   -276.34786    33.216436   -243.13142    2401.6218    122081.88    10.472245   0.25910473 
   72300   -278.85832    30.916618   -247.94171    2235.3399    114540.57    10.472245   0.16376008 
   72400   -272.40758    33.596729   -238.81085    2429.1178    136341.19    10.472245   0.18809606 
   72500   -276.50497    33.572684   -242.93229    2427.3793    123189.43    10.472245   0.19996949 
   72600   -279.43077    29.980265    -249.4505    2167.6395    109495.66    10.472245   0.18319145 
   72700   -273.46516    34.429746   -239.03542    2489.3468    133411.02    10.472245   0.22423869 
   72800   -276.48025    33.920967   -242.55928    2452.5609     123622.4    10.472245   0.16448213 
   72900    -274.6558    28.350458   -246.30534    2049.8008    127505.41    10.472245   0.21082167 
   73000   -274.99817      33.6516   -241.34657    2433.0851    126849.67    10.472245   0.20903653 
   73100   -274.09406    32.677414   -241.41665    2362.6493    129882.29    10.472245   0.23540843 
   73200   -274.70549    27.793433   -246.91206    2009.5267    125495.78    10.472245    0.1956463 
   73300   -276.85401    33.423533   -243.43048    2416.5954    122573.59    10.472245   0.19026498 
   73400   -273.69706    35.123339   -238.57372    2539.4951     130208.4    10.472245   0.23726317 
   73500   -273.91842    30.359294   -243.55912    2195.0441    128241.33    10.472245   0.19736766 
   73600   -275.82852    32.162857   -243.66567    2325.4457    124680.74    10.472245   0.19390511 
   73700   -270.09059    37.815626   -232.27496    2734.1534    143459.94    10.472245   0.23757748 
   73800   -275.04872    32.885683   -242.16304    2377.7076    127048.29    10.472245   0.22100106 
   73900   -273.82663    29.139292   -244.68734    2106.8353    127123.25    10.472245   0.20543002 
   74000   -273.24006    35.620887   -237.61917    2575.4689    135933.72    10.472245    0.2128275 
   74100   -275.12055    30.962635   -244.15792     2238.667    128094.09    10.472245   0.17927581 
   74200    -278.5887    34.102774   -244.48593     2465.706     116474.3    10.472245   0.15228333 
   74300   -272.38698    33.686564   -238.70042    2435.6131    135976.53    10.472245    0.2337488 
   74400   -267.87774    36.224683   -231.65305    2619.1247     150996.1    10.472245   0.24179126 
   74500   -276.41414    34.397134   -242.01701    2486.9889    123210.48    10.472245   0.15737165 
   74600    -278.6232    32.361073   -246.26213    2339.7772    116441.33    10.472245   0.16944774 
   74700   -268.82543    31.993261   -236.83217    2313.1835    141917.63    10.472245   0.23014226 
   74800   -271.26789    29.831166   -241.43672    2156.8593    134623.73    10.472245   0.25807924 
   74900   -273.32897    30.853454   -242.47551     2230.773    128079.86    10.472245   0.22066706 
   75000   -275.85534    30.282585   -245.57276    2189.4979    122976.45    10.472245   0.16896526 
   75100   -279.92453    31.045932    -248.8786    2244.6895    109749.45    10.472245    0.1565747 
   75200   -270.27087    28.797359   -241.47351    2082.1128    137574.11    10.472245   0.26235084 
   75300   -271.23774    29.136911   -242.10083    2106.6631    137491.04    10.472245   0.20728735 
   75400   -278.89627     29.57666   -249.31961     2138.458    115717.01    10.472245   0.17240558 
   75500   -272.53439    29.899756   -242.63463    2161.8185    131738.01    10.472245   0.24573151 
   75600    -276.1717    38.423825   -237.74788    2778.1276    130098.25    10.472245   0.18794531 
   75700   -275.92872    30.280144   -245.64858    2189.3214    125385.14    10.472245   0.20235998 
   75800   -275.61057    32.160812   -243.44976    2325.2978    124172.37    10.472245   0.17787799 
   75900    -271.4461    30.883303   -240.56279    2232.9311       138339    10.472245   0.22129835 
   76000   -278.57621    29.056097   -249.52011    2100.8201    112955.43    10.472245   0.15332246 
   76100   -276.31839    33.678663   -242.63973    2435.0418     122459.9    10.472245    0.1853675 
   76200   -273.20893     33.46792   -239.74101    2419.8046    133922.07    10.472245   0.21049779 
   76300   -279.38631    32.533058   -246.85325     2352.212    114401.58    10.472245    0.1749336 
   76400   -275.15302    31.685524    -243.4675    2290.9335    126845.35    10.472245   0.20499961 
   76500   -278.15137      37.2662   -240.88517    2694.4287    120079.27    10.472245   0.15957165 
   76600   -279.76964    32.441876   -247.32777    2345.6194    112039.15    10.472245   0.17069763 
   76700   -275.89011    37.390163   -238.49994    2703.3915    128337.48    10.472245   0.20953239 
   76800   -275.25193    34.037114   -241.21482    2460.9586    124574.33    10.472245    0.2061409 
   76900   -277.99206    32.505812   -245.48625    2350.2421    116275.82    10.472245   0.15715233 
   77000   -274.31901    32.331033   -241.98798    2337.6052    130942.25    10.472245   0.18106469 
   77100   -275.32752    33.612476   -241.71504    2430.2564    127993.17    10.472245   0.20819136 
   77200   -275.50033    32.175019   -243.32531     2326.325    125045.72    10.472245   0.21850027 
   77300   -276.39498    34.387535   -242.00745    2486.2949    120500.63    10.472245   0.18226916 
   77400    -278.2424    35.355148   -242.88725    2556.2554    120607.13    10.472245   0.16060828 
   77500   -275.06961    29.042573   -246.02704    2099.8423    124615.57    10.472245   0.19389063 
   77600   -275.15787    30.181363    -244.9765    2182.1793    125341.49    10.472245   0.22185237 
   77700   -272.42686    33.034942   -239.39192    2388.4994    135042.82    10.472245   0.30414276 
   77800   -275.96685    30.332185   -245.63466    2193.0841    122056.71    10.472245   0.18026187 
   77900   -279.92765    33.752603   -246.17504    2440.3879    111681.76    10.472245   0.16109248 
   78000   -273.09778    32.456443   -240.64134    2346.6726    132642.11    10.472245   0.21882732 
[...]
  481400   -266.15482    33.909665   -232.24516    2451.7438    155977.17    10.472245    2240.3484 
  481500   -261.96478    28.632494   -233.33228    2070.1926    167033.51    10.472245    2235.6325 
  481600   -258.62123    32.907634    -225.7136    2379.2947     178202.7    10.472245    2227.7907 
  481700   -261.74786    32.050012   -229.69785    2317.2867    164671.24    10.472245    2229.0913 
  481800   -263.85729    28.867309   -234.98998    2087.1703    158803.74    10.472245    2230.8536 
  481900   -261.33152    30.302411    -231.0291    2190.9313    168203.41    10.472245    2223.4452 
  482000   -262.30551    34.064578   -228.24093    2462.9443    171947.25    10.472245    2230.7614 
  482100    -263.5224    35.013094    -228.5093    2531.5242    164553.55    10.472245    2232.8188 
  482200   -264.94026    31.544808   -233.39545    2280.7594    155580.36    10.472245    2240.4934 
  482300   -260.47594    34.430382   -226.04556    2489.3928    170806.01    10.472245    2231.1504 
  482400   -261.38907    32.148737   -229.24033    2324.4248    171204.24    10.472245    2236.6533 
  482500   -261.72546    29.944116   -231.78134    2165.0258    165815.07    10.472245    2239.2467 
  482600     -260.943    31.589146   -229.35385    2283.9651    175124.19    10.472245    2244.4481 
  482700   -256.21519    34.514243   -221.70095    2495.4561    187479.91    10.472245    2242.4219 
  482800   -260.27577    29.979147   -230.29663    2167.5587    170040.13    10.472245      2244.47 
  482900   -265.22351    34.371367   -230.85215    2485.1258    157812.42    10.472245    2247.0194 
  483000   -264.54205    29.789234   -234.75282    2153.8275    160452.53    10.472245    2248.7259 
  483100   -263.31251    31.995591   -231.31692     2313.352    162894.35    10.472245    2243.9354 
  483200   -259.10209    32.585941   -226.51615    2356.0356    175355.06    10.472245     2257.205 
  483300   -267.53557    31.536073    -235.9995    2280.1278    151347.53    10.472245    2269.3188 
  483400   -264.33811    34.886437   -229.45168    2522.3665    161247.35    10.472245    2275.6487 
  483500   -259.92487    34.339678    -225.5852    2482.8347     173596.9    10.472245    2278.9508 
  483600   -266.90246     31.42895   -235.47351    2272.3826       150755    10.472245    2283.8766 
  483700   -260.87681    32.168752   -228.70805    2325.8719    170107.58    10.472245    2285.8717 
  483800   -264.77945    36.205254   -228.57419      2617.72    162666.54    10.472245    2271.5231 
  483900   -263.68247    26.287509   -237.39496    1900.6451    157873.79    10.472245     2275.711 
  484000    -263.2505    32.993023   -230.25748    2385.4685     162681.2    10.472245    2283.8478 
  484100   -265.08118    33.425085    -231.6561    2416.7076     155554.6    10.472245    2282.4557 
  484200   -266.37855    31.858186   -234.52037    2303.4173    156857.71    10.472245    2280.2983 
  484300    -256.7284    30.331441   -226.39696    2193.0303     183003.1    10.472245    2288.8244 
  484400   -261.83047    31.838799   -229.99168    2302.0156    168552.01    10.472245    2294.9126 
  484500   -263.96795    30.567897   -233.40005    2210.1266    162500.71    10.472245    2291.3704 
  484600   -264.91032    35.204255   -229.70606    2545.3455    161389.23    10.472245    2292.3329 
  484700   -261.99665    30.572881   -231.42377    2210.4869    165590.47    10.472245    2300.2852 
  484800   -266.68236    30.007611   -236.67474    2169.6167    148289.36    10.472245    2289.1881 
  484900   -261.64521    33.423174   -228.22204    2416.5694    171369.09    10.472245    2291.0811 
  485000   -262.63275    33.323451    -229.3093    2409.3592    164252.44    10.472245    2286.8624 
  485100   -263.51905    29.920794   -233.59825    2163.3396    160847.52    10.472245    2293.7333 
  485200   -258.21718    33.830847   -224.38633     2446.045    180118.71    10.472245    2310.5077 
  485300   -264.08223    32.032579   -232.04965    2316.0263    159629.05    10.472245    2305.3013 
  485400   -261.41895    32.724197   -228.69475    2366.0318     166986.5    10.472245    2305.7801 
  485500   -261.16012    38.514306   -222.64582    2784.6695    176806.29    10.472245     2308.213 
  485600   -261.19303    31.634352   -229.55867    2287.2336    174613.86    10.472245    2306.8668 
  485700   -259.41138    34.449951   -224.96143    2490.8076    173875.14    10.472245    2312.0055 
  485800   -262.05563    31.643556   -230.41208    2287.8991    166608.31    10.472245    2310.9796 
  485900   -264.59481    29.965368   -234.62944    2166.5624    157687.46    10.472245    2320.5852 
  486000   -260.66642     36.15592    -224.5105     2614.153    170686.57    10.472245    2317.4242 
  486100   -262.15987    32.438355   -229.72151    2345.3648    166223.05    10.472245    2310.2017 
  486200   -258.02232    32.790899   -225.23142    2370.8545    178397.46    10.472245    2315.8228 
  486300   -260.59135    34.616233   -225.97512    2502.8302    171534.51    10.472245    2314.3982 
  486400   -261.96032    30.865621    -231.0947    2231.6527    166931.16    10.472245    2323.7112 
  486500   -260.50815    35.330668   -225.17749    2554.4854    170907.52    10.472245    2326.6896 
  486600   -263.80289    39.263069   -224.53982    2838.8067    167226.04    10.472245    2327.2339 
  486700    -262.1547    30.774914   -231.37979    2225.0943    167750.78    10.472245    2324.6306 
  486800   -255.29763    29.947474   -225.35015    2165.2686    185455.88    10.472245    2323.1072 
  486900   -263.26654    28.487833    -234.7787    2059.7334    156734.02    10.472245    2327.9048 
  487000   -260.88628    32.128086   -228.75819    2322.9317    171043.85    10.472245    2322.5865 
  487100   -264.00531    37.890203   -226.11511    2739.5455     167677.3    10.472245    2328.6514 
  487200   -264.51727    28.708831   -235.80843     2075.712    159311.54    10.472245    2330.2928 
  487300   -262.03262    29.707774   -232.32485    2147.9378    163602.73    10.472245    2338.1294 
  487400   -259.06276    29.998403   -229.06435    2168.9509    176322.92    10.472245    2335.9756 
  487500   -266.69245    31.541547    -235.1509    2280.5236    153902.07    10.472245    2329.3717 
  487600   -269.28653    33.117124   -236.16941    2394.4413    145055.75    10.472245    2324.6378 
  487700     -262.481    33.000546   -229.48046    2386.0124    165898.77    10.472245    2333.4873 
  487800   -259.44667    32.916019   -226.53065     2379.901    177324.98    10.472245    2333.2709 
  487900    -264.6626    29.629723   -235.03288    2142.2945    159493.16    10.472245    2331.7579 
  488000   -258.73824    31.081365   -227.65688    2247.2514    179241.97    10.472245    2338.8611 
  488100   -255.83585    31.820632   -224.01522    2300.7021     185584.4    10.472245    2340.5906 
  488200   -263.77142    31.741539   -232.02988    2294.9835    162003.05    10.472245     2331.517 
  488300   -266.38908    35.329204   -231.05988    2554.3796     157260.5    10.472245    2333.4813 
  488400    -261.8317    33.112898    -228.7188    2394.1358    169414.51    10.472245    2332.4442 
  488500   -258.84492    36.135765   -222.70916    2612.6957    180470.31    10.472245    2332.1899 
  488600   -262.38972      32.9954   -229.39432    2385.6404    165375.29    10.472245    2335.9503 
  488700     -264.066    32.698954   -231.36704    2364.2067    161563.39    10.472245    2326.7418 
  488800   -266.95332     32.59556   -234.35776    2356.7311    153516.39    10.472245     2331.296 
  488900   -258.76432    32.344371   -226.41995    2338.5696    179775.72    10.472245    2341.0818 
  489000   -260.65119    32.267203   -228.38399    2332.9901    173392.66    10.472245    2354.4746 
  489100   -263.59021    34.199045   -229.39116    2472.6666     164302.6    10.472245    2349.1548 
  489200   -264.93013    34.778037    -230.1521     2514.529    162708.16    10.472245    2347.6712 
  489300   -266.07132    31.699111   -234.37221    2291.9158     155302.3    10.472245    2354.0352 
  489400   -261.76489    33.186531   -228.57836    2399.4596    168770.58    10.472245    2346.7978 
  489500   -259.93094    32.508965   -227.42198    2350.4701     171495.8    10.472245    2342.8004 
  489600   -268.15336    31.644671   -236.50869    2287.9797    147688.83    10.472245    2353.9618 
  489700    -262.3098    31.853357   -230.45645    2303.0682    164414.65    10.472245    2351.1701 
  489800   -258.44082    32.116711   -226.32411    2322.1092    179115.18    10.472245    2356.4903 
  489900   -263.84144    30.538949   -233.30249    2208.0335    165293.56    10.472245    2361.9719 
  490000   -263.10111    33.151417   -229.94969    2396.9207    165574.01    10.472245    2354.7152 
  490100    -260.0248     34.23753   -225.78727    2475.4492       172323    10.472245    2363.7209 
  490200   -262.33098    33.099893   -229.23108    2393.1955    164394.82    10.472245     2368.861 
  490300   -258.99374    27.237065   -231.75668       1969.3    171467.31    10.472245    2371.7888 
  490400   -263.10828     31.11046   -231.99782    2249.3551    163147.68    10.472245    2370.8879 
  490500   -260.32564    34.588732   -225.73691    2500.8419    174696.28    10.472245    2365.4004 
  490600   -267.90866    32.410043   -235.49861    2343.3178    150727.74    10.472245     2358.369 
  490700   -266.01672     35.00482    -231.0119    2530.9259    157840.79    10.472245    2363.0328 
  490800   -260.71288     32.16119   -228.55169    2325.3252    171410.36    10.472245    2358.2601 
  490900   -263.34716    32.415244   -230.93192    2343.6938    163069.21    10.472245    2359.3139 
  491000    -263.2947    33.159588   -230.13511    2397.5116    163574.23    10.472245    2358.3515 
  491100   -260.11342    34.834977   -225.27844    2518.6459    173965.71    10.472245    2348.0932 
  491200   -260.76666    29.068302   -231.69835    2101.7025    170029.89    10.472245    2350.5703 
  491300   -260.89026    29.721123   -231.16914    2148.9029    170606.55    10.472245    2347.7892 
  491400   -261.73094    36.404759   -225.32618    2632.1446     166147.8    10.472245    2352.8416 
  491500   -261.32041    30.465848   -230.85456    2202.7482    169829.07    10.472245    2348.7414 
  491600   -260.19576    28.617711   -231.57805    2069.1238    167435.83    10.472245    2351.4249 
  491700   -258.54247    33.509365    -225.0331    2422.8012    184220.05    10.472245    2365.4406 
  491800   -263.75941    31.270768   -232.48864    2260.9457    161618.62    10.472245    2356.6523 
  491900   -261.07674    31.699976   -229.37677    2291.9784    170303.09    10.472245    2364.6207 
  492000   -262.05224    30.945657   -231.10659    2237.4395    163444.39    10.472245    2363.6724 
  492100   -264.26005    30.933242   -233.32681    2236.5418    158515.08    10.472245    2366.7657 
  492200   -257.43566    33.520691   -223.91497    2423.6201    183148.42    10.472245    2386.7808 
  492300   -263.17522    31.288841   -231.88638    2262.2524    160245.37    10.472245    2386.1061 
  492400   -263.67216    32.620253    -231.0519    2358.5164    163066.97    10.472245    2394.4834 
  492500   -259.31228    37.078082    -222.2342    2680.8274    180109.54    10.472245     2392.646 
  492600   -258.64053    31.883324    -226.7572    2305.2349    175671.06    10.472245    2388.4095 
  492700   -261.50402    29.439289   -232.06473    2128.5257    166763.04    10.472245    2391.6534 
  492800   -259.16873    33.084915   -226.08381    2392.1125    177037.74    10.472245    2387.2669 
  492900   -257.11252    33.798531   -223.31399    2443.7085    184121.98    10.472245    2391.3548 
  493000    -263.0294    30.607231   -232.42217    2212.9705    157631.83    10.472245    2392.0781 
  493100   -262.76591    36.977827   -225.78808    2673.5787    166094.39    10.472245    2393.8582 
  493200   -261.03968    29.178933   -231.86074    2109.7014    170406.27    10.472245    2387.9938 
  493300   -261.48618    31.464523   -230.02165    2274.9546    170606.64    10.472245    2399.9116 
  493400   -261.06437    35.782215   -225.28216    2587.1333    171732.39    10.472245    2400.5194 
  493500    -266.7862    34.831505   -231.95469    2518.3949    153475.01    10.472245    2398.7967 
  493600   -261.21242    31.619463   -229.59296    2286.1571    170424.16    10.472245    2402.7818 
  493700   -259.36558    36.610177   -222.75541    2646.9968    174114.18    10.472245    2404.1578 
  493800   -261.16028     28.96884   -232.19144    2094.5112    168441.89    10.472245    2413.7369 
  493900   -261.99501     32.68786   -229.30715    2363.4046    168225.51    10.472245    2412.1755 
  494000   -258.98616    36.762937   -222.22323    2658.0417    176153.49    10.472245    2409.2523 
  494100    -263.8442    32.670642   -231.17356    2362.1597    164076.11    10.472245    2414.9322 
  494200   -261.24163    33.962224   -227.27941    2455.5439    172638.88    10.472245    2423.4137 
  494300   -260.67418    30.252325   -230.42185      2187.31    165623.24    10.472245    2427.0728 
  494400   -265.73655    35.481637   -230.25491    2565.4009    158655.91    10.472245    2430.9211 
  494500   -258.72237    35.199189   -223.52318    2544.9792    181650.96    10.472245    2432.9886 
  494600   -254.10379    29.432985    -224.6708    2128.0699    189305.52    10.472245    2437.5581 
  494700   -266.13716    33.900989   -232.23617    2451.1165     155631.4    10.472245    2436.0319 
  494800   -259.51426    32.606895   -226.90737    2357.5506    174293.36    10.472245    2430.2479 
  494900   -263.68207    33.525591   -230.15647    2423.9744    163684.38    10.472245    2430.3353 
  495000   -261.01395    28.787103   -232.22685    2081.3712    166491.23    10.472245    2433.8874 
  495100   -259.15163    33.457642   -225.69399    2419.0615    176864.26    10.472245    2415.3586 
  495200   -262.17269    30.087439   -232.08525    2175.3884    168588.71    10.472245     2419.321 
  495300   -261.14129    29.589569   -231.55172    2139.3913    166415.51    10.472245    2421.3555 
  495400   -258.94483    31.397236   -227.54759    2270.0896    176933.79    10.472245    2416.2056 
  495500    -262.6754    30.258595   -232.41681    2187.7633    162066.05    10.472245    2413.0564 
  495600   -265.80113    30.055608   -235.74552    2173.0869    152006.91    10.472245     2421.534 
  495700   -260.97635    32.543093   -228.43326    2352.9376    169331.38    10.472245    2429.1227 
  495800   -258.51264    31.163589   -227.34905    2253.1964    175504.24    10.472245    2428.8921 
  495900   -266.11934    36.519974   -229.59936    2640.4749    158123.43    10.472245    2443.2946 
  496000   -266.84897    31.564063   -235.28491    2282.1516    154653.52    10.472245     2445.819 
  496100   -259.58011    32.702645   -226.87747    2364.4735    175512.24    10.472245    2443.1956 
  496200   -260.68005    30.942853    -229.7372    2237.2367    171055.08    10.472245    2450.0033 
  496300   -266.50228    31.379391   -235.12288    2268.7994    154329.98    10.472245    2453.6864 
  496400   -260.05649     33.41927   -226.63722    2416.2872    175981.69    10.472245    2455.9943 
  496500   -265.13441    32.762347   -232.37207    2368.7902     157709.7    10.472245    2462.7869 
  496600   -266.14557    30.509218   -235.63635     2205.884    150977.43    10.472245    2465.1702 
  496700   -261.83104    35.267557   -226.56348    2549.9224    172314.37    10.472245    2471.2125 
  496800   -263.43555    29.980571   -233.45498    2167.6616    165695.11    10.472245    2480.1033 
  496900   -264.29278    31.636808   -232.65598    2287.4112    162360.39    10.472245    2475.9104 
  497000   -264.86283    35.062218   -229.80061    2535.0759    160822.47    10.472245    2481.3277 
  497100    -263.9013    29.639102    -234.2622    2142.9726    162073.52    10.472245    2485.0127 
  497200    -264.4492    33.479099    -230.9701    2420.6129     157314.2    10.472245    2489.9137 
  497300   -256.94829    31.291802   -225.65649    2262.4665    187840.63    10.472245    2498.8077 
  497400    -260.9208    34.989885   -225.93091    2529.8461     171567.6    10.472245    2502.4793 
  497500   -264.76031    32.065837   -232.69447    2318.4309    160723.98    10.472245    2507.8042 
  497600   -259.71677    34.529076    -225.1877    2496.5285    177701.84    10.472245    2512.4767 
  497700   -263.32289    33.324078   -229.99881    2409.4045     163836.9    10.472245    2518.0154 
  497800   -263.21107    32.778871    -230.4322    2369.9849    165869.68    10.472245    2526.7393 
  497900   -253.22591    32.899747   -220.32616    2378.7245    192232.41    10.472245     2523.961 
  498000   -258.95332    32.627013   -226.32631    2359.0052    171761.31    10.472245    2520.5948 
  498100   -260.16159    29.227384    -230.9342    2113.2045    169878.77    10.472245    2523.6513 
  498200    -256.9386    34.597965   -222.34063    2501.5094    183520.37    10.472245    2535.7494 
  498300   -264.25993    33.752485   -230.50745    2440.3793    160410.12    10.472245    2532.6374 
  498400   -263.70486    31.302898   -232.40196    2263.2688    161477.76    10.472245    2538.3895 
  498500   -260.39525    37.292358   -223.10289      2696.32    178932.46    10.472245    2552.4088 
  498600   -260.24072    31.194101   -229.04662    2255.4025    174756.69    10.472245    2555.2158 
  498700   -260.58675    29.973245    -230.6135    2167.1319    168777.51    10.472245      2569.36 
  498800   -254.99106     34.23358   -220.75748    2475.1635    189950.03    10.472245    2560.1895 
  498900   -263.37999    37.271843   -226.10815    2694.8367    166349.07    10.472245    2548.8403 
  499000   -262.59658    33.097711   -229.49887    2393.0377    165624.26    10.472245    2557.9597 
  499100   -258.95043    37.493303   -221.45713    2710.8488    176798.25    10.472245    2555.7533 
  499200    -263.3984    33.728122   -229.67028    2438.6178    163449.88    10.472245     2567.624 
  499300   -262.62173    32.702798   -229.91894    2364.4846    164641.74    10.472245    2574.4759 
  499400   -264.93486     30.94997   -233.98489    2237.7513    156984.07    10.472245    2576.6104 
  499500   -266.34208    32.792828   -233.54925     2370.994    153555.63    10.472245    2576.3058 
  499600   -258.76942    30.351471   -228.41794    2194.4785    177662.79    10.472245    2577.5803 
  499700   -262.21671    31.969248   -230.24746    2311.4474     167636.5    10.472245    2567.2243 
  499800    -257.1483     34.60369   -222.54461    2501.9233    180754.83    10.472245    2553.5387 
  499900   -262.56673    31.887912   -230.67882    2305.5666    166738.55    10.472245    2567.0867 
  500000   -263.21372    33.280901   -229.93282    2406.2827    163615.17    10.472245    2566.7993 
Loop time of 158.34 on 1 procs for 500000 steps with 108 atoms

Performance: 1364.153 ns/day, 0.018 hours/ns, 3157.760 timesteps/s
100.0% CPU use with 1 MPI tasks x no OpenMP threads

MPI task timing breakdown:
Section |  min time  |  avg time  |  max time  |%varavg| %total
---------------------------------------------------------------
Pair    | 93.636     | 93.636     | 93.636     |   0.0 | 59.14
Neigh   | 6.9457     | 6.9457     | 6.9457     |   0.0 |  4.39
Comm    | 2.6896     | 2.6896     | 2.6896     |   0.0 |  1.70
Output  | 0.092121   | 0.092121   | 0.092121   |   0.0 |  0.06
Modify  | 54.544     | 54.544     | 54.544     |   0.0 | 34.45
Other   |            | 0.4321     |            |       |  0.27

Nlocal:    108 ave 108 max 108 min
Histogram: 1 0 0 0 0 0 0 0 0 0
Nghost:    1081 ave 1081 max 1081 min
Histogram: 1 0 0 0 0 0 0 0 0 0
Neighs:    5669 ave 5669 max 5669 min
Histogram: 1 0 0 0 0 0 0 0 0 0

Total # of neighbors = 5669
Ave neighs/atom = 52.4907
Neighbor list builds = 30015
Dangerous builds = 41
Total wall time: 0:02:38
