LAMMPS (3 Mar 2020)
Reading data file ...
  orthogonal box = (0 0 0) to (17.469 17.469 17.469)
  1 by 1 by 1 MPI processor grid
  reading atoms ...
  217 atoms
  read_data CPU = 0.00106581 secs
Reading potential file library.meam with DATE: 2012-06-29
Reading potential file LiSi.meam with DATE: 2020-11-07
1 atoms in group Li
216 atoms in group Si
Neighbor list info ...
  update every 1 steps, delay 10 steps, check yes
  max neighbors/atom: 2000, page size: 100000
  master list distance cutoff = 6
  ghost atom cutoff = 6
  binsize = 3, bins = 6 6 6
  2 neighbor lists, perpetual/occasional/extra = 2 0 0
  (1) pair meam/c, perpetual
      attributes: full, newton on
      pair build: full/bin/atomonly
      stencil: full/bin/3d
      bin: standard
  (2) pair meam/c, perpetual, half/full from (1)
      attributes: half, newton on
      pair build: halffull/newton
      stencil: none
      bin: none
Setting up Verlet run ...
  Unit style    : metal
  Current step  : 0
  Time step     : 0.003
Per MPI rank memory allocation (min/avg/max) = 8.895 | 8.895 | 8.895 Mbytes
Step Temp E_pair E_mol TotEng Press Volume 
       0         1700   -951.04357            0   -903.57924   -114721.17    5330.9442 
    3200    1663.3071   -946.41593            0   -899.97608   -12737.569    4698.6669 
Loop time of 2.26153 on 1 procs for 3200 steps with 217 atoms

Performance: 366.761 ns/day, 0.065 hours/ns, 1414.973 timesteps/s
100.0% CPU use with 1 MPI tasks x no OpenMP threads

MPI task timing breakdown:
Section |  min time  |  avg time  |  max time  |%varavg| %total
---------------------------------------------------------------
Pair    | 2.1863     | 2.1863     | 2.1863     |   0.0 | 96.67
Neigh   | 0.026567   | 0.026567   | 0.026567   |   0.0 |  1.17
Comm    | 0.014342   | 0.014342   | 0.014342   |   0.0 |  0.63
Output  | 2.4957e-05 | 2.4957e-05 | 2.4957e-05 |   0.0 |  0.00
Modify  | 0.029501   | 0.029501   | 0.029501   |   0.0 |  1.30
Other   |            | 0.004823   |            |       |  0.21

Nlocal:    217 ave 217 max 217 min
Histogram: 1 0 0 0 0 0 0 0 0 0
Nghost:    957 ave 957 max 957 min
Histogram: 1 0 0 0 0 0 0 0 0 0
Neighs:    4188 ave 4188 max 4188 min
Histogram: 1 0 0 0 0 0 0 0 0 0
FullNghs:  8376 ave 8376 max 8376 min
Histogram: 1 0 0 0 0 0 0 0 0 0

Total # of neighbors = 8376
Ave neighs/atom = 38.5991
Neighbor list builds = 45
Dangerous builds = 0
Setting up Verlet run ...
  Unit style    : metal
  Current step  : 3200
  Time step     : 0.003
Per MPI rank memory allocation (min/avg/max) = 9.663 | 9.663 | 9.663 Mbytes
Step PotEng KinEng TotEng Temp Press Density c_msdli[4] c_msdsi[4] 
    3200   -946.41593    46.439853   -899.97608    1663.3071   -12737.569     2.146419            0 5.9079684e-32 
    3300   -943.49522    47.410245   -896.08498     1698.063    291.46895    2.1723994   0.15131342   0.10393428 
    3400   -941.12276     52.21763   -888.90513    1870.2461    8303.4069    2.1829618  0.031341537   0.10175951 
    3500   -943.19287    45.276044   -897.91683    1621.6237   -2337.8015    2.1652346   0.10955368   0.11953994 
    3600   -943.80931    46.211885   -897.59742    1655.1421   -8283.5152    2.1510461  0.046695792   0.12313514 
    3700   -942.16066    52.725316   -889.43535    1888.4296    4652.7283    2.1753449  0.098825425   0.10857472 
    3800   -944.15216    46.245295   -897.90686    1656.3387    7703.8063    2.1915785  0.055872354  0.099848547 
    3900   -943.43562    43.866934   -899.56868    1571.1545   -9532.9724    2.1497478   0.17859897   0.13301936 
    4000    -941.1962      48.2485    -892.9477    1728.0863   -3825.4685     2.157403  0.090283901   0.11992925 
    4100   -948.49199    49.468748   -899.02324    1771.7912    8516.1617    2.2035435   0.16186165   0.10173119 
    4200   -945.45037      44.2893   -901.16107    1586.2821    259.41609    2.1719955  0.039631104  0.092540827 
    4300   -940.83614    46.090784   -894.74536    1650.8047    -7435.877    2.1426372  0.042650265  0.096183122 
    4400   -941.81609    46.357333   -895.45875    1660.3516     5909.435       2.1792  0.063144715   0.12719206 
    4500   -943.76714     41.67389   -902.09325    1492.6076    12025.248    2.2045299   0.13156959   0.13381419 
    4600   -943.14555    49.641639   -893.50391    1777.9835   -9601.7226    2.1458525 0.0048405264   0.13191597 
    4700   -945.54786    49.737338   -895.81052    1781.4111   -7481.3259    2.1556253  0.069523523   0.12424064 
    4800   -947.25881    47.154473   -900.10434    1688.9022    8426.2045     2.201572   0.11172292   0.12408087 
    4900   -939.26674    48.136914   -891.12983    1724.0897    4669.3299    2.1724702  0.062857293   0.11596749 
    5000    -937.4252    43.494362   -893.93084    1557.8103   -5707.3659    2.1478907   0.04242318   0.13354744 
    5100   -943.39632    43.913215   -899.48311    1572.8121    1962.6548    2.1779471   0.12559193   0.10708106 
    5200   -943.25988    47.812437   -895.44745    1712.4681     11746.46    2.1967555  0.059500802   0.12392947 
    5300   -939.49945    48.603463   -890.89598    1740.7998   -4893.0166    2.1489747    0.1156037   0.12353232 
    5400   -945.58804    45.350623   -900.23741    1624.2949   -5595.2138    2.1599114  0.063242858   0.12118318 
    5500   -946.13291    49.598697   -896.53421    1776.4455    5177.7179    2.1888664   0.16000092   0.14484032 
    5600   -942.49371    52.037936   -890.45577    1863.8101    3951.1837    2.1723569   0.09114737   0.15096301 
    5700   -945.56807    46.787888   -898.78018    1675.7725   -7087.2462    2.1521887   0.17222851   0.12938234 
    5800   -943.74317    44.466498   -899.27668    1592.6287   -4786.4941    2.1582812    0.1097724   0.12045469 
    5900   -944.59772    52.498108   -892.09961    1880.2919    6879.5099    2.1860456   0.13271584   0.11421431 
    6000   -944.01268    45.180148   -898.83253     1618.189    2633.2651    2.1748738   0.11629016   0.10990767 
    6100   -945.97287    44.132974    -901.8399    1580.6831   -8981.7566    2.1510609   0.11726869   0.12534758 
    6200   -937.54417     43.63314   -893.91103    1562.7808    4847.1301    2.1676076  0.031024688   0.12100909 
    6300   -940.98589    44.422953   -896.56294    1591.0691    9011.9167    2.1890889 0.0059378276   0.13272096 
    6400   -947.38653    43.909985   -903.47654    1572.6964   -2615.4723    2.1711172  0.087338478   0.12206676 
    6500   -944.36203    50.061558   -894.30047    1793.0235    -9415.597    2.1454477  0.098839747   0.13395554 
    6600   -944.18435     49.14138   -895.04297     1760.066    5705.5394    2.1844332    0.0650561   0.13950098 
    6700    -945.6954    44.700637   -900.99476    1601.0147    5903.9785    2.1900103 0.0048841044   0.13281193 
    6800   -938.47293    46.290481   -892.18245    1657.9572    -5583.395    2.1433664   0.19304525   0.13036752 
    6900   -946.25726    51.158749   -895.09851    1832.3209   -3317.1768    2.1651143  0.049186003   0.10974624 
    7000    -946.2199    46.825159   -899.39475    1677.1074    6303.0907     2.191762  0.012038658   0.11739357 
    7100   -940.26341     48.20578   -892.05763    1726.5562    200.53939    2.1634716   0.10868584   0.12306268 
    7200   -938.74292    44.490147   -894.25277    1593.4757   -3314.4723    2.1565462  0.054897988   0.14194054 
    7300   -946.19865    46.622875   -899.57577    1669.8623    293.73933    2.1812111  0.048251202    0.1322234 
    7400   -938.48355    45.749684   -892.73387    1638.5878    5324.9015    2.1739483  0.079731157   0.13724145 
    7500   -939.08113    44.858039   -894.22309    1606.6523   -1493.6922    2.1638541   0.25830864   0.14682988 
    7600   -944.83988     44.13467    -900.7052    1580.7438    535.24235    2.1769589  0.047977774   0.12984463 
    7700   -943.17951     49.52188   -893.65763    1773.6941    1972.2969    2.1758138  0.005757736   0.13009784 
    7800   -944.67965    49.953316   -894.72633    1789.1466    -400.9375    2.1665201   0.10487636   0.13507754 
    7900   -946.36856    44.356882   -902.01167    1588.7027    1593.8754    2.1805483  0.093444622   0.10572445 
    8000   -941.75436    47.567963    -894.1864    1703.7119    1119.3904    2.1668782  0.055760089   0.12130416 
    8100   -945.62327    50.923403   -894.69987    1823.8916   -469.44777    2.1727041   0.17130827   0.11030946 
    8200   -946.36602    43.823117   -902.54291    1569.5851   -26.635709     2.178606   0.12409065   0.11588646 
    8300   -942.13127    47.666627   -894.46464    1707.2457   -1223.8413    2.1644154   0.11553935   0.13691017 
    8400   -939.11632    44.652332   -894.46399    1599.2846    6997.4371    2.1787987  0.051655783   0.12167584 
    8500   -945.29055    43.532375   -901.75817    1559.1718     3221.955    2.1847954    0.1202306   0.13084638 
    8600   -943.52416    50.326512   -893.19765    1802.5132   -9158.9056    2.1513894   0.43855806   0.13474672 
    8700   -943.26019    49.031724   -894.22847    1756.1385    1299.9375    2.1752064  0.049276892   0.11964107 
    8800   -944.50637    44.639779   -899.86659     1598.835    6620.4436    2.1953951   0.16196495   0.13502294 
    8900   -942.21452    49.841715    -892.3728    1785.1495   -6277.6548    2.1515074   0.27087781   0.12442072 
    9000   -943.00432    49.745266   -893.25905     1781.695   -2430.6982    2.1608971   0.10461934   0.12467594 
    9100   -944.96863    47.742178   -897.22645    1709.9517    5893.8789    2.1900649    4.5660216   0.15759357 
    9200   -943.26152    49.776092   -893.48543    1782.7991    284.20381    2.1718345    4.6159223   0.14948417 
    9300   -938.26414     49.68032   -888.58382    1779.3689   -12741.631    2.1307532    8.5572829   0.18196659 
    9400     -944.278    47.053883   -897.22411    1685.2995    2296.6419    2.1830569    5.5126577   0.18076446 
    9500   -943.70891    48.592782   -895.11613    1740.4172    13254.668    2.2013252    4.1757641   0.17159137 
    9600   -937.67144    48.225821   -889.44562     1727.274   -7439.1045    2.1445117    1.0288363    0.1538033 
    9700   -936.33796    43.615116   -892.72284    1562.1353    -9136.217    2.1383471    2.1518073   0.16517084 
    9800   -944.69351    48.213599   -896.47992    1726.8363    7840.2592    2.1949947    1.2149235   0.14206552 
    9900   -944.41671    50.899809    -893.5169    1823.0466    4581.3836    2.1817996   0.91019477    0.1336727 
   10000   -936.74782    46.006409   -890.74141    1647.7827   -3889.5719     2.144895    1.7196843   0.16086752 
   10100   -945.23421    43.934013   -901.30019     1573.557    3524.6868    2.1849697   0.22589374   0.13428378 
   10200   -942.58125    46.081426   -896.49982    1650.4696    1934.1174    2.1778322    1.3678328   0.14343602 
   10300   -941.49838    47.170755   -894.32762    1689.4854   -2851.1114    2.1623367  0.059050872   0.13420818 
   10400   -949.12945    46.568501   -902.56095    1667.9148   -3952.1265    2.1741432  0.062003665   0.12850992 
   10500     -948.851    50.115382   -898.73561    1794.9512     674.3574    2.1810513  0.074981569   0.11996312 
   10600   -941.83038    48.194135   -893.63625    1726.1392    2766.2287    2.1688353  0.067398382   0.13338352 
   10700   -948.63499    48.650506   -899.98448    1742.4847   -6376.4006    2.1630583  0.093052285   0.11983215 
   10800   -944.00186    43.915092   -900.08676    1572.8793     3052.174    2.1772876   0.08030937   0.13179477 
   10900   -940.80307    48.720071     -892.083    1744.9763    3230.0714    2.1737059   0.30476372   0.12923041 
   11000   -947.26142    49.538882   -897.72254    1774.3031    -4170.405    2.1680909  0.083055181   0.12525525 
   11100   -945.70719    45.400237   -900.30695    1626.0719   -4943.6918    2.1644252 0.0024098473   0.12300764 
   11200   -939.19847    48.941538   -890.25693    1752.9084    3623.0776    2.1694924  0.015425977   0.14479208 
   11300   -942.95953    47.707139   -895.25239    1708.6967    7451.6154    2.1841333   0.12149357   0.13280969 
   11400   -943.86365    43.934321   -899.92933     1573.568   -7159.5311    2.1523093  0.063592138   0.12324322 
   11500   -944.24676    52.095443   -892.15131    1865.8699   -8809.6422    2.1471484  0.099926367   0.13160888 
   11600   -943.49426     50.49619   -892.99807    1808.5904    10884.079    2.1894561 0.0042874063   0.13548674 
   11700   -943.25963    43.944671   -899.31496    1573.9387     2737.476      2.17494  0.021187751   0.13186246 
   11800   -943.99621    48.084553   -895.91166    1722.2143   -10434.989    2.1406992  0.052436358   0.11543549 
   11900   -939.89725    49.254021   -890.64323    1764.1004    2426.1419    2.1621308   0.22233127   0.12823195 
   12000   -947.68158    47.163002   -900.51857    1689.2077    12505.268    2.2044532  0.059429203   0.11607906 
   12100   -946.81317    49.506935   -897.30624    1773.1589   -9353.1811    2.1508502 0.0066683575   0.12979627 
   12200   -941.09102    47.009693   -894.08133    1683.7167   -7148.6379    2.1434422  0.042142674   0.12312858 
   12300   -947.54963    46.565916   -900.98372    1667.8222    8382.5315    2.1954379   0.13272042   0.12247282 
   12400   -942.96023    43.173068   -899.78716    1546.3027    6507.3621    2.1845311  0.042972101   0.13900233 
   12500   -939.65494    45.372548   -894.28239    1625.0801   -6518.9792    2.1446819  0.079756831   0.13961516 
   12600   -944.48781    45.898298   -898.58951    1643.9106   -1268.4782    2.1676783  0.033901117   0.12613585 
   12700   -943.33391    41.973991   -901.35992    1503.3561    8003.2431    2.1921552   0.11164549    0.1323755 
   12800   -939.53868    47.391585    -892.1471    1697.3947   -2696.9619    2.1547641  0.049592893   0.11663004 
   12900   -946.25276    48.562403   -897.69035    1739.3292   -3388.2509    2.1649884   0.10592444   0.11847747 
   13000   -943.01539    43.387028   -899.62836     1553.966    4761.7105    2.1837735   0.05735082   0.12341782 
   13100   -942.60224    52.860022   -889.74222    1893.2543   -182.88741    2.1627359   0.38116974   0.11802942 
   13200    -943.5339    46.921692   -896.61221    1680.5649   -1404.2203    2.1652505   0.16554529   0.12979472 
   13300   -945.31139    45.970151   -899.34123    1646.4841   -1957.9583    2.1701194  0.021643429   0.13540072 
   13400   -938.76958     48.42306   -890.34652    1734.3384    2975.2888    2.1650508   0.20419291   0.14528146 
   13500   -942.46411    46.743659   -895.72045    1674.1884    3415.4299    2.1727791  0.032381605   0.12330397 
   13600   -949.22961    49.713445   -899.51617    1780.5553   -7246.2325     2.160326  0.024330742   0.11704303 
   13700   -941.91332    49.056728   -892.85659    1757.0341    620.45972    2.1661656    0.2649427   0.12251179 
   13800   -944.81166    49.739717   -895.07194    1781.4963    6366.7565    2.1885675  0.028369311   0.12526493 
   13900    -945.5353    44.440282   -901.09501    1591.6897   -4495.8625    2.1599274  0.023405134   0.10296724 
   14000   -944.29914    47.855305   -896.44383    1714.0035   -5998.3433     2.155612   0.26822793    0.1099187 
   14100   -946.95383    54.982821   -891.97101    1969.2853    5193.0018    2.1862154   0.17896434   0.11507096 
   14200   -949.21846     47.88587   -901.33259    1715.0982    165.79691    2.1814855  0.080879378   0.12945637 
   14300   -941.23542    43.035241   -898.20018    1541.3663   -9813.0783    2.1431606   0.12175321   0.13997868 
   14400   -941.14101    48.043019   -893.09799    1720.7267    4182.4198    2.1774508  0.050256886   0.13337415 
   14500   -945.10354    45.853988   -899.24955    1642.3236    9430.4883    2.2010147   0.22021742   0.12702488 
   14600   -947.51797    45.339554   -902.17842    1623.8984   -7104.5143     2.160752  0.015893287   0.12422994 
   14700   -938.59623    45.209865   -893.38636    1619.2534   -3683.6307    2.1485496  0.072013598   0.13452692 
   14800   -944.92512    48.272493   -896.65263    1728.9456    9403.6376    2.1944689   0.14818446   0.12171829 
   14900   -946.78289    45.677129   -901.10577    1635.9891    4782.9353    2.1872304   0.13609863   0.10290191 
   15000   -941.80311    50.507171   -891.29594    1808.9837   -9824.4072     2.140167  0.032425507    0.1133952 
   15100   -942.72376     46.23636    -896.4874    1656.0187    392.62074    2.1691098   0.48542173   0.14684808 
   15200   -943.93644    46.225717   -897.71072    1655.6376    6992.4932    2.1858047   0.13183462    0.1251389 
   15300   -939.11292    49.143075   -889.96984    1760.1267   -1736.3463    2.1549474    0.2291951   0.13161385 
   15400   -947.19358    50.674425   -896.51916    1814.9741   -7109.2602    2.1582654   0.10328096   0.12290232 
   15500   -944.72603    45.866385   -898.85965    1642.7676    317.26718    2.1725815   0.22104718   0.12060252 
   15600    -942.3597    48.840803   -893.51889    1749.3004    4809.8979    2.1738405  0.042807947   0.12374212 
   15700   -942.47147    48.584953   -893.88652    1740.1368   -1205.1275    2.1593291   0.16999103   0.11430902 
   15800    -946.9267    45.197377   -901.72933    1618.8061   -1148.3524    2.1761916  0.042175467   0.11420097 
   15900   -944.97436    49.419739   -895.55462    1770.0358    2528.7439    2.1747772     0.126095   0.11381937 
   16000   -948.17638    53.645756   -894.53062    1921.3964   -3734.0107    2.1653595  0.095510056   0.10989081 
   16100   -951.19769    47.037774   -904.15992    1684.7225   -3870.1765    2.1758842   0.06241741  0.099096308 
   16200   -942.80288    45.557937   -897.24494    1631.7201    833.66385    2.1662197  0.015180329   0.11583489 
   16300   -939.57399    45.488561   -894.08543    1629.2353    5585.0561    2.1728865   0.01847391   0.12977146 
   16400   -943.42709    41.726384   -901.70071    1494.4877   -150.90755     2.174319  0.090318984   0.13598047 
   16500   -946.68696    47.642057    -899.0449    1706.3657   -4111.3905    2.1650867  0.042052811   0.12407263 
   16600   -944.80873    51.215784   -893.59294    1834.3637    2234.7426    2.1730077  0.039615809   0.12199023 
   16700   -949.29382    50.813437   -898.48039     1819.953     254.5306     2.176817  0.091786902   0.10436251 
   16800   -946.84254    45.513197   -901.32935    1630.1176   -7765.9639    2.1560936  0.080518405   0.10879972 
   16900   -936.41233    44.727394   -891.68494    1601.9731    285.13197    2.1490647   0.12357775   0.10816128 
   17000   -946.88465    50.983109   -895.90154    1826.0301    10712.823    2.1969607  0.083610001   0.10952169 
   17100   -949.16272    49.174168   -899.98855    1761.2404   -856.56239    2.1731101   0.14497781  0.098050961 
   17200   -944.22314    52.981244    -891.2419     1897.596   -14465.323    2.1306907  0.058509079    0.1147228 
   17300    -943.1855    47.874858   -895.31064    1714.7038    2488.6751    2.1781193  0.091661873   0.14055177 
   17400   -945.19652    46.622762   -898.57376    1669.8583    8530.0717    2.1952089  0.077320423   0.13365292 
   17500   -940.28063    45.322225   -894.95841    1623.2777   -3854.4646    2.1520878  0.081240385   0.12496705 
   17600   -940.41516    49.660866   -890.75429    1778.6721   -8058.0472    2.1418123  0.018331347   0.11580423 
   17700   -952.70578    52.519614   -900.18617    1881.0621    6571.2167     2.202521   0.11776785   0.10106492 
   17800   -946.65022     50.74966   -895.90056    1817.6688    1611.6744    2.1775587  0.097753732    0.1154533 
   17900    -942.4496    48.729133   -893.72046    1745.3008   -10067.769    2.1393465   0.11633596   0.11720545 
   18000   -946.96927     44.15196   -902.81731    1581.3631    1201.5511    2.1788648  0.055178747  0.094144083 
   18100   -945.47067    48.865704   -896.60496    1750.1923     6365.697    2.1866671  0.051697449   0.11534998 
   18200   -945.67708     51.55759   -894.11949    1846.6059   -3176.4617    2.1576186   0.53034556   0.10835665 
   18300   -947.66686    45.659081   -902.00778    1635.3427   -6198.3626    2.1606553  0.044127722   0.12470478 
   18400   -945.14038    46.782563   -898.35782    1675.5817    4250.1358    2.1841685   0.38298998   0.12292075 
   18500   -940.84964    48.359502   -892.49014     1732.062    6305.1092    2.1767923  0.031439922   0.12945592 
   18600   -945.09553      45.2161   -899.87943    1619.4767   -6733.8074    2.1581688  0.051324653    0.1242726 
   18700   -946.72601    49.252367   -897.47364    1764.0412   -3028.3523    2.1668979  0.098960681   0.10707958 
   18800   -942.57582     52.19874   -890.37708    1869.5696    5879.3707    2.1789784   0.17158056   0.11185893 
   18900   -945.48946    47.587265    -897.9022    1704.4033   -3211.4499    2.1701067  0.076982791   0.12317221 
   19000   -943.66552    44.934612    -898.7309    1609.3949   -12224.824    2.1386907  0.042886444   0.12051963 
   19100   -940.94035    50.851716   -890.08864    1821.3241    5913.4792    2.1792219  0.074422265   0.11089576 
   19200   -948.03252    52.509458   -895.52307    1880.6983    14374.487    2.2155789   0.13132443   0.13111629 
   19300   -945.90188    45.181778    -900.7201    1618.2474   -14349.154    2.1378045  0.084287174   0.11306141 
   19400   -942.41432     47.90259   -894.51173     1715.697   -10139.656    2.1430613  0.094143973   0.13951986 
   19500   -940.13445    46.803901   -893.33055     1676.346    15107.303    2.1988474  0.026833955   0.13998761 
   19600   -950.12661    48.135432   -901.99118    1724.0366    2451.2475    2.1877624  0.069704751   0.12180307 
   19700   -939.36419    43.673652   -895.69054    1564.2318    -9086.024    2.1392954  0.099396959   0.11301778 
   19800   -941.59855    48.245492   -893.35306    1727.9786    1895.9246     2.168067   0.17616299    0.1264692 
   19900   -949.65488    49.109469   -900.54541    1758.9231    8852.6722    2.2023815   0.40545257   0.11449011 
   20000   -940.49181     45.67633   -894.81548    1635.9605   -2800.0522    2.1568976  0.075749231    0.1258281 
   20100   -939.76347     46.57904   -893.18443    1668.2923   -7058.5749    2.1453911  0.063408364   0.13213373 
   20200   -942.30543    42.804938   -899.50049    1533.1176    7134.9335    2.1865975   0.10155567   0.12716598 
   20300   -944.16587    46.070103   -898.09577     1650.064    8431.8602    2.1915052  0.082122606   0.14168409 
   20400   -940.31462    48.269598   -892.04502    1728.8419   -9509.4809    2.1400684  0.030321675   0.13521663 
   20500    -944.1509    43.587988   -900.56292    1561.1637   -2949.6159    2.1678989    0.0627812   0.14790506 
   20600   -944.84985    47.593592   -897.25625    1704.6299    8582.7998    2.1927956   0.17504404   0.13421521 
   20700   -941.93421    50.866998   -891.06722    1821.8714    799.12057    2.1649124  0.079557075   0.13363618 
   20800   -942.25476    42.655649   -899.59911    1527.7707   -6790.8832    2.1548153  0.025246224   0.13664764 
   20900   -942.11983     43.46725   -898.65257    1556.8393    1256.1244    2.1759104    0.1088147   0.13484812 
   21000   -943.97476    52.730156    -891.2446     1888.603    4785.0692    2.1820923  0.074656286   0.12306063 
   21100   -946.55796     47.58352   -898.97444    1704.2691   -5059.9039    2.1659542  0.062120047   0.12867145 
   21200   -943.21946    43.646901   -899.57256    1563.2737   -3292.3116     2.159436  0.076772327   0.13157737 
   21300   -938.31412    46.730996   -891.58312    1673.7348    5828.9153    2.1730391  0.006061254   0.13947527 
   21400    -947.8276    49.363702    -898.4639    1768.0288    237.88315    2.1826556  0.094170787   0.13593201 
   21500   -946.34444    46.199424   -900.14501    1654.6958   -3156.2815    2.1699166  0.092659757   0.13411394 
   21600    -942.6401    51.301651   -891.33845    1837.4391   -3155.7928    2.1589088   0.06922975   0.13135719 
   21700   -945.25495    47.451594   -897.80335     1699.544    2112.6358    2.1784026  0.056227766    0.1244316 
   21800   -947.45686    47.614409   -899.84246    1705.3755   -2197.5009    2.1750708   0.12177214   0.13115535 
   21900   -939.15584    48.348666   -890.80718    1731.6739   -1251.2125    2.1534334   0.22913189    0.1150944 
   22000   -944.25773    46.669145   -897.58858    1671.5195    892.65503    2.1726311  0.060033341   0.11363332 
   22100   -947.15154    47.557044    -899.5945    1703.3209    552.22519    2.1775541  0.074761445   0.10911347 
   22200   -940.42499    49.029784   -891.39521    1756.0691    309.63913    2.1592315   0.55794347   0.12958952 
   22300   -941.93971    43.982312    -897.9574    1575.2869    1225.1933    2.1690996   0.27928939   0.13611159 
   22400   -944.04478    44.206853   -899.83793    1583.3292   -747.90224    2.1720966   0.35874118   0.12649451 
   22500   -941.43759    49.609651   -891.82794    1776.8378    1346.1677    2.1667449   0.11357793   0.11763537 
   22600   -945.10459    46.842147   -898.26245    1677.7158    1154.3931    2.1728559   0.17177781   0.10829152 
   22700   -949.23563    48.388465   -900.84716    1733.0993   -5100.9211    2.1654608  0.087443559   0.11270282 
   22800   -940.22987    47.740313   -892.48956    1709.8849    2806.4182    2.1664698  0.055763352   0.13651936 
   22900   -950.96651    52.980784   -897.98572    1897.5795    506.82648    2.1834433 0.0067742411   0.11967105 
   23000   -945.09577    43.779246   -901.31652    1568.0138   -1519.4489    2.1684398   0.13923494   0.10349663 
   23100   -940.63995    47.779128   -892.86082    1711.2751   -4765.9096    2.1457048   0.12329428   0.12173121 
   23200   -944.11957    46.564339   -897.55523    1667.7658    6052.9514    2.1859397   0.13280543    0.1281615 
   23300   -944.25473    43.878049   -900.37668    1571.5526    6264.3356     2.187025  0.048374674   0.12857718 
   23400   -941.91779    49.393341   -892.52445    1769.0903   -9916.6176    2.1374729   0.19814012   0.12593606 
   23500   -943.00213    45.875145   -897.12699    1643.0813   -1605.9491    2.1617724  0.031757567   0.12299598 
   23600   -947.18393    47.917778   -899.26615     1716.241    10042.735    2.1990801  0.046842309   0.11386315 
   23700   -938.96691    47.294516   -891.67239     1693.918    2362.1167    2.1577926  0.082837682   0.11145452 
   23800   -941.63654    45.822903   -895.81364    1641.2102   -8876.3012    2.1385954   0.06438875   0.11891475 
   23900   -946.84135    47.246076   -899.59527    1692.1831    5278.5074    2.1836197    0.1803282   0.12265935 
   24000   -939.25036    48.351385   -890.89897    1731.7713    11582.999    2.1868011   0.11408148   0.12784304 
   24100   -942.96791    47.796693   -895.17122    1711.9042   -6140.1981    2.1485881  0.014527624    0.1289616 
   24200    -943.8444    42.562684   -901.28171     1524.441   -6049.7006    2.1536106   0.19935268   0.12253869 
   24300   -943.98587    50.609631   -893.37624    1812.6534    9753.7152    2.1918648  0.060920527   0.12262482 
   24400   -944.50305    50.047989   -894.45506    1792.5375    3383.3685     2.175322  0.092546177   0.12448457 
   24500   -946.37507    43.808829   -902.56624    1569.0734   -7430.9639    2.1584653  0.032994793   0.11713593 
   24600   -944.87848    49.327174   -895.55131    1766.7205    -1600.006    2.1667303  0.014425354   0.11140083 
   24700   -942.66876    49.135576   -893.53318    1759.8582    2757.3421      2.17396  0.055015471   0.12102064 
   24800   -951.47653    48.784536     -902.692    1747.2851   -2636.5562    2.1782679    0.1078818   0.11684866 
   24900   -944.12665    48.196053   -895.93059    1726.2078    -5565.926    2.1574202   0.18369662   0.11649366 
   25000   -941.93729    48.255157   -893.68213    1728.3247    1283.6221    2.1687034   0.39488167   0.13285068 
   25100   -948.55746    46.904455     -901.653    1679.9475    2384.7042    2.1854267   0.08808423   0.11257615 
   25200   -942.47487     47.54743   -894.92743    1702.9765   -2550.1455     2.159087   0.19766773   0.12921475 
   25300   -938.67344    44.914876   -893.75857     1608.688    1037.0843    2.1625114  0.074973943   0.12392079 
   25400   -950.88905    50.706835   -900.18222    1816.1349    772.43244    2.1812607  0.047048199     0.103266 
   25500   -946.78312    51.743555   -895.03957    1853.2665   -1180.8956    2.1665967  0.092511183   0.10357253 
   25600   -941.78238    49.640209   -892.14217    1777.9323   -3492.6517    2.1542413   0.19083663   0.11645208 
   25700   -948.29412     48.63962    -899.6545    1742.0948   -1305.5453    2.1736893   0.13982034  0.094133967 
   25800   -944.78856    48.893162    -895.8954    1751.1758    5715.6284    2.1836376  0.064557279   0.10767021 
   25900   -942.62896    51.798853    -890.8301    1855.2471   -5195.5165    2.1486782  0.061170866    0.1205688 
   26000   -944.01497    43.412061   -900.60291    1554.8626   -977.06465    2.1634556  0.048313712   0.12314293 
   26100   -942.48419    45.902693    -896.5815     1644.068    10082.779    2.1880493  0.060548532   0.12252596 
   26200   -944.46029    53.050644   -891.40964    1900.0817     53.82396    2.1688702   0.10213652   0.12550354 
   26300   -945.61193    46.380283   -899.23165    1661.1735   -11799.835    2.1447144  0.059721034   0.11970504 
   26400   -944.46747    45.062251   -899.40522    1613.9664   -959.82852    2.1678705   0.21425371   0.11676317 
   26500   -941.14031    49.457199   -891.68311    1771.3775    11772.824    2.1923468  0.071145321   0.13120746 
   26600   -943.75549    45.382645   -898.37284    1625.4418   -4247.1825     2.165104   0.19868978   0.11596415 
   26700   -943.07787    40.706728   -902.37115    1457.9674   -8058.5119    2.1524796  0.057021931   0.12079499 
   26800   -943.29117    49.849308   -893.44186    1785.4214    2662.2377     2.175715  0.085860991   0.11569307 
   26900   -943.31946    47.190984   -896.12848    1690.2099    6226.3257    2.1871511    0.1147593   0.13166986 
   27000   -944.05029    41.407004   -902.64329    1483.0487   -2130.1176    2.1678046  0.093274264   0.11908894 
   27100   -941.69751    48.228397   -893.46911    1727.3663   -2696.6588    2.1562863   0.23580557   0.12223963 
   27200   -946.54435    51.733513   -894.81084    1852.9068    2836.0236    2.1799177  0.072351356   0.12278109 
   27300   -945.24348    44.259623   -900.98386    1585.2192    2741.2432    2.1800415   0.10481027   0.11067999 
   27400   -942.62532    50.191836   -892.43349    1797.6896   -5030.4859    2.1526364  0.037720465   0.11705502 
   27500   -944.98784    50.568716   -894.41912     1811.188    455.67698    2.1696802  0.038893047   0.10640526 
   27600   -947.94636     48.20637   -899.73999    1726.5774      2462.81    2.1809791   0.13609683  0.095432127 
   27700   -943.07124    50.286906   -892.78433    1801.0946   -2162.4365    2.1576156   0.22717366   0.12047225 
   27800   -938.51176    44.562669   -893.94909    1596.0732   -501.76565    2.1608884  0.079700879   0.12080499 
   27900   -943.54917    43.398618   -900.15055    1554.3811    2374.1569    2.1805061   0.12093413   0.12021842 
   28000   -941.70275    48.216602   -893.48615    1726.9438   -61.555925    2.1684235    0.1900626   0.12029885 
   28100   -945.13801    51.255586   -893.88242    1835.7892   -4331.3114     2.158394   0.16449683   0.11349941 
   28200   -948.44336    47.035345   -901.40801    1684.6355   -2319.1675    2.1742986   0.12890838   0.11541157 
   28300   -943.91593    49.887615   -894.02832    1786.7934    5136.8926    2.1803877  0.036748224   0.11831883 
   28400   -942.85592    47.823464   -895.03246     1712.863   -1815.2746    2.1603122  0.069519097   0.11504404 
   28500   -946.42205    42.787769   -903.63428    1532.5027   -6101.0132    2.1622121  0.039129314   0.10688849 
   28600   -943.38882    47.341533   -896.04728     1695.602    6683.5077     2.184673   0.11536782   0.11624882 
   28700   -946.26774    52.136619   -894.13113    1867.3446    3697.3971     2.179799   0.22964759   0.12347392 
   28800   -947.52198    44.832074   -902.68991    1605.7223   -8669.9333    2.1572121   0.12195585   0.11887677 
   28900   -944.35945    46.797118   -897.56233    1676.1031   -4734.2985    2.1601546   0.18493995   0.12371672 
   29000   -945.87331     53.68364   -892.18967    1922.7533    7271.5809    2.1920575  0.035280577   0.12348474 
   29100   -949.66224    50.015654   -899.64659    1791.3793   -1460.4644    2.1767204   0.11197696    0.1175297 
   29200   -945.29464    46.859966   -898.43467     1678.354   -9569.9072    2.1483506  0.048825003   0.12073044 
   29300   -939.42593    47.881396   -891.54454    1714.9379    2382.8859    2.1641688   0.15620831   0.13241682 
   29400   -946.96055    49.603055    -897.3575    1776.6015    5159.3838    2.1905694   0.07671842   0.12711068 
   29500   -943.91049    43.855967   -900.05452    1570.7617   -97.921783    2.1695526  0.099339055   0.12352687 
   29600   -938.33274    47.831702   -890.50104    1713.1581   -5986.5258    2.1406869   0.08812906    0.1268115 
   29700    -947.6367    49.988652   -897.64805    1790.4122    4513.4926    2.1898092  0.092501413    0.1290614 
   29800   -943.65482    44.820771   -898.83405    1605.3175    4888.5898    2.1849352  0.022131609   0.14082198 
   29900   -941.42305    49.161624   -892.26142    1760.7911   -10028.946    2.1394277  0.098707866   0.14425699 
   30000    -941.3321    46.351899    -894.9802    1660.1569   -835.97368    2.1627406  0.074131148   0.13736488 
   30100   -950.53611    51.194556   -899.34156    1833.6033    6152.9988    2.2006446   0.11167187   0.12693287 
   30200   -941.65539    47.612682   -894.04271    1705.3136    510.53441    2.1656856 0.0080368783   0.13764233 
   30300   -938.80188    44.272183    -894.5297     1585.669   -13357.745    2.1294266   0.17673902   0.13808414 
   30400   -947.48992    44.954187   -902.53573     1610.096    7615.1588     2.199057  0.071020199   0.13174254 
   30500   -945.42125    51.725659   -893.69559    1852.6255    19686.483    2.2222387    0.1183352   0.12359928 
   30600   -940.45065    45.116302   -895.33435    1615.9023   -15512.122    2.1250332  0.075872069   0.13157293 
   30700     -943.874    44.992895    -898.8811    1611.4823   -9873.1447    2.1461974   0.15644079   0.12547723 
   30800   -943.20192    42.926349   -900.27557    1537.4661     16388.95    2.2095457   0.02366839   0.13891131 
   30900   -938.36084    47.031163   -891.32967    1684.4857    53.390557    2.1582922   0.21917708    0.1350251 
   31000   -947.02197    49.336784   -897.68519    1767.0647   -9809.0079    2.1506544 0.0087865522   0.12431877 
   31100   -948.50816    49.637632   -898.87053      1777.84     1041.027    2.1805919  0.075476881   0.12338132 
   31200   -937.14669    48.321298   -888.82539    1730.6937     6142.488    2.1698622  0.044111737   0.14610055 
   31300   -940.70524    45.338584   -895.36666    1623.8636   -2245.0056    2.1574616  0.021596772   0.13318222 
   31400   -943.19754    43.410381   -899.78716    1554.8024   -3103.5523    2.1660784   0.17898024   0.11373697 
   31500   -940.13376    48.050307   -892.08345    1720.9877    7144.0938     2.181163  0.019321815   0.14387712 
   31600   -941.91755    48.594075   -893.32347    1740.4636    675.67363    2.1697898  0.040694486   0.12151716 
   31700   -945.75677    45.332349   -900.42442    1623.6403   -8834.4679    2.1556628  0.077593618   0.12196952 
   31800    -945.9739    51.497936   -894.47596    1844.4693    384.30385    2.1735728    0.1059214   0.12710262 
   31900   -945.55203    53.747015   -891.80501    1925.0232    4206.7839    2.1815241  0.036991236   0.12493603 
   32000   -944.52231    43.044061   -901.47824    1541.6822    -730.7968    2.1695425   0.35648263   0.11911515 
   32100   -944.52938    47.464794   -897.06459    1700.0168   -5731.6222    2.1525169  0.033203248   0.12492096 
   32200   -943.80784    51.330093   -892.47774    1838.4578    5107.2557    2.1765622   0.11745002   0.11700967 
   32300   -948.44237    46.845414   -901.59696    1677.8328    5889.5627    2.1942035   0.13042831   0.11195879 
   32400   -946.96876    48.138337   -898.83043    1724.1407   -11290.609     2.141681   0.22548645   0.10727108 
   32500   -943.69488    49.088672   -894.60621    1758.1782   -2956.7003      2.15932   0.12560363   0.10992524 
   32600   -945.93332    48.883852   -897.04947    1750.8423    14144.926    2.2106541    0.0486312   0.13782242 
   32700   -947.68991    44.025633   -903.66427    1576.8385   -3489.4704    2.1723171   0.14841772   0.11885306 
   32800   -941.83318    47.661668   -894.17151    1707.0681   -18040.025    2.1199353   0.17166239   0.12573267 
   32900   -941.33864    47.115397   -894.22324    1687.5026    11526.332    2.1916852  0.011808561   0.12656874 
   33000   -948.04767    48.713589   -899.33408    1744.7441    7176.0334    2.1949373   0.30720795   0.11549676 
   33100   -939.89083    47.689992   -892.20083    1708.0826   -5290.2081    2.1443402  0.063674459   0.11791752 
   33200   -940.73313    47.354157   -893.37897    1696.0542   -2286.2228    2.1550508   0.18996897   0.13698494 
   33300    -945.9412    47.100047   -898.84115    1686.9529    4641.6085    2.1869688  0.079588894   0.11787437 
   33400   -940.49435    46.069629   -894.42472     1650.047    2315.6135    2.1703142  0.080749478   0.12881311 
   33500   -940.95826    49.909762    -891.0485    1787.5867   -6658.5169    2.1404935   0.06979514   0.12442659 
   33600   -945.10514    44.566984   -900.53815    1596.2278    4456.0304    2.1828168 0.00057365843   0.11436869 
   33700   -942.45003    46.967427    -895.4826    1682.2029     8821.923    2.1881106  0.021190111   0.13105335 
   33800   -939.55002    47.098579   -892.45144    1686.9003   -6182.5914    2.1439932   0.07614238   0.12262249 
   33900   -947.41636    45.011971   -902.40439    1612.1656   -5938.3322     2.162551  0.090156365   0.12184525 
   34000   -947.97978    49.444831   -898.53494    1770.9345    5952.9129    2.1920768   0.11644366   0.13150286 
   34100   -942.49772    49.193411   -893.30431    1761.9296    2784.5367    2.1735353  0.062803958   0.13204184 
   34200   -944.86091    46.947166   -897.91374    1681.4772   -9370.0881    2.1482147   0.17877418   0.12800654 
   34300   -946.63639    44.686342   -901.95004    1600.5027   -1196.2696    2.1747048  0.073984434   0.12484528 
   34400   -944.36896    51.339251    -893.0297    1838.7858     9703.298    2.1883448    0.1551902     0.116749 
   34500   -944.58544    47.694824   -896.89061    1708.2556   -3791.0406    2.1625339  0.038961623    0.1157015 
   34600   -944.54956    40.561806   -903.98775    1452.7768   -6148.2653    2.1652876   0.18940206   0.12572925 
   34700   -943.03184    47.173234   -895.85861    1689.5742    4885.9904    2.1801628  0.023245781   0.13820707 
   34800   -940.74058     46.51732   -894.22326    1666.0817     7872.422    2.1864195   0.10971152   0.14697384 
   34900   -944.54247    43.510285   -901.03219    1558.3806   -5213.0674    2.1605182  0.015030346   0.14364873 
   35000   -942.12043    47.199576   -894.92086    1690.5176   -1388.0895    2.1636122  0.014129812   0.14194075 
   35100   -943.74972    51.259462   -892.49025     1835.928    -299.8975    2.1721891    0.1152044   0.12990644 
   35200   -947.19903    48.085681   -899.11335    1722.2547   -1522.8512    2.1720293   0.10558136   0.11250842 
   35300     -946.412    50.785668   -895.62633    1818.9584   -4277.0255    2.1653316  0.028121929   0.11655106 
   35400    -941.8684    51.371986   -890.49642    1839.9582   -2310.5626    2.1614005 0.0059229984   0.14489919 
   35500   -948.40142    49.633658   -898.76776    1777.6976     688.1073    2.1803789  0.029924152   0.13253485 
   35600   -944.32991    48.036726   -896.29319    1720.5013   -832.96801    2.1698122   0.02649146   0.11789784 
   35700   -939.46961     49.73112   -889.73849    1781.1884   -4854.6646    2.1506833   0.04449862   0.13477788 
   35800   -948.97929    49.101177   -899.87812    1758.6261    4656.3319    2.1900421  0.014841454   0.11615055 
   35900   -945.61989    48.153565   -897.46633    1724.6861    -154.7066    2.1738322   0.05842579   0.12811625 
   36000   -938.75635    46.041355     -892.715    1649.0344   -5157.6631    2.1470351  0.013327549   0.14988248 
   36100   -945.87457    44.774468    -901.1001    1603.6591    142.32506    2.1747178  0.063473559   0.11051231 
   36200   -946.58172    46.683635   -899.89808    1672.0385    3885.2368    2.1865575    0.0572264   0.10850343 
   36300   -942.88385    48.638392   -894.24546    1742.0508   -621.23556       2.1633  0.020891166   0.11283634 
   36400   -941.16469     44.32756   -896.83713    1587.6524   -7152.8747    2.1524806   0.12949815   0.12423936 
   36500   -946.61505    43.963674   -902.65138    1574.6194    8892.0977    2.1948576  0.030743936   0.12148176 
   36600   -944.44459     51.06758   -893.37701    1829.0555    6025.7156    2.1832501  0.070509182   0.12635686 
   36700   -942.66479    46.001276   -896.66352    1647.5989   -11348.565    2.1427217  0.096941291   0.13957704 
   36800   -947.81024    46.644722   -901.16552    1670.6448   -4929.9469    2.1660683   0.01278935   0.12223552 
   36900   -945.80413    45.214603   -900.58953    1619.4231    18115.649    2.2185129   0.15146147   0.12691507 
   37000   -944.99339    51.872862   -893.12053    1857.8978   -4140.3919     2.160856   0.14146165   0.11454686 
   37100   -942.89377    44.964775     -897.929    1610.4752   -9493.8406    2.1407754  0.028814037   0.12053878 
   37200   -945.88149    49.071331   -896.81016    1757.5571    3778.8403    2.1832993  0.027173647   0.12133657 
   37300   -938.83024    51.520378   -887.30986    1845.2731    2870.0997    2.1668635   0.16285131   0.13313796 
   37400   -944.78607    48.533778    -896.2523    1738.3039   -3700.0511    2.1630792  0.091659915   0.12125923 
   37500   -945.37326    47.558752   -897.81451     1703.382   -3284.2057    2.1660181   0.36478867   0.12341663 
   37600   -940.98537    49.926608   -891.05876      1788.19    3523.9371    2.1733919   0.52676281   0.14220897 
   37700   -937.04523    44.817752   -892.22748    1605.2094    1825.9652    2.1623492   0.30175116   0.14743826 
   37800    -942.1922    43.304002   -898.88819    1550.9923   -2581.8737    2.1622861   0.24024347   0.11686164 
   37900   -944.14971    48.854476   -895.29523    1749.7902    3445.4069    2.1753309  0.026895033   0.10750112 
   38000   -942.13561    50.891106   -891.24451    1822.7349    2421.3058     2.166669  0.029754527   0.12123301 
   38100   -942.08417    43.873095   -898.21107    1571.3752   -6577.8635    2.1495248   0.21900973    0.1304336 
   38200   -945.61904    45.700931   -899.91811    1636.8416   -4139.0459    2.1638581  0.035594573   0.12095503 
   38300   -944.63098    49.439945   -895.19103    1770.7595    13608.586    2.2025923   0.31681178   0.10537781 
   38400   -944.79117    48.224678   -896.56649    1727.2331   -3663.4344    2.1606517  0.058285281   0.11187483 
   38500   -946.05853    40.739229    -905.3193    1459.1315    -14610.32    2.1391967   0.32473401   0.12129628 
   38600   -949.04024    48.489294   -900.55095    1736.7107    3986.5185    2.1928644    0.1176738   0.12854697 
   38700   -944.58622    50.443997   -894.14223     1806.721    12054.286       2.1961  0.078556782   0.12671254 
   38800   -944.52979     46.52456   -898.00523     1666.341   -7778.4869    2.1487825    0.3191524   0.11266853 
   38900   -947.72027    43.315001   -904.40527    1551.3862   -3924.0453    2.1701096  0.081070265   0.10525389 
   39000   -946.45911    50.430381   -896.02873    1806.2334    4022.9803    2.1863156  0.031060557   0.11916579 
   39100   -945.97539    50.879682   -895.09571    1822.3257    2099.0445    2.1744088  0.043659001    0.1210803 
   39200   -946.27572    47.422783   -898.85294    1698.5121   -6658.7654    2.1560577  0.059034787   0.10830532 
   39300   -947.53899    46.521738   -901.01726    1666.2399    111.47123    2.1756926   0.22601692   0.11256379 
   39400   -941.26188    50.751828   -890.51005    1817.7464     -701.324     2.160329  0.087761755   0.12255675 
   39500   -947.30334    52.689533   -894.61381     1887.148    -1428.204     2.171135   0.31696497   0.12102402 
   39600   -942.34526    43.986617   -898.35865    1575.4411   -528.19729    2.1670129  0.070986694   0.12221052 
   39700   -946.59663    48.535378   -898.06125    1738.3612    -2956.802    2.1699677 0.0059807983   0.12417045 
   39800   -938.91205    49.729543   -889.18251    1781.1319   -686.39957    2.1570847 0.0089463851   0.12252134 
   39900   -944.95133    48.488795   -896.46254    1736.6928   -1927.6221    2.1700296  0.088599804   0.12167588 
   40000   -943.76961    45.675452   -898.09415     1635.929    3076.0853    2.1785311   0.10780267   0.10730099 
   40100   -939.76391    49.700507   -890.06341    1780.0919    468.27375    2.1602002   0.08687044   0.12186331 
   40200   -935.78334    43.370428   -892.41291    1553.3714     2162.411    2.1591706   0.30203252   0.11567843 
   40300   -944.98811    46.731872   -898.25624    1673.7662   -2727.5078    2.1693934  0.070343887    0.1156089 
   40400   -945.14688    50.234286   -894.91259    1799.2099    5470.2729    2.1795887   0.14931938   0.12174094 
   40500   -938.79101     50.51067   -888.28034     1809.109   -2563.3336     2.152386  0.039992768   0.13225773 
   40600   -941.67324    42.782486   -898.89076    1532.3135    450.33769    2.1684172  0.018409633   0.11522091 
   40700   -944.58128    47.121321   -897.45995    1687.7148   -231.23755    2.1728063   0.12583645   0.11176585 
   40800   -944.36241    50.730393   -893.63202    1816.9787     848.2194    2.1732971  0.083066622   0.12141739 
   40900    -942.0589    52.048396    -890.0105    1864.1848   -2348.9984    2.1572544   0.16099057   0.13345258 
   41000   -945.78999     44.89083   -900.89916    1607.8267     1969.817    2.1827134  0.069779568   0.12638393 
   41100   -945.70657    47.393254   -898.31331    1697.4545    -374.5835    2.1748961   0.27483469   0.12047688 
   41200   -944.23122    48.710388   -895.52083    1744.6294    -2455.559     2.162385   0.03540829   0.11762748 
   41300   -944.42058    53.081548   -891.33903    1901.1886    -693.8278    2.1655394  0.088648998   0.13388335 
   41400   -945.23976     46.10643   -899.13333    1651.3651     -30.3347    2.1753055  0.058337431   0.14430759 
   41500   -944.71666    44.732431   -899.98423    1602.1534   -5074.6829    2.1601009   0.62413085    0.1415259 
   41600   -942.62379    45.987139   -896.63665    1647.0926    4739.0241    2.1804955   0.20161933   0.12385558 
   41700   -944.97473    50.967454   -894.00728    1825.4694    2696.4096    2.1792926  0.095525998   0.12538925 
   41800   -937.95172    50.868586   -887.08313    1821.9283   -8353.0129    2.1341595   0.11808237   0.13711432 
   41900   -942.53603    51.419274   -891.11675    1841.6519   -8315.4012    2.1462931  0.030443501   0.13379307 
   42000   -939.37054    44.125675   -895.24487    1580.4216    10024.153    2.1903393  0.059664917   0.15049555 
   42100   -947.44691    51.348189   -896.09872    1839.1059   -66.485163    2.1754492  0.059764364   0.11740954 
   42200   -942.64092    43.337532   -899.30339    1552.1932   -9147.0807     2.143992   0.11877731   0.11779285 
   42300   -946.29464     43.50111   -902.79353     1558.052    1737.0972    2.1840123   0.05219568   0.12538324 
   42400   -941.04656    48.393462    -892.6531    1733.2783    13958.225    2.1954331  0.019854802   0.12771263 
   42500   -943.53666    49.203718   -894.33294    1762.2987    -2272.337    2.1591035  0.051148645   0.13550377 
   42600   -946.38467    49.105804   -897.27887    1758.7918   -11197.372    2.1454293  0.087887307   0.12425066 
   42700   -943.16827    47.399748   -895.76852    1697.6871    7379.0274    2.1846822  0.013690942   0.11064275 
   42800   -943.67205    58.426187   -885.24586    2092.6141    2166.8134    2.1671927  0.068882103   0.11737834 
   42900   -942.73647    49.158425   -893.57805    1760.6765   -5254.6668    2.1539282    0.1439597    0.1222672 
   43000   -947.82406    50.241393   -897.58266    1799.4645   -5031.6794    2.1607339  0.016246787   0.11156612 
   43100   -944.91432    48.467831   -896.44649    1735.9419    2320.0721    2.1793307  0.045943695   0.12036124 
   43200   -940.25083    54.081219   -886.16961    1936.9932   -955.90365    2.1543194  0.045711326   0.12756232 
   43300   -944.37892    48.805134   -895.57379    1748.0229    509.87754    2.1681801   0.17748324   0.10357525 
   43400   -946.14864    48.340816   -897.80782    1731.3927   -2888.9081    2.1685769  0.098400772   0.11232321 
   43500   -942.63358    48.059864   -894.57372    1721.3301    1183.4119     2.170839  0.062338669   0.11843302 
   43600   -940.15569    53.702993    -886.4527    1923.4464   -306.61628     2.152485  0.055375497   0.12471588 
   43700   -942.99069    46.257679   -896.73301    1656.7823     3872.364    2.1731262   0.78862049    0.1369667 
   43800   -944.28777    48.408474    -895.8793     1733.816   -1811.1443    2.1670176    0.2766268   0.13613164 
   43900    -941.3959    50.315466   -891.08044    1802.1175   -2818.1089    2.1550412  0.046032357   0.12864474 
   44000   -944.70667    48.035505   -896.67116    1720.4576   -1451.2226    2.1682557   0.25321663    0.1088828 
   44100   -943.09738    43.607419   -899.48996    1561.8596    1739.2652    2.1765671  0.025618148   0.11438896 
   44200   -942.74099    46.662832   -896.07816    1671.2934    3076.5598     2.175688   0.25251016   0.12234115 
   44300   -941.23596    46.878659    -894.3573    1679.0236   -3273.9924     2.157747    0.1221734   0.11809101 
   44400   -948.82363    44.303787   -904.51984     1586.801   -2162.7455    2.1767283   0.10362236   0.11344739 
   44500   -947.08087    47.319081   -899.76179    1694.7979    1182.9954    2.1759111  0.032049475   0.10962514 
   44600   -943.79105    48.682866   -895.10818    1743.6437    2813.0013    2.1737108  0.039808854   0.12040459 
   44700   -945.87658    47.990829   -897.88575    1718.8574   -4211.9492    2.1622257   0.08275634   0.12304865 
   44800   -948.90942    44.488494   -904.42093    1593.4165   -765.02783    2.1809937   0.24901455   0.11917415 
   44900    -945.1876    49.893176   -895.29442    1786.9926   -155.53958    2.1719334   0.26497685   0.12270339 
   45000    -946.2336    49.797692    -896.4359    1783.5727   -1879.9759    2.1667293   0.11347632   0.10878762 
   45100   -947.04029    44.184067   -902.85622    1582.5131   -1143.8277    2.1728542   0.16134122   0.10174324 
   45200   -947.31323    48.256383   -899.05685    1728.3686    2111.3455     2.181647   0.22314741   0.11020209 
   45300   -941.92901    47.511413    -894.4176    1701.6865    1589.7304    2.1744127   0.19652412   0.12362248 
   45400   -944.33608    46.323141   -898.01294    1659.1269   -6712.9411    2.1546774   0.11035626   0.12338277 
   45500    -943.6335    43.684856   -899.94864    1564.6331    1893.1665    2.1737034  0.034338906   0.12331905 
   45600    -938.0947    48.649414   -889.44528    1742.4456    9402.7404    2.1837108  0.026852517   0.13403099 
   45700    -942.2772    49.149667   -893.12753    1760.3628    1507.0855    2.1687513  0.020234084   0.11510406 
   45800   -943.23687    45.353277   -897.88359    1624.3899    -9069.006    2.1432302    0.1932325   0.11633394 
   45900   -943.09083    47.715003   -895.37582    1708.9784    4267.1742     2.177992  0.044231554   0.12369113 
   46000   -937.90336    52.326467   -885.57689    1874.1443    10085.702    2.1754357  0.019440541   0.12009226 
   46100   -946.28571    51.005621   -895.28008    1826.8364   -6974.5212    2.1551592   0.11545631   0.10836833 
   46200   -946.32684    48.411726   -897.91511    1733.9324   -8903.1498    2.1545435   0.27824705   0.10538106 
   46300   -945.09954    51.325932   -893.77361    1838.3087    8426.5647    2.1894323  0.020393965   0.12095765 
   46400   -934.90319    48.173776   -886.72942      1725.41     4816.308    2.1603801     0.107986    0.1418423 
   46500   -943.10657    45.880615   -897.22595    1643.2772   -5962.8475    2.1533624   0.01806494    0.1354093 
   46600   -942.50993    45.436473   -897.07345    1627.3697    2239.5429    2.1719043   0.21440829   0.12214611 
   46700    -945.2376    51.475238   -893.76236    1843.6563    7067.7771    2.1879839  0.035982767   0.11519496 
   46800   -936.51649    50.161116   -886.35537    1796.5893   -8759.9447    2.1285951   0.21808805    0.1414943 
   46900   -945.63455    48.080677   -897.55387    1722.0755   -7969.0588    2.1521391   0.31094028   0.13207442 
   47000    -946.0494    50.172793   -895.87661    1797.0075    15974.021     2.210167  0.044585093    0.1270515 
   47100   -944.95002    49.051826   -895.89819    1756.8585    963.62837    2.1710943  0.045846077   0.12787386 
   47200   -942.30516    46.587856   -895.71731    1668.6081   -16759.381    2.1223661  0.055096151   0.12804068 
   47300    -946.0509    40.919411   -905.13149    1465.5849    9321.2756    2.2007824   0.11173185   0.12511551 
   47400     -947.609     50.97436   -896.63464    1825.7167    3807.7661    2.1877201   0.13242065   0.13749425 
   47500   -942.60153    46.698489   -895.90304    1672.5705   -5761.7566    2.1495418   0.07179993   0.12313364 
   47600   -948.64318    52.716895   -895.92628     1888.128   -7254.9729    2.1580953   0.24846435   0.12084643 
   47700   -950.55195    45.124801   -905.42715    1616.2067    8828.9392    2.2048747  0.028733735   0.10327467 
   47800   -941.26787    43.979304   -897.28857    1575.1792    232.05251    2.1628818  0.078658482    0.1121436 
   47900   -945.00252    48.911092   -896.09143    1751.8179   -6631.8228    2.1553404  0.036608686   0.12223227 
   48000   -948.72479    51.047967   -897.67683    1828.3531      818.088    2.1805518  0.014608607   0.11605321 
   48100   -949.46376    43.775206   -905.68855    1567.8691    6211.3273    2.1972695  0.055669099   0.11609332 
   48200   -945.41334    49.083644    -896.3297    1757.9981   -11279.028     2.144428  0.085691354   0.12751559 
   48300   -942.88838    47.034715   -895.85367    1684.6129   -897.58981    2.1626671  0.038357816   0.13424961 
   48400   -946.38709    47.413892    -898.9732    1698.1937    7879.0846    2.1956363   0.18038129   0.13057942 
   48500   -951.40705    44.592431   -906.81462    1597.1391   -2158.6226    2.1811485  0.069571903   0.11965189 
   48600   -940.70175    43.581622   -897.12013    1560.9356   -8739.0241    2.1374052  0.035675315   0.11837465 
   48700   -944.85984    49.316567   -895.54327    1766.3406    4732.4194    2.1838309   0.29601355   0.13115117 
   48800   -947.20941    48.837234   -898.37217    1749.1726    9036.6603    2.1966729  0.011842536   0.11155629 
   48900   -949.98584    43.106195   -906.87965    1543.9076   -13369.655    2.1516941  0.035978677   0.10804628 
   49000   -945.04358    46.545393   -898.49819    1667.0872   -12502.174    2.1406035   0.34138135   0.13058873 
   49100   -945.10237    51.007553   -894.09482    1826.9056    20444.327     2.220944  0.021018703   0.12940759 
   49200   -944.04657    46.170974   -897.87559    1653.6768   -472.87567     2.171539  0.083232226   0.14332102 
   49300   -942.22493    51.032315   -891.19261    1827.7925   -11495.201    2.1378316  0.078481203   0.13673935 
   49400   -942.15904    52.504499   -889.65454    1880.5207   -785.24781    2.1624686   0.06093689   0.13067469 
   49500   -943.67253    47.311454   -896.36108    1694.5247    4385.3293    2.1825159    0.0706947   0.12243967 
   49600   -946.24662    49.047765   -897.19886    1756.7131   -2753.4384    2.1685412  0.049327701   0.13417089 
   49700   -940.93104    49.868991   -891.06205    1786.1264   -5630.2007    2.1534874   0.22794381   0.13253013 
   49800   -937.17211    48.037369   -889.13474    1720.5243    2220.1256    2.1632021   0.19025851   0.13045379 
   49900   -944.67288    48.466019   -896.20686     1735.877     1185.087    2.1753681  0.029506938   0.11927163 
   50000   -945.85291     48.44291      -897.41    1735.0494   -391.39869    2.1722688  0.049272702   0.12062975 
   50100   -942.71413     50.11383    -892.6003    1794.8957   -2483.7113    2.1618763  0.031729952   0.14157311 
   50200   -941.56119    52.234456   -889.32673    1870.8488   -1309.1214    2.1565853  0.067970075     0.135945 
   50300   -945.13239    48.217052   -896.91534      1726.96    1898.7495     2.173851  0.076867326   0.11463447 
   50400   -945.74918    48.747238   -897.00194    1745.9493    -460.4526    2.1763224    0.1411271   0.11835272 
   50500   -940.43066    50.815323   -889.61534    1820.0206   -2938.5455    2.1537109  0.036914153   0.11326562 
   50600   -943.24876    51.620093   -891.62867    1848.8445   -5156.3219    2.1538386  0.054162205   0.11944938 
   50700   -943.32148    46.046916   -897.27456    1649.2335    2083.2896    2.1733016  0.054210424   0.11500784 
   50800   -944.72487    48.564241   -896.16063     1739.395    5165.5033    2.1831958  0.020754159   0.12016416 
   50900   -942.78482    53.672645   -889.11217    1922.3595   -5201.0841    2.1541501    0.1019655   0.12571248 
   51000   -939.69217    47.861406   -891.83077     1714.222   -5832.0825    2.1441249   0.17371352   0.12662174 
   51100   -943.21364    46.137596   -897.07604    1652.4814    3276.3936    2.1775602  0.050193616   0.13106674 
   51200   -941.37962    45.375808   -896.00381    1625.1969    10108.198    2.1914015  0.022218101   0.13098083 
   51300   -941.47425    51.108235   -890.36602    1830.5116   -6762.0473    2.1454008   0.21905825    0.1224688 
   51400   -940.13479    50.256463   -889.87833    1800.0042   -10555.443    2.1351582 0.0033612384   0.13207482 
   51500   -942.24973     45.80604   -896.44369    1640.6062    9024.7093    2.1940735   0.07852995     0.111584 
   51600   -945.40724    49.113183   -896.29405    1759.0561    7653.3704    2.1895014  0.053941702   0.11221104 
   51700   -942.63319    47.835035   -894.79816    1713.2775   -12924.282    2.1374591         0.15   0.12782181 
   51800   -937.44391    53.038648   -884.40526     1899.652   -1279.5007    2.1521312   0.01562106   0.13216649 
   51900   -941.34679    52.089074   -889.25771    1865.6417    11286.982    2.1852979  0.077379486   0.12566423 
   52000   -941.89556    46.985971   -894.90959    1682.8671   -5007.7675    2.1522772   0.46777629   0.13810497 
   52100   -944.96097    47.238132   -897.72284    1691.8986   -3964.2755    2.1614006   0.17408873   0.12059907 
   52200    -945.5901     47.92988   -897.66022    1716.6745    4903.5662    2.1843366   0.12834079   0.13672733 
   52300   -939.22689    51.563766   -887.66312    1846.8271   -2657.0756    2.1492794   0.13628371   0.13088903 
   52400   -941.38154    45.342185   -896.03935    1623.9926    240.04737    2.1655342   0.11963515   0.11762453 
   52500   -942.53125    44.804918   -897.72633    1604.7497    3388.2813    2.1768095   0.17055686   0.11200319 
   52600   -941.03071    48.838454   -892.19225    1749.2163    114.78655    2.1665315   0.05797008   0.12513531 
   52700   -936.55812    45.547627   -891.01049    1631.3508   -2725.2051    2.1501089  0.019543292   0.13607832 
   52800    -944.2914    45.559636   -898.73177    1631.7809   -839.72475     2.167737   0.02110049   0.13327592 
   52900   -942.99404    47.939952   -895.05409    1717.0352    9240.6516    2.1859028  0.060804873   0.12144108 
   53000   -938.79708    49.029776    -889.7673    1756.0688   -414.00015    2.1552037   0.30139371   0.13068257 
   53100   -945.12737    46.243038   -898.88433    1656.2579   -10879.471    2.1482696   0.18629617   0.11866839 
   53200    -946.7457    48.174947   -898.57076    1725.4519    1989.7679    2.1803095  0.074571189   0.12133209 
   53300    -943.2037    49.741285   -893.46242    1781.5525     15071.92    2.2061744   0.13375032   0.12322039 
   53400   -943.85418    45.458487   -898.39569    1628.1582   -11456.946    2.1481364   0.58222311   0.12094536 
   53500   -948.09224     43.07501   -905.01723    1542.7906   -10400.091    2.1542016  0.020259124   0.10875136 
   53600   -942.29947    46.230412   -896.06906    1655.8057    10906.947    2.1998166  0.015584749   0.13635025 
   53700   -941.38898     46.50876   -894.88022    1665.7751    6015.5322    2.1836116   0.93428658   0.15499259 
   53800   -942.64361    47.316581   -895.32703    1694.7084   -8847.0676    2.1448379     3.850275   0.16778994 
   53900   -943.97518    38.533126   -905.44206    1380.1168    245.29354    2.1815363    5.3756585   0.15973369 
   54000   -945.30775    46.788137   -898.51961    1675.7814    4157.6377    2.1882539    3.7083356   0.17064062 
   54100   -942.90069     48.91666   -893.98403    1752.0174    37.462266    2.1673651    5.8745895   0.14751861 
   54200   -941.66259    44.473102   -897.18948    1592.8652   -6424.2184    2.1586418    14.080479     0.166148 
   54300   -943.45042    41.312304   -902.13811    1479.6569    3764.3893    2.1814435    13.101595   0.14695122 
   54400    -945.1642    52.249547   -892.91465    1871.3893    1661.9402    2.1767777    16.171479   0.12886438 
   54500   -944.16843    47.085757   -897.08267    1686.4411   -2544.6266    2.1640288    15.493477   0.13038283 
   54600    -943.7921    41.661441   -902.13066    1492.1617   -1262.8918    2.1686788    14.560824    0.1352151 
   54700   -941.83466    48.377658   -893.45701    1732.7123    5850.4933    2.1817507    14.355572   0.15046837 
   54800   -942.77374    48.972739     -893.801    1754.0259    6375.1075    2.1836878    14.379854   0.15501914 
   54900   -944.22946    44.584043   -899.64541    1596.8387   -9302.9964    2.1456671    14.845377   0.13839243 
   55000   -940.33291      46.4969   -893.83602    1665.3503    409.73483    2.1632364    15.264796   0.13202686 
   55100   -936.94834    48.744465   -888.20387    1745.8499    16667.104    2.1977954    16.387088   0.15513655 
   55200   -941.95769    44.654702   -897.30299    1599.3695    -3770.281    2.1623821    15.760383   0.12624303 
   55300   -946.26536    48.548295   -897.71707    1738.8239   -14209.576    2.1376869    21.639038   0.11995325 
   55400   -940.58876    49.841814   -890.74695     1785.153    10129.219    2.1905596    14.677022   0.13917755 
   55500   -940.31912    42.034658   -898.28446     1505.529    7184.3944    2.1903363    14.217913   0.13053375 
   55600   -945.93514    45.236639    -900.6985    1620.2123   -8915.4216    2.1549772    14.545745   0.13445786 
   55700   -943.65108    49.191939   -894.45914    1761.8769   -1593.1751    2.1665789    14.544049   0.13508709 
   55800   -942.49588    44.748604   -897.74728    1602.7327    6742.6242     2.184127    14.185919   0.12491678 
   55900   -946.76608    43.443503   -903.32257    1555.9887    1500.1956    2.1813112    17.746836    0.1302609 
   56000   -940.82153    45.772918   -895.04861    1639.4199   -3395.8028    2.1548874     15.45647    0.1300356 
   56100   -945.09321     49.19823   -895.89498    1762.1022    983.07376     2.173074    12.984499   0.11766896 
   56200   -946.72918    43.962695   -902.76648    1574.5843    4119.6849    2.1889255    15.408647   0.11524741 
   56300   -938.12857    44.949089   -893.17948    1609.9133   -1821.6303    2.1502024    14.963197   0.11614403 
   56400   -940.61604     45.63291   -894.98313    1634.4053    2820.9912     2.167234    14.564973   0.12485191 
   56500   -942.70834    43.131481   -899.57686    1544.8132    6903.0319    2.1847457    13.741553   0.12539239 
   56600   -943.56559    50.217943   -893.34764    1798.6246   -3285.8842    2.1545923    14.351643   0.12605726 
   56700   -939.86963    47.429562   -892.44007    1698.7549   -3356.2957     2.153617    14.326756   0.12980177 
   56800   -940.00722    41.720552   -898.28666    1494.2789    6930.2694    2.1799468     15.71814   0.12590022 
   56900    -942.7854    46.002613   -896.78279    1647.6468    5266.5484    2.1788031    15.063938   0.11737781 
   57000   -938.81065    48.949551    -889.8611    1753.1954   -7656.2057    2.1336017      14.6121   0.12137976 
   57100   -943.66404    43.531077   -900.13297    1559.1253    2620.4374    2.1754864    12.949614   0.11623672 
   57200   -944.62607    47.858586   -896.76748     1714.121    11011.846    2.1953669    14.042412   0.12034869 
   57300   -941.86615    48.935584   -892.93057    1752.6951   -4337.4889    2.1519263    15.352436   0.12737183 
   57400   -941.02669     46.87329    -894.1534    1678.8313   -9664.1963    2.1355916    18.134679   0.12804924 
   57500   -946.75837    46.773649   -899.98472    1675.2625    11055.801    2.2045307    15.613177   0.12148119 
   57600   -942.90379    48.684267   -894.21952    1743.6939    7760.5058    2.1836145    17.884879   0.14119906 
   57700   -941.21545    45.246106   -895.96934    1620.5514   -8928.8153    2.1395058    12.646092   0.13096945 
   57800   -950.47221    46.345219   -904.12699    1659.9177   -1655.8645    2.1796841    13.423555   0.11759852 
   57900   -943.85081    48.640017   -895.21079     1742.109    6400.6799    2.1875027    15.351277   0.13606313 
   58000   -943.37282    48.007752   -895.36507    1719.4636   -543.85586    2.1667836    14.922688   0.12654148 
   58100   -946.65122    45.032518    -901.6187    1612.9015   -5179.5383    2.1633674    14.999719   0.11763694 
   58200   -947.63403    48.798638   -898.83539    1747.7903    4197.1356    2.1854996     14.35387   0.12814492 
   58300   -940.40169    47.265091    -893.1366    1692.8641    4418.8537    2.1733923    17.252996   0.13107643 
   58400   -944.50108    45.212063   -899.28902    1619.3321   -6677.9508    2.1583584    16.332486   0.13812515 
   58500    -944.2514    46.869632   -897.38176    1678.7002    739.41549    2.1738824    17.318919   0.13595644 
   58600    -941.0334    51.167612   -889.86579    1832.6383    2380.8031    2.1713451    15.057052   0.13239496 
   58700   -944.60377    47.007513   -897.59626    1683.6386    -2415.327    2.1680966    15.129057   0.13750092 
   58800   -943.42834    45.419551   -898.00879    1626.7636   -1350.9524    2.1673644    13.849265   0.12788023 
   58900   -939.04426    50.191473   -888.85279    1797.6765    2432.5956    2.1662882    15.007148   0.15297834 
   59000   -945.06295    47.920124   -897.14283     1716.325    5213.8802    2.1867403    14.556035   0.12643359 
   59100   -948.62946    49.670044   -898.95941    1779.0008   -11609.364    2.1509941    14.183323   0.11754062 
   59200   -942.81885    50.252182   -892.56666    1799.8509   -4628.6967    2.1536746    15.221098   0.11176168 
   59300   -947.39157    49.316995   -898.07457    1766.3559    18146.817    2.2210735    15.232537   0.12379056 
   59400   -948.82755    47.903974   -900.92358    1715.7466   -4006.2015    2.1701449    15.283742   0.12183242 
   59500   -943.80934    47.015048   -896.79429    1683.9085   -14070.114    2.1364103      14.8077   0.12722276 
   59600   -939.33581    46.977857   -892.35795    1682.5765    8583.3238    2.1844903    14.731315   0.14420749 
   59700   -948.88278    47.280762   -901.60202    1693.4254    9481.4852    2.2030435    15.554573   0.12227122 
   59800   -946.04171    47.514668   -898.52705    1701.8031   -9526.4603    2.1513622    14.108916    0.1285847 
   59900    -944.5005     50.02413   -894.47637    1791.6829   -4620.1307    2.1596073    17.203999   0.13586221 
   60000   -944.09381    45.853431   -898.24038    1642.3036    7196.2749    2.1914737    13.468922   0.12378873 
   60100    -946.7959    43.015364   -903.78054    1540.6543    1684.9259    2.1817306    14.293694   0.11806579 
   60200   -942.86145    49.296371   -893.56507    1765.6172    -8800.127      2.14424    14.102969   0.12024135 
   60300   -944.28807    48.532894   -895.75518    1738.2722    3700.9497    2.1768298    10.223152   0.13617657 
   60400   -940.63231    41.854425   -898.77788    1499.0737    8617.4701    2.1905308    6.6875691   0.16292707 
   60500   -935.59292    47.829498   -887.76342    1713.0792   -7631.7077    2.1340833    8.9157071   0.17612336 
   60600   -942.71925    48.255345   -894.46391    1728.3315   -832.75302    2.1640449    4.9916481   0.14866057 
   60700   -943.06987    46.472063   -896.59781    1664.4608    6777.7143    2.1836776    3.3736667   0.15717042 
   60800   -938.94862    44.636293   -894.31233    1598.7101    1469.5154    2.1643684     5.624633   0.16994307 
   60900   -938.39123    51.079042   -887.31219     1829.466   -7481.9561    2.1357332    4.5839097   0.16700834 
   61000   -945.04278     48.71044   -896.33234    1744.6313    4321.7096    2.1831312    6.1321317   0.15184327 
   61100   -945.71024    49.486544    -896.2237    1772.4285    3955.3859    2.1820795    4.3170689    0.1481155 
   61200   -941.87257    51.771397   -890.10117    1854.2637   -5605.3809    2.1485317    4.5293815   0.15709734 
   61300    -938.4156    49.444078   -888.97152    1770.9076   -4023.5565    2.1482159    10.799942   0.17414374 
   61400   -944.13125    48.533395   -895.59785    1738.2902    2506.9519    2.1747556    11.953129   0.13713552 
   61500   -944.51632    48.305114   -896.21121     1730.114    84.126442    2.1735809    13.888895    0.1525529 
   61600   -941.10479    43.308712   -897.79608     1551.161   -280.96941    2.1651583    13.217612   0.14278318 
   61700   -947.43414    41.436119   -905.99802    1484.0915    5959.3201    2.1958795    15.326922   0.12558536 
   61800   -944.89158    46.326663   -898.56491    1659.2531   -858.53875      2.17342    16.645933   0.14151506 
   61900   -944.91799    49.079095   -895.83889    1757.8352   -5570.8476    2.1596607    14.676672   0.12487862 
   62000    -944.3182    48.927883   -895.39032    1752.4193   -41.724668    2.1714896    15.712208   0.15112715 
   62100   -947.82674    42.481505   -905.34524    1521.5335    7490.5961     2.204361    15.178538   0.14099034 
   62200    -944.9684    47.445304   -897.52309    1699.3187    -8538.553    2.1520308    13.679709   0.12647967 
   62300   -942.99332    46.992585   -896.00074     1683.104   -4829.6739    2.1576331     15.85422   0.11916619 
   62400   -945.12251    48.091658   -897.03085    1722.4688    11264.777    2.1974151    14.910668   0.12259658 
   62500   -948.61748    42.555628   -906.06186    1524.1883    4255.1717    2.1898841     15.78439   0.12091898 
   62600   -942.67463    46.037555   -896.63708    1648.8983   -16266.968    2.1264776    13.680127   0.13511447 
   62700    -943.7247    48.280875   -895.44383    1729.2459    6415.9744    2.1830952    15.442481   0.12368005 
   62800   -944.94788    47.452897   -897.49498    1699.5907    13090.068    2.2045678    14.235318   0.12288827 
   62900   -947.85079    50.906105   -896.94468    1823.2721   -10435.477    2.1542967    14.904678   0.12952797 
   63000   -940.05986    50.914568   -889.14529    1823.5752   -8499.3974    2.1381581    15.017941   0.14736312 
   63100   -941.36517    46.190231   -895.17494    1654.3666    7556.2205    2.1856047    15.879846   0.13777932 
   63200   -948.33871    50.560738   -897.77797    1810.9023    1740.4413    2.1816164    12.878588   0.12396837 
   63300   -940.62033    48.854303   -891.76602     1749.784   -3389.9357    2.1531835    15.179672   0.11797748 
   63400    -936.9703    46.618343   -890.35196       1669.7    1006.2846    2.1527699    17.579278    0.1348592 
   63500   -946.22333    49.429702   -896.79363    1770.3927    4696.3854    2.1862921    13.891808   0.13319111 
   63600   -942.60716    44.848186   -897.75898    1606.2994    1549.8878    2.1721228    13.896476   0.13145641 
   63700   -936.23756    48.489792   -887.74777    1736.7285   -5223.1257    2.1376151    14.017611   0.14160802 
   63800    -942.6142    47.459343   -895.15486    1699.8216     4631.931    2.1819611    14.267335   0.12923074 
   63900   -944.98177    47.666786   -897.31498    1707.2514    2750.4761    2.1797123    16.633555   0.12577349 
   64000   -941.63459    45.396806   -896.23778     1625.949   -5071.7806    2.1518641    14.554175   0.13184837 
   64100   -940.95762    53.809926    -887.1477    1927.2764    -4082.022    2.1512221    15.049353   0.12061919 
   64200   -942.85915    47.808277   -895.05088    1712.3191    10134.814     2.191354    12.195984   0.12075207 
   64300   -943.01191    45.402715   -897.60919    1626.1606   -8332.5481    2.1484409    15.466465   0.10856731 
   64400   -943.81213     47.08607   -896.72606    1686.4523   -7167.1586    2.1490266    15.481816   0.11077042 
   64500   -947.05656    54.292257    -892.7643    1944.5517    11763.958    2.2008714     15.55453   0.11950035 
   64600   -935.82756     49.95205   -885.87551    1789.1013   -913.98745    2.1482667    14.907936   0.13289817 
   64700   -943.02653    47.203011   -895.82351    1690.6407   -11501.868    2.1390353    13.818438   0.13044543 
   64800   -943.22412     46.52736   -896.69676    1666.4413    6710.1703    2.1868334    14.196146   0.12976471 
   64900   -942.78909    45.840912   -896.94818    1641.8552    5114.1854     2.185206    16.043223   0.13583083 
   65000   -936.96853    50.376894   -886.59164    1804.3176   -5703.5085    2.1421728    18.329305   0.13196889 
   65100   -944.30476    48.279351   -896.02541    1729.1913    810.51746     2.172526    14.976325   0.12045632 
   65200   -942.22838    44.880404   -897.34797    1607.4533    3325.4375    2.1763471    15.344296   0.12295033 
   65300   -940.85035    46.522334   -894.32801    1666.2613    581.13887    2.1680499    15.668983   0.11556935 
   65400   -934.63996    48.400256   -886.23971    1733.5217    -3271.363    2.1453608    16.246451   0.13509281 
   65500   -944.05145    46.765704   -897.28575    1674.9779    5650.0733    2.1875617    14.236471   0.13093572 
   65600   -944.44166    47.413948   -897.02771    1698.1957    947.13148    2.1730221    17.379708   0.12057534 
   65700   -942.84424    48.092751   -894.75149    1722.5079   -6806.2442    2.1525932    15.402692    0.1356396 
   65800   -940.57601    55.593231   -884.98278    1991.1479   -163.92086     2.158769    16.717682     0.150959 
   65900    -943.9304    49.036602    -894.8938    1756.3132    9853.1014    2.1952487    13.789738   0.14454022 
   66000    -945.3303    48.263182   -897.06712    1728.6122   -10889.674    2.1443106    16.870986   0.12736053 
   66100    -944.8231    48.550651   -896.27245    1738.9083   -5955.2484    2.1522349    11.980824   0.11172921 
   66200   -949.53437    46.846937   -902.68743    1677.8874     10821.57    2.2098092    14.397978   0.11770411 
   66300   -946.42126    42.603461    -903.8178    1525.9015    2396.4335     2.184889    14.717388   0.12244172 
   66400   -940.97912    43.032859   -897.94626    1541.2809   -4971.0197    2.1508644    13.045069   0.13132226 
   66500   -944.92348     49.63907   -895.28441    1777.8915    -1349.892    2.1688708    13.082727   0.11711632 
   66600   -949.02326    48.943289   -900.07997    1752.9711    839.02739    2.1822999      16.6465   0.11582659 
   66700   -947.68467      44.0408   -903.64387    1577.3817    765.74089    2.1797818    13.150008   0.11329641 
   66800   -940.26128    44.140497   -896.12078    1580.9525   -1174.4572    2.1612082    14.023325   0.13356991 
   66900   -943.68963     47.55206   -896.13757    1703.1423    959.55759    2.1683587    15.287651      0.12423 
   67000   -951.74633    47.868695   -903.87763    1714.4831   -28.189026      2.18768    13.339736   0.11096956 
   67100   -947.40883    48.143548   -899.26529    1724.3273   -2115.1709    2.1734628    13.808622   0.12215255 
   67200   -944.49062    49.056706   -895.43392    1757.0333   -365.69178    2.1650261    14.257343   0.11583039 
   67300   -944.75325    47.340767   -897.41249    1695.5746   -1655.5796    2.1667207    12.440056   0.12473674 
   67400   -948.19437     44.11854   -904.07583    1580.1661    322.11181    2.1827917    13.485904   0.12364576 
   67500   -944.64589    42.804348   -901.84154    1533.0965    2400.2642    2.1814472     15.42877   0.11744391 
   67600   -941.36497    44.820065   -896.54491    1605.2922    721.43695    2.1674854    14.268352   0.13129325 
   67700   -944.78687    48.025404   -896.76147    1720.0958   -4027.3973    2.1589999    16.496255   0.11207241 
   67800   -942.60388    47.051917   -895.55197     1685.229    3838.5791    2.1771775    14.767061   0.11685242 
   67900   -938.75062    54.582552   -884.16806    1954.9491    2124.1921    2.1610489    16.411228   0.12996759 
   68000   -943.30948    51.082354   -892.22713    1829.5847   -964.86287     2.163025     13.89234   0.12863485 
   68100   -944.94156    48.230016   -896.71155    1727.4243   -4445.1105    2.1584897    13.422866   0.12784557 
   68200   -947.10979    49.653978   -897.45582    1778.4254    2246.5112    2.1793674    12.905991   0.11817961 
   68300   -944.93769    49.219631   -895.71806    1762.8687    4612.7343    2.1837921    16.449021   0.11931172 
   68400   -937.60477    49.378044   -888.22673    1768.5425   -10373.577    2.1285386     14.49549   0.13949298 
   68500    -948.1855    51.532484   -896.65301    1845.7067   -5526.5279    2.1642493    15.597179   0.12387165 
   68600   -944.79044    48.510038   -896.28041    1737.4537     12466.56     2.201092    13.831007   0.12326835 
   68700   -943.08169    45.771431   -897.31026    1639.3667   -1667.2783    2.1625745    15.033318   0.11685772 
   68800   -934.31221     48.53087   -885.78134    1738.1998   -8451.4472    2.1251015    14.703727   0.12706744 
   68900   -942.60686    48.943853   -893.66301    1752.9913    11420.399    2.1918523    14.900902   0.13234687 
   69000   -943.87348    47.104184    -896.7693    1687.1011    2574.6298    2.1758282      13.5408    0.1325932 
   69100   -945.32992    47.996595   -897.33333     1719.064   -9092.2275    2.1508909    13.327835   0.13271174 
   69200   -936.15245    47.404336   -888.74811    1697.8514    2088.1167    2.1671391    17.006988   0.15568584 
   69300   -939.73201    48.588088   -891.14393    1740.2491     4755.103    2.1748552    12.900899   0.13866387 
   69400   -944.09297     47.06654   -897.02643    1685.7528   -5113.5706    2.1565618    16.039447   0.12884927 
   69500   -944.88263    47.944244   -896.93838    1717.1889   -2016.5863     2.168575     15.85982   0.13660751 
   69600   -939.90668     48.97836   -890.92832    1754.2272    6999.7941    2.1819236    13.824334   0.15150981 
   69700   -938.06467     48.10157    -889.9631    1722.8238   -1082.9265    2.1539434     15.76437   0.13510418 
   69800   -944.70097    47.386135   -897.31484    1697.1995   -4122.5813     2.159537    14.138016   0.12212352 
   69900   -940.24847    44.370364   -895.87811    1589.1855    7475.3819    2.1822618    15.686039   0.13931215 
   70000   -938.59647    48.390464   -890.20601    1733.1709    4733.2879    2.1704506     17.28719   0.15486989 
   70100   -940.10176    49.991284   -890.11048    1790.5065   -6249.7615    2.1406367    15.925148   0.13756549 
   70200   -947.76668    50.313672   -897.45301    1802.0533   -836.42074    2.1717663    17.732279   0.12605762 
   70300   -944.07718    48.384037   -895.69315    1732.9407    8035.9862    2.1921658    15.942312   0.14643986 
   70400   -943.31731    47.535932   -895.78138    1702.5647   -2435.4296    2.1638928    11.278681   0.13541318 
   70500   -948.42533    42.393172   -906.03216    1518.3697      -2638.4    2.1797631    15.521453   0.12141006 
   70600   -948.45336    48.548669   -899.90469    1738.8373   -1009.9876    2.1794224    13.364726   0.12821298 
   70700   -942.51636    46.784048   -895.73231    1675.6349    3256.2976    2.1757824    13.426546   0.11783741 
   70800   -944.60252    49.071668   -895.53085    1757.5692   -2318.6561    2.1666956    13.776631   0.12850517 
   70900   -948.14096    42.913141   -905.22782    1536.9931    1095.0858    2.1870327    15.792579   0.13695014 
[...]
  186800     -946.462    51.017343   -895.44466    1827.2562    3324.2584    2.1818206    201.09982   0.14305181 
  186900   -950.60098    46.373474   -904.22751    1660.9297     1399.631    2.1847524    203.60584   0.11681831 
  187000   -945.75972     49.82445   -895.93527    1784.5311   -9058.5139    2.1501009    203.61158   0.12479719 
  187100   -945.12485    50.212332   -894.91252    1798.4236    1839.4682    2.1753395    202.65707   0.12794778 
  187200   -948.42192    47.758905   -900.66302    1710.5508    6110.7449    2.1945303    194.43485   0.11650777 
  187300   -946.48565    47.205133   -899.28051    1690.7167   -5792.3306    2.1616388    192.70932   0.11846876 
  187400   -942.62115    49.505485   -893.11567    1773.1069   -8694.4797    2.1439703    196.79013   0.10708491 
  187500   -942.32498    45.159734   -897.16525    1617.4579    7896.6407    2.1864476    196.53662   0.13636382 
  187600   -942.72818    43.347452   -899.38073    1552.5485    9460.5143    2.1922568    195.06742   0.12652526 
  187700   -938.74919    49.715993   -889.03319    1780.6466   -10053.133    2.1252759     196.5127    0.1255342 
  187800    -945.1702    48.651578   -896.51862    1742.5231   -1033.8514    2.1707026    197.91412   0.13289446 
  187900   -943.34351    46.257029   -897.08648     1656.759    14087.844    2.2052725    187.40391   0.14167293 
  188000   -941.78302    46.780401   -895.00262    1675.5043   -5035.2755    2.1550085    196.04988   0.13821831 
  188100   -935.48344    45.883513   -889.59993     1643.381   -14342.616    2.1182402     191.9655   0.14362964 
  188200   -945.99422    46.309284   -899.68493    1658.6306    14562.205    2.2106189    192.35631   0.12361154 
  188300   -938.46101    42.305096   -896.15592    1515.2151    11562.508    2.1898677    194.22223   0.14631637 
  188400   -941.47867    46.790833   -894.68784    1675.8779   -11648.799    2.1411667    190.40992    0.1395956 
  188500   -947.81211    44.054038   -903.75807    1577.8559   -630.42914    2.1771464    191.60018   0.11666625 
  188600   -943.78657    44.993314   -898.79325    1611.4974    6866.0058     2.188711    192.12007   0.14735331 
  188700   -943.81192    49.429449   -894.38247    1770.3836   -144.37567     2.170771    200.57651   0.14134206 
  188800   -944.58575    44.878538   -899.70721    1607.3865   -4738.1872    2.1608464    192.11305   0.15727416 
  188900   -946.94552    45.611865   -901.33366    1633.6516    2616.0104    2.1838564    203.09964   0.12658203 
  189000    -945.1956    52.594059   -892.60154    1883.7285    1368.3151    2.1701805    198.17846   0.12211817 
  189100   -942.76709     45.10327   -897.66381    1615.4356     -1350.29    2.1636688      206.379    0.1303766 
  189200   -947.65373    46.911379   -900.74235    1680.1955   -2240.4746    2.1712839    197.62195   0.12101086 
  189300   -938.80052    48.509776   -890.29074    1737.4443    4095.5138    2.1626392    205.03455    0.1376554 
  189400    -944.2976    49.438086   -894.85951     1770.693    3753.1163    2.1770812    202.67134    0.1181818 
  189500   -946.64605    46.911554    -899.7345    1680.2017   -4589.0896    2.1605871      196.192   0.11750067 
  189600   -938.79813    46.703052   -892.09508    1672.7339   -967.13369    2.1546042    198.14857   0.14248367 
  189700   -941.11419    48.843723   -892.27047     1749.405    9078.3319    2.1818092    195.25612   0.13782354 
  189800   -945.42928    46.481751   -898.94753    1664.8077   -1876.7316    2.1659693    201.11609   0.11772213 
  189900   -941.07977    45.233495   -895.84627    1620.0998   -5378.7396    2.1502115    206.17627    0.1422663 
  190000     -938.739    49.669685   -889.06932     1778.988    4724.7289    2.1667535    199.60352   0.12190198 
  190100   -944.76713    45.532628   -899.23451    1630.8136    11835.886    2.1967981    191.72984   0.11677961 
  190200   -946.06775    47.772704   -898.29504     1711.045    -12316.91     2.140481    194.78636   0.11238854 
  190300   -940.69008    46.425142   -894.26494    1662.7802     -3491.69     2.149925    199.60503   0.12460701 
  190400   -947.20555    46.001383   -901.20416    1647.6027    12355.321    2.2107973    209.37306   0.13281335 
  190500    -947.6652    46.121456   -901.54375    1651.9033   -277.30862     2.176728    196.25437   0.12222871 
  190600   -944.31407    48.397754   -895.91632     1733.432   -9858.4336    2.1445344    199.26039   0.12583133 
  190700   -943.63204    47.739793   -895.89224    1709.8662    3150.7685    2.1731341    205.41904   0.11772896 
  190800   -945.80163    42.006594   -903.79504    1504.5238    8930.3393    2.1988929    196.43225   0.13337456 
  190900   -941.90811    47.214296   -894.69381    1691.0449   -4305.3387    2.1522472     196.8652   0.12539879 
  191000   -942.86247    47.659523   -895.20294    1706.9913    682.63701     2.162823    204.48468   0.11012875 
  191100   -944.87039    45.267911   -899.60248    1621.3324    3698.1584    2.1798984    194.20939   0.09966875 
  191200    -947.5878    46.937299    -900.6505    1681.1238   -1297.9306     2.171493    198.95112   0.11535692 
  191300   -942.30836    50.499368   -891.80899    1808.7042   -5894.2291    2.1468705    200.29024   0.13181707 
  191400   -946.77699    50.322198   -896.45479    1802.3586    36.150939    2.1708849     192.5906   0.12194098 
  191500   -947.39741    48.563938   -898.83347    1739.3842    2707.0924    2.1801908    194.53742   0.11416375 
  191600   -936.24585    47.256455   -888.98939    1692.5548   -1236.9978    2.1523621    198.45264   0.13759875 
  191700   -943.78686    49.635099   -894.15176    1777.7492   -2258.2204    2.1623676    196.06519   0.12181738 
  191800   -949.13135    50.714966   -898.41639    1816.4262   -1276.7798    2.1720824    193.38066   0.11034355 
  191900    -942.1615    47.565378   -894.59612    1703.6194    3887.7664    2.1696141    199.35971   0.12095635 
  192000   -936.86854    47.927061   -888.94148    1716.5735   -956.27772    2.1471071     196.6596   0.12180871 
  192100    -944.6788    45.750869   -898.92793    1638.6302   -1341.2184    2.1718238    190.13284   0.11542791 
  192200   -945.76715    49.905804   -895.86134    1787.4449     8059.166    2.1904551    198.38697   0.11679004 
  192300   -945.48014    52.657502   -892.82264    1886.0008   -7552.8126    2.1476837    193.70967   0.12140173 
  192400   -938.55601    50.934352   -887.62165    1824.2838   -11051.489     2.125543    201.41282   0.13302472 
  192500   -947.69574    48.784981   -898.91076    1747.3011    15577.112    2.2154575      190.196   0.14670063 
  192600   -941.34535    44.695064   -896.65029    1600.8151    5730.6373    2.1755555    203.98448   0.13886797 
  192700   -945.14037    48.473264   -896.66711    1736.1365   -15812.138    2.1355265    199.52736   0.12724791 
  192800   -949.00395    47.625098   -901.37885    1705.7583     541.9603    2.1814533    196.20083   0.11354758 
  192900     -947.482    44.361831   -903.12017    1588.8799    12872.667    2.2121542    184.38526   0.13482685 
  193000    -944.4399     48.44912   -895.99078    1735.2718   -6453.3302    2.1580448     142.3181   0.15020207 
  193100   -940.96025    45.750671   -895.20958    1638.6231   -8309.7843    2.1437489    149.00372   0.15606081 
  193200   -948.20531    47.702221   -900.50309    1708.5206    5135.2866    2.1911168    147.31365   0.16032338 
  193300   -948.00746    46.755545   -901.25191    1674.6141    7104.0669    2.1968822    152.19067   0.16083708 
  193400   -939.36064    45.048158   -894.31249    1613.4616   -6516.4886    2.1461701    152.68936   0.17028731 
  193500   -943.81749    47.730006   -896.08749    1709.5157   -2626.9489    2.1626065    153.05546   0.15923716 
  193600   -946.69921    45.581252   -901.11796    1632.5552    7281.8861    2.2016809     143.7241   0.15725057 
  193700   -943.46132    52.655005   -890.80631    1885.9113   -5493.7718    2.1552146    154.03363   0.16172168 
  193800   -945.65277    51.747449   -893.90533    1853.4059   -7749.9434    2.1518073      158.404   0.14950608 
  193900   -945.51883    47.345605   -898.17322    1695.7479    1318.2222    2.1740163    154.64133    0.1612224 
  194000   -942.26589    44.206393    -898.0595    1583.3127    4368.3254    2.1802087    144.62856   0.16447037 
  194100   -941.40884    51.786295   -889.62255    1854.7973   -6861.9876    2.1431127    151.77141   0.14423247 
  194200   -940.42061    43.177064   -897.24355    1546.4458   -241.19742    2.1624372    144.91968   0.17182369 
  194300   -946.23078    50.244103   -895.98668    1799.5615    7398.6607    2.1930934    151.20384    0.1622908 
  194400   -936.22777    49.633126   -886.59465    1777.6786    347.65226    2.1501714    156.99673    0.1639452 
  194500   -942.17869    48.782788   -893.39591    1747.2226   -16595.023    2.1226734    149.66021   0.16306808 
  194600    -944.4529    47.457684   -896.99521    1699.7621    3415.6904    2.1811848    143.37583   0.14465026 
  194700   -942.02174    48.468064   -893.55368    1735.9503    15984.678    2.2092738    153.43245   0.16383065 
  194800   -938.12723    47.729437   -890.39779    1709.4953   -12405.054     2.123817    148.94407   0.16749641 
  194900   -945.57018    44.700325   -900.86986    1601.0035   -5943.0816    2.1636428    138.71371   0.15813686 
  195000   -948.48337    52.098857   -896.38451    1865.9921    8123.1143    2.2006031    136.83195   0.12240043 
  195100   -943.54903    48.177352   -895.37168     1725.538   -13.147462    2.1679091    133.07457    0.1195135 
  195200   -940.64293    47.907607   -892.73532    1715.8767   -7328.0594    2.1424878    128.22291    0.1268395 
  195300   -936.08413    53.791231    -882.2929    1926.6068    3573.7547    2.1526182    127.20185   0.12628781 
  195400   -939.85385     47.76514   -892.08871    1710.7741    10673.918    2.1888247    133.51739   0.13406689 
  195500   -939.77412    43.829212   -895.94491    1569.8034    -4158.295    2.1538233     137.2227   0.12595689 
  195600   -946.49083    47.957791   -898.53304    1717.6741   -6510.8145    2.1583857    138.53378   0.10141874 
  195700   -947.50051    45.677859   -901.82266    1636.0153    8870.5218    2.1982795     132.2828   0.12001089 
  195800   -938.28681    47.439872   -890.84694    1699.1242    2337.4044      2.15704    134.56527   0.11796344 
  195900   -942.96986    48.786644   -894.18322    1747.3607   -3556.4761    2.1571041    137.68387   0.12021337 
  196000   -947.24421    49.673429   -897.57078    1779.1221   -278.73086    2.1729927    141.27886   0.13144054 
  196100   -949.48703    50.130043   -899.35699    1795.4764   -1370.8575    2.1769586    136.28992   0.12385316 
  196200   -937.62585    49.234024   -888.39183    1763.3842   -5092.9483    2.1420484    135.40469   0.14062263 
  196300   -939.23473     44.52006   -894.71467    1594.5471    6884.9637    2.1779835    138.82174   0.12532614 
  196400   -945.77088    48.333555   -897.43732    1731.1327    5147.3741    2.1852132    134.60803   0.12364792 
  196500   -941.79332    45.053316      -896.74    1613.6464   -11641.708    2.1399884    135.94572   0.11656496 
  196600    -938.6765    50.335712   -888.34079    1802.8427   -6778.1411    2.1403184    144.49015   0.12577631 
  196700   -944.60228    48.379894   -896.22239    1732.7924    17937.072    2.2148055    130.27461   0.12717846 
  196800   -944.62839    46.478566   -898.14982    1664.6937    -1642.316    2.1677545    137.51318   0.13059255 
  196900   -939.79486    46.582166   -893.21269    1668.4043   -11027.401    2.1300296    136.99468   0.12400851 
  197000   -942.22176    47.095551   -895.12621    1686.7919    5236.1566    2.1780427    133.06179    0.1460817 
  197100   -947.65357    46.771107   -900.88247    1675.1714    11512.495    2.2063887    135.21293    0.1335552 
  197200   -944.55619    48.254285   -896.30191    1728.2935   -4439.3612    2.1553526    135.50307   0.12273627 
  197300   -941.65918    46.726122   -894.93306    1673.5602   -5907.3537    2.1482677    138.69093   0.12574603 
  197400   -951.69248    47.631936   -904.06054    1706.0032    5052.9527    2.1992208     133.7213   0.10330755 
  197500   -943.60053    46.516364   -897.08416    1666.0475    2746.8373    2.1777782    135.78824   0.12083732 
  197600    -941.6125     46.19392   -895.41858    1654.4987   -3201.5411     2.156779    138.93453   0.11615677 
  197700   -946.84598    47.448112   -899.39787    1699.4193   -2475.2992    2.1695816    131.12249    0.1225896 
  197800   -947.56751    43.897987   -903.66952    1572.2667    6798.2665    2.1952693    135.76707   0.14346947 
  197900    -944.8766    51.054708   -893.82189    1828.5945    -4182.634    2.1585209    131.85763   0.13006335 
  198000   -940.67655    43.874341   -896.80221    1571.4198   -2582.6573    2.1593813    130.09137   0.15415906 
  198100   -946.47178    50.909995   -895.56179    1823.4114    2559.2454    2.1832646     133.0209   0.15417342 
  198200    -942.3858    56.495363   -885.89043     2023.459   -3146.9392    2.1557548    147.26694   0.14607957 
  198300   -940.95678    45.656022   -895.30076    1635.2331    -6593.852    2.1505241    183.84062   0.15826351 
  198400   -944.82608    48.682516   -896.14356    1743.6312   -195.08354    2.1712334    195.73852   0.14270613 
  198500   -942.27597    51.217197   -891.05877    1834.4143    10745.826     2.195866    139.17039   0.16961352 
  198600   -934.47921    47.343172   -887.13604    1695.6607   -6354.5769    2.1320685    158.08442   0.15696158 
  198700   -937.20818    40.499795   -896.70838    1450.5558   -4261.6704    2.1516005    161.32953   0.15780425 
  198800   -943.04105    47.542496   -895.49855    1702.7998    9204.7551    2.1904886    156.14107   0.14471402 
  198900   -944.17661    49.362226   -894.81439    1767.9759    2892.0677    2.1784663    139.42442   0.15313563 
  199000   -935.15002    50.036036   -885.11399    1792.1093   -10791.824    2.1173338    145.32542   0.15651562 
  199100   -941.45709     45.51779    -895.9393    1630.2822    4269.3563     2.177108     153.9419   0.15263141 
  199200   -944.85619    49.725263   -895.13092    1780.9786    5489.6822    2.1857104    168.38976   0.16260351 
  199300   -941.08974    48.437138    -892.6526    1734.8426   -2005.3163    2.1559533    153.73249   0.14198609 
  199400   -933.66791    48.183961   -885.48395    1725.7748   -3278.1012    2.1379844    151.44778   0.15408715 
  199500   -943.71533    47.459292   -896.25604    1699.8197    8788.2804    2.1970604     156.9622   0.14538196 
  199600   -943.19424     47.27436   -895.91988    1693.1961    1098.5666    2.1673751    154.77714   0.14220342 
  199700   -937.03372    43.580671   -893.45305    1560.9016   -2995.0685    2.1489664    128.78375   0.13790879 
  199800   -935.71561    50.803576   -884.91204    1819.5999    3091.9603    2.1612256    139.97771   0.17407462 
  199900   -942.66513     47.19042   -895.47471    1690.1897    7492.7109    2.1843241    158.24501    0.1645003 
  200000   -947.24675    51.026243    -896.2205     1827.575   -6380.9125    2.1587596       135.73   0.13940402 
  200100   -939.66849    46.108534   -893.55995    1651.4405    -2270.951    2.1566672    160.57857   0.16511065 
  200200    -933.2893    49.842336   -883.44697    1785.1717    4118.8561    2.1568227     156.0114   0.16701128 
  200300    -941.3368    48.959711   -892.37709    1753.5593    3663.8986     2.172184    145.77631   0.16091607 
  200400   -945.88838    50.128482    -895.7599    1795.4204   -6481.7626    2.1510479    157.75165   0.14628882 
  200500   -943.10684    46.711907   -896.39494    1673.0511    1687.2287      2.16674    168.34709    0.1588084 
  200600   -947.12666    45.921562    -901.2051    1644.7438    4313.6249     2.185228    149.94095     0.159337 
  200700   -949.19416    44.688976   -904.50519    1600.5971    1291.0065    2.1837825     148.3082   0.14198491 
  200800   -945.69937    49.233492   -896.46588    1763.3651   -1949.2381    2.1610952    145.68491   0.14073883 
  200900   -942.65156    47.827129   -894.82443    1712.9943     -204.514    2.1634004    155.05149   0.13050794 
  201000   -944.28355    45.796574   -898.48698    1640.2672    1228.4315    2.1730721    155.87703   0.14432278 
  201100   -946.96004    43.283363   -903.67667    1550.2531    3101.7656    2.1832189    146.65742   0.13372297 
  201200   -943.62195    48.650199   -894.97175    1742.4737   -2688.5213    2.1588737    151.70387   0.13222592 
  201300   -944.89228    49.552566   -895.33971    1774.7932   -4356.7103    2.1598117     152.4641   0.15592249 
  201400   -944.86501    42.475742   -902.38927     1521.327     3724.896    2.1828687    144.45528   0.15787017 
  201500   -946.09171    46.786805   -899.30491    1675.7337    3633.8172    2.1788924    144.12491   0.13899697 
  201600   -942.82219    48.420329   -894.40187    1734.2406   -1237.3224    2.1652723    149.11158    0.1572718 
  201700   -939.53152    43.024847   -896.50667     1540.994   -388.46466     2.165611    158.32054   0.14128785 
  201800   -949.36236    46.651157   -902.71121    1670.8753    2378.5885    2.1861859    138.86491    0.1439731 
  201900   -947.78395    47.916895   -899.86705    1716.2094    1354.0778    2.1842229     146.7039   0.15215746 
  202000   -942.25035    47.470981   -894.77937    1700.2384   -1195.0489    2.1619255    156.16117   0.15360782 
  202100   -943.10674    47.012106   -896.09463    1683.8031   -3080.4515    2.1630002    143.85179   0.14694408 
  202200   -948.73626    48.547821   -900.18844    1738.8069   -591.29021    2.1787239    148.86651   0.14133224 
  202300   -952.19941    46.796025   -905.40338    1676.0639    722.40874    2.1899888    145.77197   0.14342718 
  202400   -941.23839    45.470079   -895.76832    1628.5733   -6015.1296    2.1529312    146.44712   0.16187653 
  202500   -942.80445    47.191748    -895.6127    1690.2373   -4389.2076    2.1589513    142.87817    0.1413054 
  202600   -945.09419    50.022486    -895.0717    1791.6241    5158.6698    2.1830385    153.94131     0.148862 
  202700   -939.61541    55.816134   -883.79927    1999.1315   -4567.6842    2.1447601     135.6032   0.13119383 
  202800   -939.39315    46.431091   -892.96206    1662.9933    132.24482    2.1604395    144.96712   0.13783766 
  202900   -942.69863    47.908122   -894.79051    1715.8952    4564.9508    2.1729842    175.95646   0.14215537 
  203000   -945.71912    48.203318    -897.5158     1726.468   -1800.7109    2.1690062    153.82206   0.14832306 
  203100   -947.19314    44.819384   -902.37375    1605.2678   -6158.9746    2.1598355    149.85477   0.13723815 
  203200   -950.16862    45.943093   -904.22553     1645.515    6493.0227    2.1975239    154.94712   0.13299645 
Loop time of 141.176 on 1 procs for 200000 steps with 217 atoms

Performance: 367.202 ns/day, 0.065 hours/ns, 1416.673 timesteps/s
100.0% CPU use with 1 MPI tasks x no OpenMP threads

MPI task timing breakdown:
Section |  min time  |  avg time  |  max time  |%varavg| %total
---------------------------------------------------------------
Pair    | 135.59     | 135.59     | 135.59     |   0.0 | 96.04
Neigh   | 2.4531     | 2.4531     | 2.4531     |   0.0 |  1.74
Comm    | 0.9247     | 0.9247     | 0.9247     |   0.0 |  0.66
Output  | 0.068988   | 0.068988   | 0.068988   |   0.0 |  0.05
Modify  | 1.8414     | 1.8414     | 1.8414     |   0.0 |  1.30
Other   |            | 0.3007     |            |       |  0.21

Nlocal:    217 ave 217 max 217 min
Histogram: 1 0 0 0 0 0 0 0 0 0
Nghost:    957 ave 957 max 957 min
Histogram: 1 0 0 0 0 0 0 0 0 0
Neighs:    4187 ave 4187 max 4187 min
Histogram: 1 0 0 0 0 0 0 0 0 0
FullNghs:  8374 ave 8374 max 8374 min
Histogram: 1 0 0 0 0 0 0 0 0 0

Total # of neighbors = 8374
Ave neighs/atom = 38.5899
Neighbor list builds = 4166
Dangerous builds = 54
Total wall time: 0:02:23
