LAMMPS (3 Mar 2020)
Reading data file ...
  orthogonal box = (0 0 0) to (17.469 17.469 17.469)
  1 by 1 by 1 MPI processor grid
  reading atoms ...
  217 atoms
  read_data CPU = 0.00104983 secs
Reading potential file library.meam with DATE: 2012-06-29
Reading potential file LiSi.meam with DATE: 2020-11-07
1 atoms in group Li
216 atoms in group Si
Neighbor list info ...
  update every 1 steps, delay 10 steps, check yes
  max neighbors/atom: 2000, page size: 100000
  master list distance cutoff = 6
  ghost atom cutoff = 6
  binsize = 3, bins = 6 6 6
  2 neighbor lists, perpetual/occasional/extra = 2 0 0
  (1) pair meam/c, perpetual
      attributes: full, newton on
      pair build: full/bin/atomonly
      stencil: full/bin/3d
      bin: standard
  (2) pair meam/c, perpetual, half/full from (1)
      attributes: half, newton on
      pair build: halffull/newton
      stencil: none
      bin: none
Setting up Verlet run ...
  Unit style    : metal
  Current step  : 0
  Time step     : 0.003
Per MPI rank memory allocation (min/avg/max) = 8.895 | 8.895 | 8.895 Mbytes
Step Temp E_pair E_mol TotEng Press Volume 
       0         1600   -951.06911            0    -906.3968   -115301.13    5330.9442 
    3200    1632.2872   -951.82264            0   -906.24887   -1888.7705    4618.1114 
Loop time of 2.4248 on 1 procs for 3200 steps with 217 atoms

Performance: 342.066 ns/day, 0.070 hours/ns, 1319.698 timesteps/s
100.0% CPU use with 1 MPI tasks x no OpenMP threads

MPI task timing breakdown:
Section |  min time  |  avg time  |  max time  |%varavg| %total
---------------------------------------------------------------
Pair    | 2.3363     | 2.3363     | 2.3363     |   0.0 | 96.35
Neigh   | 0.035932   | 0.035932   | 0.035932   |   0.0 |  1.48
Comm    | 0.015265   | 0.015265   | 0.015265   |   0.0 |  0.63
Output  | 2.4484e-05 | 2.4484e-05 | 2.4484e-05 |   0.0 |  0.00
Modify  | 0.031869   | 0.031869   | 0.031869   |   0.0 |  1.31
Other   |            | 0.005399   |            |       |  0.22

Nlocal:    217 ave 217 max 217 min
Histogram: 1 0 0 0 0 0 0 0 0 0
Nghost:    957 ave 957 max 957 min
Histogram: 1 0 0 0 0 0 0 0 0 0
Neighs:    4180 ave 4180 max 4180 min
Histogram: 1 0 0 0 0 0 0 0 0 0
FullNghs:  8360 ave 8360 max 8360 min
Histogram: 1 0 0 0 0 0 0 0 0 0

Total # of neighbors = 8360
Ave neighs/atom = 38.5253
Neighbor list builds = 57
Dangerous builds = 1
Setting up Verlet run ...
  Unit style    : metal
  Current step  : 3200
  Time step     : 0.003
Per MPI rank memory allocation (min/avg/max) = 9.664 | 9.664 | 9.664 Mbytes
Step PotEng KinEng TotEng Temp Press Density c_msdli[4] c_msdsi[4] 
    3200   -951.82264    45.573771   -906.24887    1632.2872   -1888.7705    2.1838599            0 7.084569e-32 
    3300   -946.64239    47.298567   -899.34383    1694.0631    3328.0185    2.1838599   0.20562376   0.10207058 
    3400   -944.62625    44.948933   -899.67731    1609.9078    5248.0308    2.1838599   0.18108029    0.1047397 
    3500   -945.12472    41.004134   -904.12059    1468.6194    4171.4988    2.1838599   0.14774712   0.09238791 
    3600    -949.1153    44.524123   -904.59118    1594.6926    1921.3027    2.1838599 0.0016064396   0.09792819 
    3700   -943.39331    44.965468   -898.42784       1610.5    6680.7098    2.1838599  0.041218605   0.10357337 
    3800   -949.10455    42.561481   -906.54307    1524.3979    637.09027    2.1838599   0.28666568  0.093086455 
    3900   -950.12319    45.532772   -904.59041    1630.8188   -458.60634    2.1838599   0.15042645   0.11447387 
    4000   -947.60671    45.471176   -902.13553    1628.6126    4116.1711    2.1838599   0.28890045  0.099334188 
    4100   -950.69691    47.002164   -903.69474    1683.4471    1178.0292    2.1838599   0.20238435  0.086993325 
    4200   -951.48515    41.768475   -909.71668    1495.9953   -2321.1312    2.1838599  0.066925407  0.098885644 
    4300    -944.0049    40.687935   -903.31697    1457.2943    4072.3528    2.1838599    0.3806677  0.088509639 
    4400   -947.76609    45.887468   -901.87862    1643.5227    3266.3397    2.1838599   0.23484473   0.11931731 
    4500   -951.55739    41.185428   -910.37196    1475.1127   -2703.3959    2.1838599   0.35076187   0.10395846 
    4600   -947.07448    43.136537   -903.93795    1544.9943    1479.5925    2.1838599  0.099863433  0.099543864 
    4700   -946.59709    44.059314   -902.53777    1578.0449    4233.8908    2.1838599  0.089778235   0.11121206 
    4800   -951.01443    45.873368   -905.14106    1643.0177    966.72077    2.1838599   0.22327393   0.10744812 
    4900   -947.26587    41.453493   -905.81238    1484.7138    1368.2354    2.1838599  0.034522383   0.11175331 
    5000   -941.51635    43.154104   -898.36225    1545.6235    6335.2794    2.1838599   0.16607438    0.1191193 
    5100   -949.16066    42.161663     -906.999    1510.0779    1059.0625    2.1838599   0.38304032   0.10228618 
    5200   -945.59578       41.169   -904.42678    1474.5243    2959.4674    2.1838599   0.28226312  0.082954244 
    5300   -946.22158     46.67608    -899.5455    1671.7679    3499.2818    2.1838599   0.17324844   0.10667401 
    5400   -950.18818    42.413061   -907.77512     1519.082    818.88793    2.1838599  0.071802419    0.1051239 
    5500   -947.99745    44.586493   -903.41096    1596.9265     1158.766    2.1838599 0.0091709399   0.11364044 
    5600   -947.28446    46.309258    -900.9752    1658.6297    2976.2127    2.1838599    0.1460236   0.11765282 
    5700   -948.86444    44.542154   -904.32229    1595.3384    1790.6057    2.1838599   0.19574907  0.097081668 
    5800    -946.3062    44.427038   -901.87916    1591.2154    3769.2835    2.1838599   0.10001091   0.10739894 
    5900   -945.75511    46.123128   -899.63198    1651.9632    4878.2417    2.1838599  0.071297583   0.13035973 
    6000   -944.90596    38.075443   -906.83052    1363.7243    2677.0552    2.1838599   0.35532838   0.12626387 
    6100   -946.56208     47.12016   -899.44192    1687.6732    5605.6804    2.1838599   0.14628231   0.11200973 
    6200   -945.40758    46.641432   -898.76614    1670.5269    4980.1938    2.1838599   0.43308822   0.10308617 
    6300   -950.60872    45.198032   -905.41068    1618.8296    1638.6438    2.1838599   0.20904497   0.10021601 
    6400    -947.0729    44.674235   -902.39866    1600.0691     4045.952    2.1838599  0.038992894   0.11975569 
    6500   -946.73887    47.653179   -899.08569    1706.7641    3741.7637    2.1838599  0.027649221    0.1357245 
    6600   -948.52748    43.415717   -905.11176    1554.9935    2032.6014    2.1838599  0.098088281   0.11631015 
    6700   -949.72585    47.428485   -902.29736    1698.7163     1473.739    2.1838599   0.10636232   0.11111675 
    6800   -944.39158    50.198946   -894.19263    1797.9442    8300.7963    2.1838599   0.10717445   0.11148205 
    6900   -946.98197    42.949086   -904.03288    1538.2805    1674.0783    2.1838599   0.10418552     0.116171 
    7000   -945.00963    40.961271   -904.04836    1467.0842    3713.6333    2.1838599  0.066959174   0.13091922 
    7100   -945.74669    47.994215   -897.75247    1718.9787    5717.0631    2.1838599   0.23930058   0.10876627 
    7200   -950.98639    46.030371   -904.95602     1648.641    235.18517    2.1838599  0.025969026   0.10050901 
    7300   -949.50991    44.572467   -904.93744    1596.4241    206.10319    2.1838599  0.019857245   0.10911165 
    7400   -947.61571    49.411214   -898.20449    1769.7305    3579.0145    2.1838599   0.10870701   0.12659049 
    7500   -953.12163    45.054141   -908.06749    1613.6759    -3203.192    2.1838599   0.09732799   0.13392268 
    7600   -946.37711    43.503199   -902.87391    1558.1268    2933.4933    2.1838599    0.1235956   0.12321309 
    7700   -946.75181    45.959309    -900.7925    1646.0958    4045.0725    2.1838599  0.060713992   0.09923504 
    7800   -951.82012    41.114106   -910.70601    1472.5582   -1202.3049    2.1838599  0.059764886   0.10710983 
    7900   -951.83418    46.719288   -905.11489    1673.3155   -732.25249    2.1838599   0.27222475   0.11485623 
    8000   -945.38524    44.820105   -900.56513    1605.2936    4249.7093    2.1838599   0.41674211   0.12565476 
    8100   -951.16938    41.875361   -909.29401    1499.8236   -1101.3525    2.1838599  0.046527818   0.10585368 
    8200   -947.98437    43.184375   -904.79999    1546.7077    2872.4223    2.1838599   0.15063655   0.10297123 
    8300   -946.92998    44.459308   -902.47068    1592.3712    2768.4237    2.1838599 0.0077320569   0.11673933 
    8400   -950.01954     43.44023   -906.57931    1555.8715   -1241.5322    2.1838599  0.066971411   0.12817689 
    8500   -949.71966    41.550869   -908.16879    1488.2014   -786.50458    2.1838599   0.47358647    0.1267233 
    8600   -949.38787    47.827483   -901.56038     1713.007    2212.3799    2.1838599  0.091561436   0.11835913 
    8700   -948.87724    43.379915   -905.49733    1553.7113    771.62324    2.1838599   0.43029984   0.10443351 
    8800    -950.7398    41.072601    -909.6672    1471.0716   -2646.1179    2.1838599   0.24436543   0.10315853 
    8900    -948.0009    47.328303    -900.6726    1695.1282    883.56493    2.1838599   0.10573969   0.12328959 
    9000   -948.83432    43.522604   -905.31172    1558.8218   -413.99502    2.1838599  0.029999414   0.11449645 
    9100   -950.59697    43.354675    -907.2423    1552.8072   -2430.0229    2.1838599   0.16370983   0.11638086 
    9200   -944.51073    45.492769   -899.01796     1629.386    4385.0006    2.1838599  0.063991096    0.1234921 
    9300   -950.18648    43.882022   -906.30446    1571.6949    586.55323    2.1838599  0.089628151    0.1056336 
    9400   -947.78019    43.053778   -904.72641    1542.0302   -162.05064    2.1838599   0.23381176   0.11758281 
    9500   -950.31762    47.265518   -903.05211    1692.8795   -1649.9331    2.1838599  0.047524435   0.13061156 
    9600   -945.99045    45.051679   -900.93877    1613.5878    4264.9667    2.1838599   0.46720479   0.11202544 
    9700   -948.52754    43.666509   -904.86103     1563.976    461.30746    2.1838599   0.45178933   0.10103481 
    9800   -949.16158    42.489032   -906.67255     1521.803    305.46769    2.1838599  0.083022191   0.10745423 
    9900   -945.42144    46.672145    -898.7493     1671.627    5550.5017    2.1838599  0.086533967   0.11601184 
   10000   -949.67082    44.260017    -905.4108    1585.2333   -153.92794    2.1838599    0.1579509   0.11952637 
   10100   -948.07025     43.20254   -904.86771    1547.3583    1717.3765    2.1838599    0.2222966   0.12116192 
   10200   -947.95194     45.59716   -902.35478    1633.1249    2537.0242    2.1838599    0.1920009   0.10823058 
   10300   -948.97434    50.905385   -898.06896    1823.2463    1927.3837    2.1838599   0.04839324   0.11251587 
   10400   -947.84336     43.49036   -904.35301     1557.667    1974.0935    2.1838599  0.031674454   0.11998937 
   10500   -949.70383    44.241576   -905.46225    1584.5728     -1570.05    2.1838599  0.098730464   0.13332617 
   10600   -945.80103    49.739709   -896.06132     1781.496    4535.2119    2.1838599  0.081904332   0.12390041 
   10700   -947.26316    46.864415   -900.39874    1678.5134    3475.3136    2.1838599   0.05419342   0.10771956 
   10800   -947.51982    41.065329    -906.4545    1470.8112    1510.9839    2.1838599   0.29222483   0.10775228 
   10900   -947.78794    48.357524   -899.43042    1731.9911    3017.3916    2.1838599  0.021121212   0.11616708 
   11000   -947.91104    47.217051   -900.69399    1691.1435    2862.2039    2.1838599  0.044498188   0.11860629 
   11100   -948.96761    44.813639   -904.15397     1605.062    2200.4024    2.1838599  0.076210945   0.11419949 
   11200   -947.42033    45.166824   -902.25351    1617.7119    1992.8877    2.1838599   0.15133281   0.10427735 
   11300   -940.86508    45.185198   -895.67988    1618.3699    6955.5108    2.1838599  0.090175915   0.11540578 
   11400   -950.15977    45.714587   -904.44518    1637.3307   -206.12449    2.1838599   0.14750153   0.10684234 
   11500   -950.11612    47.118679   -902.99744    1687.6202    32.473873    2.1838599  0.019748222   0.10913991 
   11600    -946.5829    51.100853   -895.48204    1830.2472    2778.9674    2.1838599   0.25329668   0.12727775 
   11700   -949.39575    44.106171   -905.28958    1579.7231    1184.6346    2.1838599   0.14079737   0.11006528 
   11800   -948.60172    46.422107   -902.17962    1662.6715   -284.91355    2.1838599  0.077564853   0.11560333 
   11900    -943.4665    46.329402    -897.1371    1659.3512    5214.3251    2.1838599  0.082407113   0.11888722 
   12000   -953.28821    46.496444   -906.79176     1665.334   -2781.3835    2.1838599  0.061095288   0.11130578 
   12100   -946.84743    45.555637    -901.2918    1631.6377    1534.6378    2.1838599  0.078763861   0.11185197 
   12200   -945.87947    46.095637   -899.78383    1650.9785    3412.3431    2.1838599   0.29617667   0.11470625 
   12300   -944.16974    41.375756   -902.79399    1481.9295    3293.1745    2.1838599    0.2379537   0.10515471 
   12400   -951.02761    44.967643   -906.05996    1610.5779   -2259.7348    2.1838599  0.083552058   0.10025162 
   12500   -948.34745     44.96467   -903.38278    1610.4714     1600.794    2.1838599  0.062345254   0.12254063 
   12600   -943.82886    44.697964    -899.1309     1600.919    4704.8338    2.1838599  0.044167601    0.1259508 
   12700   -953.27162    45.624116    -907.6475    1634.0904   -711.94686    2.1838599  0.077599787   0.10406768 
   12800   -945.45519    42.582352   -902.87284    1525.1454    3945.7384    2.1838599   0.21002098   0.10334456 
   12900   -948.52222    47.563044   -900.95918    1703.5357    2103.2143    2.1838599   0.20340547   0.11086147 
   13000   -952.00513    42.933428    -909.0717    1537.7197   -1904.4799    2.1838599  0.081077546   0.10217485 
   13100   -948.13853    46.923421   -901.21511    1680.6268    1728.4904    2.1838599   0.31218251   0.12123995 
   13200   -946.50012    43.832708   -902.66742    1569.9287    3802.4296    2.1838599   0.12295756     0.109826 
   13300   -948.62164    35.710933   -912.91071    1279.0361   -957.55579    2.1838599   0.19369623   0.10489992 
   13400   -949.40785     42.35523   -907.05262    1517.0107   -776.35577    2.1838599   0.24969083   0.10271426 
   13500   -946.27022      45.5258   -900.74442    1630.5691    4214.4086    2.1838599  0.066555305   0.10876088 
   13600    -947.6235    41.849027   -905.77447    1498.8804    782.44055    2.1838599  0.055172693   0.12570873 
   13700   -952.31404    45.133947    -907.1801    1616.5343   -1421.7663    2.1838599  0.026616844   0.11214338 
   13800   -948.07192    46.027011   -902.04491    1648.5206    1950.3963    2.1838599   0.12687069  0.097465477 
   13900   -952.20366    48.179023   -904.02464    1725.5979   -1671.0608    2.1838599  0.059411272    0.1015133 
   14000   -952.36655    41.377641    -910.9889     1481.997    -2192.107    2.1838599   0.38243542   0.10619891 
   14100   -949.83905    47.359838   -902.47921    1696.2577    1953.7688    2.1838599   0.15521678  0.098237546 
   14200   -950.70775    47.925598   -902.78216    1716.5211   -155.35739    2.1838599  0.096615716   0.10114848 
   14300   -950.76229    41.426629   -909.33566    1483.7516   -1649.5788    2.1838599   0.19603637   0.11280338 
   14400   -947.80958    46.166206   -901.64337    1653.5061    2837.5125    2.1838599  0.013584441   0.10308588 
   14500   -949.91554    48.043621   -901.87192    1720.7483    220.50866    2.1838599   0.20857898   0.11316892 
   14600    -951.6457     42.90858   -908.73712    1536.8297   -3187.0613    2.1838599  0.044938787    0.1215292 
   14700    -949.5109    46.516396   -902.99451    1666.0486   -970.42573    2.1838599   0.31747613   0.10722221 
   14800   -945.29361    44.928617   -900.36499    1609.1801    2815.9175    2.1838599   0.18336329   0.11549457 
   14900   -954.03907     45.84781   -908.19126    1642.1023   -4852.0596    2.1838599   0.30655651   0.10398658 
   15000    -946.0792    41.568853   -904.51034    1488.8456    2726.4537    2.1838599   0.22548731   0.10809607 
   15100   -947.79041    46.039106    -901.7513    1648.9538    1429.4698    2.1838599   0.20377717   0.10115024 
   15200   -944.37741    45.559346   -898.81807    1631.7706    4410.2496    2.1838599   0.16855806     0.118227 
   15300   -947.18413    40.759793   -906.42434     1459.868   -1234.7778    2.1838599   0.16947429   0.11212116 
   15400   -947.80113    44.921629   -902.87951    1608.9299   -13.141937    2.1838599   0.45217873   0.12506581 
   15500    -942.2658     43.12473   -899.14107    1544.5714    3446.7854    2.1838599    0.1972185    0.1341532 
   15600   -948.32071    43.380526   -904.94018    1553.7331   -1485.3991    2.1838599  0.012731797   0.12732979 
   15700   -946.00172    42.104766   -903.89695      1508.04    11.715271    2.1838599   0.44551722   0.13810963 
   15800   -942.92696      44.9205   -898.00646    1608.8894    4854.9847    2.1838599   0.18308196   0.10934769 
   15900   -948.33861    42.139834   -906.19878     1509.296    368.81434    2.1838599   0.49298441   0.11204843 
   16000   -944.77193    41.260242   -903.51168    1477.7922    1931.3405    2.1838599   0.25946873    0.1165975 
   16100   -950.40958    48.614551   -901.79503    1741.1969   -2298.0887    2.1838599   0.32797686   0.11622236 
   16200   -947.46543    44.481306   -902.98413    1593.1591    164.18555    2.1838599  0.089286668   0.12544835 
   16300   -949.09142    43.207759   -905.88366    1547.5452   -2461.8785    2.1838599   0.12492938   0.12418485 
   16400   -948.21284    44.324759   -903.88808    1587.5521    -207.8457    2.1838599  0.089911679    0.1097077 
   16500   -944.18172    45.256953   -898.92477    1620.9399    4477.4805    2.1838599   0.16725718   0.11971179 
   16600   -948.62253    40.606613   -908.01592    1454.3816   -1175.8961    2.1838599  0.098171007    0.1146828 
   16700   -947.95622    44.131186   -903.82503     1580.619    655.58283    2.1838599  0.044659247   0.11539625 
   16800    -948.0136    48.213898    -899.7997     1726.847    323.78179    2.1838599  0.090416721   0.12237342 
   16900    -950.8704    41.785104   -909.08529    1496.5909   -2186.5459    2.1838599   0.15997485   0.10905793 
   17000   -948.11723    45.110879   -903.00635    1615.7081    1203.0182    2.1838599   0.15495722    0.1123211 
   17100   -945.29896    43.373284   -901.92568    1553.4737    1724.1414    2.1838599   0.14759795    0.1215498 
   17200   -952.90616    44.296217   -908.60995    1586.5299   -4325.3955    2.1838599  0.070881436   0.11452017 
   17300   -949.03032    41.224593   -907.80572    1476.5154   -996.43504    2.1838599  0.023373218   0.12368903 
   17400   -943.93052    41.632834   -902.29768    1491.1371    2866.3052    2.1838599   0.16925485   0.13131834 
   17500   -945.40758    44.132904   -901.27467    1580.6806    1330.1335    2.1838599    0.0895951   0.12894892 
   17600   -948.23786    39.925862     -908.312    1429.9996   -621.93866    2.1838599    0.1194678    0.1309235 
   17700    -946.3491    46.282248   -900.06685    1657.6623    2443.0721    2.1838599 0.0052989881   0.11186898 
   17800   -945.85519     43.86073   -901.99446    1570.9323    1906.4374    2.1838599  0.012757057   0.11834239 
   17900   -949.56549    43.219389    -906.3461    1547.9618   -956.33644    2.1838599   0.12964004   0.10635654 
   18000   -945.46845    45.506557   -899.96189    1629.8799    3545.3928    2.1838599   0.05135884   0.10410512 
   18100   -944.93871     42.77962   -902.15909    1532.2109    1795.7598    2.1838599  0.061383758    0.1349652 
   18200   -950.13381    43.871743   -906.26207    1571.3267    113.23467    2.1838599  0.021837151   0.12018569 
   18300   -947.55969    45.472506   -902.08718    1628.6602    1842.0808    2.1838599  0.011284518   0.11909239 
   18400   -949.26201    46.452442   -902.80957     1663.758    518.67834    2.1838599  0.064790438   0.11145823 
   18500   -952.30733    46.419798   -905.88753    1662.5888   -3649.8907    2.1838599  0.078434252   0.10151896 
   18600   -949.13039    42.768596    -906.3618     1531.816   -508.55187    2.1838599   0.27220826   0.11527202 
   18700   -946.67093    47.304639   -899.36629    1694.2806    2392.4604    2.1838599  0.012784501   0.12100568 
   18800   -948.18102    40.977845   -907.20317    1467.6778   -443.90973    2.1838599   0.10507519   0.11535822 
   18900   -950.78266    43.817101   -906.96556    1569.3696   -1031.3728    2.1838599    0.3913158   0.10474128 
   19000   -945.82226    45.059867   -900.76239     1613.881    2786.4053    2.1838599   0.23218793   0.11835623 
   19100    -945.6082    42.269561   -903.33864    1513.9424    1232.3907    2.1838599   0.13709101   0.10874222 
   19200   -949.78968    42.394216   -907.39547    1518.4071   -293.65646    2.1838599   0.18500563   0.11393349 
   19300   -945.88798    45.038958   -900.84902    1613.1321    2766.8436    2.1838599  0.069003853   0.11765721 
   19400   -946.83526    43.887106   -902.94816     1571.877    1007.9694    2.1838599  0.038662461   0.10135712 
   19500   -951.29121    41.300669   -909.99054    1479.2402   -2762.5332    2.1838599    0.1069521   0.11237866 
   19600   -948.11673    41.735988   -906.38074    1494.8317    78.539199    2.1838599  0.079414652   0.10804519 
   19700   -946.68157    44.733336   -901.94824    1602.1859    3337.3447    2.1838599   0.41887558   0.10771013 
   19800   -945.41787    41.978213   -903.43965    1503.5074    1091.2068    2.1838599   0.18534734    0.1205563 
   19900   -951.83852     43.23975   -908.59877     1548.691   -4134.1563    2.1838599   0.51225439   0.11861908 
   20000   -946.46264    46.961143    -899.5015    1681.9778    2795.8933    2.1838599  0.043611282   0.12437408 
   20100   -950.00808    45.661265   -904.34681    1635.4209   -1385.9763    2.1838599   0.24639543   0.12016891 
   20200   -949.47087    44.076574   -905.39429     1578.663    1214.8971    2.1838599   0.29902906    0.1202905 
   20300   -945.70345    48.099963   -897.60349    1722.7662    4664.8693    2.1838599   0.18038035   0.13149291 
   20400   -947.35355    42.040377   -905.31318    1505.7339    4891.9347    2.1838599    1.8273098     0.133689 
   20500   -945.30941    42.922106    -902.3873    1537.3142    3152.1678    2.1838599    5.3263877    0.1435342 
   20600   -948.10321    47.738722   -900.36449    1709.8279    3310.0583    2.1838599    6.3146132   0.14039688 
   20700   -948.11579     44.52745   -903.58834    1594.8118    2257.8185    2.1838599    6.2300745   0.13271798 
   20800    -948.9091    43.463944   -905.44515    1556.7209    537.15886    2.1838599    6.8541422    0.1349661 
   20900   -947.63045    50.507328   -897.12313    1808.9893    3293.0923    2.1838599      7.31212   0.14828206 
   21000    -947.4508    43.290174   -904.16063     1550.497    2403.9992    2.1838599    3.5276714   0.12902708 
   21100   -946.41856    43.676177   -902.74238    1564.3223    4636.5932    2.1838599    10.133917   0.12329156 
   21200   -944.21404    46.481343   -897.73269    1664.7931    4661.7044    2.1838599    4.6371139   0.13669868 
   21300   -947.88261     42.67387   -905.20874    1528.4233    3406.2475    2.1838599    3.7937818   0.11949978 
   21400   -947.65268    44.209717   -903.44296    1583.4317    3501.5553    2.1838599    3.9848432   0.11960029 
   21500   -941.61345     43.94056   -897.67289    1573.7915    9586.6002    2.1838599    7.8706799   0.14083717 
   21600    -943.3623    41.601433   -901.76086    1490.0125    5613.8077    2.1838599    6.5729292   0.13658987 
   21700   -949.37213    43.964624   -905.40751    1574.6534    1972.2848    2.1838599    6.8851055   0.13006684 
   21800   -946.92671    44.599291   -902.32742    1597.3848     3937.772    2.1838599    7.2625719    0.1359802 
   21900   -946.77517     47.76867    -899.0065    1710.9005    4546.6859    2.1838599    4.8015906   0.13142879 
   22000   -949.88391    42.494401   -907.38951    1521.9953   -179.42547    2.1838599     4.391256   0.14575103 
   22100   -947.66541    45.647665   -902.01775    1634.9338    3369.8757    2.1838599    7.1301158   0.13164476 
   22200   -949.20865    48.083397   -901.12525    1722.1729     2233.226    2.1838599    6.3060492   0.13592205 
   22300   -954.09065    42.791801   -911.29885    1532.6471   -3842.3801    2.1838599    6.7745049   0.13519296 
   22400   -947.44256    44.900712   -902.54185    1608.1807    875.83594    2.1838599    6.2867046   0.14837875 
   22500   -946.38335    46.618842    -899.7645    1669.7179    3871.8004    2.1838599    6.9257269   0.15000652 
   22600    -947.7911    39.426525   -908.36457    1412.1151   -56.609374    2.1838599    4.4204077   0.13511291 
   22700   -947.30208    43.953793   -903.34829    1574.2655    2585.6183    2.1838599    7.3107043    0.1391588 
   22800   -948.74701     47.74876   -900.99825    1710.1874     2415.999    2.1838599    7.8092785   0.12889139 
   22900   -947.89939     40.35933   -907.54006    1445.5248   -624.97231    2.1838599    8.5066087   0.14327385 
   23000   -948.05537    43.771826   -904.28355    1567.7481    227.18307    2.1838599    4.5809373   0.14476443 
   23100   -945.69698    45.078085   -900.61889    1614.5335    3408.4736    2.1838599    5.7556897   0.12845341 
   23200   -950.40936    44.029183   -906.38017    1576.9657   -536.01027    2.1838599    5.9112005   0.12343662 
   23300   -947.67778     40.38797   -907.28981    1446.5506     1141.755    2.1838599    8.9224771   0.11988069 
   23400   -942.79311    42.373138   -900.41997    1517.6522    5064.4256    2.1838599    10.753676    0.1377964 
   23500   -947.92808    42.477385   -905.45069    1521.3859    2612.0494    2.1838599    5.0536795   0.13826934 
   23600   -950.13735    44.947597   -905.18976    1609.8599   -35.744406    2.1838599     7.827933   0.14716096 
   23700    -944.3126    45.809585   -898.50301    1640.7332    6015.1844    2.1838599    7.5484989   0.14176333 
   23800    -947.5085    41.370104   -906.13839    1481.7271    100.22167    2.1838599    6.3563211   0.13986088 
   23900   -944.06419     40.19491   -903.86928    1439.6359    3808.2641    2.1838599    6.6082429     0.140667 
   24000   -943.64992     43.20484   -900.44508    1547.4407    3115.8247    2.1838599    4.2432579   0.15427241 
   24100   -946.71977    45.380493   -901.33927    1625.3647    1975.3808    2.1838599    5.4334753   0.14623388 
   24200   -948.67242    42.138913    -906.5335    1509.2631     358.3397    2.1838599    5.5062179   0.13368969 
   24300   -945.13893    47.173539   -897.96539    1689.5851    4089.1879    2.1838599    4.8364141   0.12925471 
   24400   -948.10787    46.906237   -901.20163    1680.0113    3022.3647    2.1838599    8.1656293   0.12573567 
   24500    -946.9299    43.657179   -903.27272    1563.6418    3012.1279    2.1838599    7.0303698   0.12252652 
   24600   -948.27246    46.568219   -901.70424    1667.9047    722.21563    2.1838599    6.6314043   0.12250259 
   24700   -949.26973    44.700287   -904.56944    1601.0022   -58.662069    2.1838599    4.6674634   0.14215886 
   24800   -948.89902    41.513899   -907.38512    1486.8773    496.13324    2.1838599    7.4250893     0.140964 
   24900   -945.10153    45.350398   -899.75114    1624.2868    6724.5867    2.1838599      5.33087   0.13425905 
   25000   -948.48277    42.442179    -906.0406    1520.1249    2539.4409    2.1838599    6.0816399   0.13703319 
   25100   -950.55095    43.303955     -907.247    1550.9906   -264.00372    2.1838599    4.5932517   0.13298903 
   25200   -945.99646     44.32003   -901.67643    1587.3827    4251.4644    2.1838599    4.6177635    0.1243762 
   25300   -946.27697      45.0649   -901.21207    1614.0613    5625.6429    2.1838599    6.2730717   0.12841292 
   25400   -949.61604     41.62766   -907.98838    1490.9518    -682.8992    2.1838599    8.5448487   0.13870024 
   25500   -945.82072    46.010983   -899.80974    1647.9466    2889.9659    2.1838599    6.5188279   0.14350821 
   25600   -947.50901    45.336067   -902.17294    1623.7735    959.43449    2.1838599    6.9263743    0.1634399 
   25700   -951.18022    40.506961   -910.67325    1450.8124   -3792.3984    2.1838599    5.1901157   0.15465114 
   25800    -948.3504    41.448931   -906.90147    1484.5504    1260.2155    2.1838599    4.3745709   0.16254706 
   25900   -944.47906    43.275197   -901.20386    1549.9606     3739.252    2.1838599    6.4616607   0.15367266 
   26000   -946.38552    46.354552   -900.03097    1660.2519    2714.9261    2.1838599    1.9402125   0.15435542 
   26100   -950.48415    42.644681   -907.83947    1527.3778   -1053.9407    2.1838599    5.9793362   0.12484694 
   26200   -944.31669    44.333211   -899.98348    1587.8549     4591.393    2.1838599    5.8359388    0.1259117 
   26300   -948.52394    46.669907   -901.85403    1671.5468    1109.9394    2.1838599    6.2179177   0.12056393 
   26400   -949.61933    42.514527    -907.1048    1522.7162    185.60789    2.1838599    7.9378073   0.12307181 
   26500   -946.59343    44.732539   -901.86089    1602.1573    1819.7286    2.1838599    5.8897247   0.13629879 
   26600   -945.45682    46.121123   -899.33569    1651.8914    2628.4033    2.1838599    6.7041973    0.1581767 
   26700   -952.52586    45.543265    -906.9826    1631.1946   -1629.7282    2.1838599     3.804076   0.14894804 
   26800   -948.23426    44.946861    -903.2874    1609.8336    1981.6505    2.1838599    4.6541103   0.14035667 
   26900   -945.55251    46.148567   -899.40394    1652.8743    5455.7613    2.1838599    6.3892291   0.14578286 
   27000   -948.82961    42.575673   -906.25393    1524.9062    2148.0481    2.1838599    5.5976714   0.12117889 
   27100    -949.2612    46.752422   -902.50878    1674.5022    1566.8714    2.1838599    14.884555   0.11108369 
   27200   -947.97242    48.241071   -899.73135    1727.8202    3154.8771    2.1838599    14.238208   0.11169555 
   27300   -950.88046    47.684356   -903.19611    1707.8807   -1280.3449    2.1838599    19.031309   0.11643568 
   27400   -948.96676    45.264138   -903.70263    1621.1973    775.63232    2.1838599    14.163124   0.12171836 
   27500   -947.96661    45.198763   -902.76785    1618.8558    915.24053    2.1838599    15.339259   0.11483851 
   27600   -945.72964    43.992151   -901.73749    1575.6393    3302.1637    2.1838599    14.611605    0.1280236 
   27700   -949.60462     41.58958   -908.01504    1489.5879     364.0862    2.1838599    14.092909   0.11859803 
   27800   -948.82406    47.352738   -901.47132    1696.0034    671.63273    2.1838599    16.376307   0.10948808 
   27900   -944.71835    43.071102   -901.64725    1542.6507    3711.4489    2.1838599    15.350091   0.11807835 
   28000    -951.5425    44.045886   -907.49661    1577.5639   -867.36128    2.1838599    15.396208  0.088885369 
   28100   -946.03633    48.931877   -897.10446    1752.5624     5149.504    2.1838599     15.54854   0.11110025 
   28200   -948.72805    44.354982   -904.37307    1588.6346    1659.4672    2.1838599    13.667371   0.10840781 
   28300   -951.92699    46.985707   -904.94128    1682.8576   -2456.9208    2.1838599    16.191141   0.10379799 
   28400   -947.21198    51.151622   -896.06036    1832.0656    3665.7996    2.1838599    16.754065   0.12288827 
   28500   -948.76343    45.651615   -903.11181    1635.0753    413.19277    2.1838599    16.839422   0.12501227 
   28600   -952.95159    48.470854   -904.48073    1736.0502    -1576.979    2.1838599     16.27428   0.11736431 
   28700   -947.86085    52.357457   -895.50339    1875.2542    3298.7258    2.1838599    14.967332    0.1255024 
   28800   -947.41819    43.932949   -903.48524    1573.5189    1802.7152    2.1838599    18.946371   0.10803127 
   28900   -944.62564    40.871629   -903.75402    1463.8735    3226.4945    2.1838599    14.619893   0.10771165 
   29000   -945.66743    50.106362   -895.56107    1794.6282    4595.0058    2.1838599    15.466394   0.11256515 
   29100   -949.93166    46.558785   -903.37287    1667.5668   -307.64902    2.1838599    15.862947   0.11296528 
   29200   -947.90372    44.176122   -903.72759    1582.2285    735.99302    2.1838599    16.711335   0.12438558 
   29300   -944.12523    45.832883   -898.29234    1641.5677     5233.457    2.1838599    18.168399   0.12064325 
   29400   -949.26343    46.425361   -902.83807    1662.7881    382.69772    2.1838599    15.950878    0.1122626 
   29500   -949.83273    44.128836    -905.7039    1580.5349   -1013.9805    2.1838599    15.543587   0.11622587 
   29600   -945.69182    48.163542   -897.52828    1725.0434    5190.6782    2.1838599    18.624264   0.13035405 
   29700   -950.13902    44.870295   -905.26873    1607.0913   -334.11768    2.1838599    15.720345   0.12344896 
   29800   -950.57851    45.040612    -905.5379    1613.1914    -500.2661    2.1838599     16.09291   0.11406573 
   29900   -945.20543     46.00894   -899.19649    1647.8734    2884.3228    2.1838599    16.092261   0.12501066 
   30000    -950.0728    41.293355   -908.77944    1478.9782   -1347.1878    2.1838599    16.827484   0.10273796 
   30100   -951.68867    46.475715   -905.21295    1664.5916   -3095.7388    2.1838599    17.796197   0.13031761 
   30200   -945.86744    46.024443     -899.843    1648.4286    2364.2432    2.1838599     17.51461   0.13994348 
   30300    -948.9567    39.810262   -909.14644    1425.8592   -1905.1127    2.1838599    17.055238   0.11514728 
   30400   -947.56098    42.250566   -905.31041    1513.2621    539.49361    2.1838599    15.906435   0.11425082 
   30500   -949.15868    47.897797   -901.26088    1715.5254    2048.9502    2.1838599    14.895184   0.10957134 
   30600   -951.56811     42.53666   -909.03145    1523.5089   -2266.2413    2.1838599    16.598414    0.1161516 
   30700   -946.68189    41.103684    -905.5782    1472.1849    3092.0886    2.1838599      14.9999   0.12603237 
   30800   -948.60204    46.623258   -901.97878     1669.876    2396.3626    2.1838599     16.01656   0.10984701 
   30900   -954.67232     47.88879   -906.78353    1715.2028   -1772.4952    2.1838599    14.276506   0.10266776 
   31000   -952.24349    44.447171   -907.79632    1591.9365   -1988.3125    2.1838599     16.87276   0.11465473 
   31100   -947.05462    44.795599   -902.25902    1604.4159    2408.0025    2.1838599     16.79514   0.12456575 
   31200   -950.02465    45.835797   -904.18885     1641.672    401.44488    2.1838599    16.705747   0.11751656 
   31300   -955.54079    45.780416   -909.76037    1639.6885   -4369.2381    2.1838599    13.278201  0.099544237 
   31400   -947.67819    47.209814   -900.46838    1690.8843    2881.8984    2.1838599     14.39691   0.10791909 
   31500   -947.98879    44.004093   -903.98469     1576.067    2198.5109    2.1838599    12.663614   0.11533636 
   31600   -952.76724    42.030044    -910.7372    1505.3638   -2620.8256    2.1838599    14.241397   0.11691399 
   31700   -944.37925     42.24084   -902.13841    1512.9137    4741.7718    2.1838599    16.346856   0.13087437 
   31800   -945.85866    44.298616   -901.56004    1586.6158    4717.4763    2.1838599    15.256453   0.11712462 
   31900    -948.5371     40.25374   -908.28336     1441.743    1036.3784    2.1838599    15.040229   0.10490272 
   32000   -945.46523    45.638818   -899.82641    1634.6169    4527.8028    2.1838599    16.638872   0.12640719 
   32100   -946.35962    43.605396   -902.75422    1561.7871    3742.1736    2.1838599    14.980981   0.11577621 
   32200   -950.69218     43.42067   -907.27151    1555.1709   -593.00756    2.1838599    14.452422    0.1122117 
   32300   -947.70111    49.569101   -898.13201    1775.3854    4438.9616    2.1838599    14.038158   0.11695321 
   32400   -945.32966    42.454176   -902.87549    1520.5546    4124.5779    2.1838599    15.699268    0.1078116 
   32500   -946.46472    42.138991   -904.32573    1509.2658    2588.8389    2.1838599    16.157957   0.11740097 
   32600   -947.14645     45.68801   -901.45844    1636.3788    3873.0196    2.1838599     16.91637   0.11716726 
   32700   -941.63082     45.24921   -896.38161    1620.6626    7043.2161    2.1838599    16.617998   0.13605656 
   32800   -946.84627     42.36902   -904.47725    1517.5046    3800.3599    2.1838599    15.783251   0.11693061 
   32900   -948.54418    45.025332   -903.51885    1612.6441    2693.1541    2.1838599     16.51782   0.11738106 
   33000   -943.94083    47.278183   -896.66264    1693.3331    7022.3258    2.1838599    15.280157   0.13129818 
   33100   -949.43135    43.578477   -905.85287     1560.823    1723.4558    2.1838599    14.838587   0.11024956 
   33200     -945.925    43.506257   -902.41874    1558.2364    2757.2126    2.1838599     15.03261   0.12457332 
   33300   -947.52648    50.881782    -896.6447    1822.4009    3413.2994    2.1838599    16.105389   0.11593963 
   33400   -950.26541    43.968185   -906.29723     1574.781   -1693.9779    2.1838599     17.38153   0.11782588 
   33500   -948.75253    46.116232   -902.63629    1651.7162    1663.5164    2.1838599    15.069529    0.1071659 
   33600     -945.081    45.885779   -899.19522    1643.4622    4379.5768    2.1838599    15.992581   0.11392537 
   33700   -952.05373    43.780938   -908.27279    1568.0744   -2139.2158    2.1838599    15.286314   0.11502076 
   33800   -947.01764    46.093935    -900.9237    1650.9176    2819.2884    2.1838599    17.263633   0.12708355 
   33900   -948.96747    45.353205   -903.61426    1624.3873    704.86911    2.1838599     16.07979   0.11861199 
   34000   -947.63534    39.959715   -907.67562    1431.2121    1227.9479    2.1838599    17.283147   0.12256464 
   34100   -947.02591    44.656403   -902.36951    1599.4304    1601.6272    2.1838599    14.587048    0.1272957 
   34200    -945.3886    42.181246   -903.20735    1510.7792    3792.1703    2.1838599    13.606602   0.12384121 
   34300   -950.57769    38.572658   -912.00503    1381.5327   -1781.2112    2.1838599    14.238942    0.1063598 
   34400   -943.19921    39.012064   -904.18715    1397.2706    2982.5772    2.1838599    15.034106   0.11022546 
   34500   -943.58179    41.968169   -901.61362    1503.1476    4559.6965    2.1838599    17.849498   0.12840485 
   34600   -950.69235    42.510695   -908.18165    1522.5789   -1624.2284    2.1838599    18.105659   0.12180457 
   34700   -945.86068     42.06324   -903.79744    1506.5527    2316.4794    2.1838599    16.414572   0.13666052 
   34800   -948.18981    46.670017    -901.5198    1671.5508    2214.7604    2.1838599    16.626553    0.1149752 
   34900   -953.09378    45.533965   -907.55982    1630.8615   -2154.1061    2.1838599    17.136086   0.10813127 
   35000   -949.03096    38.921195   -910.10977     1394.016   -1200.6296    2.1838599    14.092496   0.12543699 
   35100   -943.09089    42.244214   -900.84668    1513.0345    5719.6066    2.1838599    15.731182   0.13206665 
   35200   -949.41302    44.727825    -904.6852    1601.9885    774.87186    2.1838599    13.744785     0.122507 
   35300   -951.62667    43.252333   -908.37434    1549.1417   -925.00796    2.1838599    16.197119  0.098924125 
   35400    -947.6773    47.642163   -900.03513    1706.3695     3122.409    2.1838599    15.584635    0.1072066 
   35500   -949.13534    42.991187   -906.14415    1539.7884    451.48587    2.1838599    17.926021   0.11288296 
   35600   -948.64329    46.092767   -902.55052    1650.8758    1125.2731    2.1838599    14.967309   0.12596595 
   35700   -947.74147    47.676539   -900.06493    1707.6007    2644.0496    2.1838599     15.60007   0.11139729 
   35800   -949.18051    43.532699   -905.64781    1559.1834    1052.6202    2.1838599    17.408637   0.11120562 
   35900   -948.07528    44.522434   -903.55284    1594.6321    1675.0145    2.1838599    15.266726   0.12518344 
   36000   -944.46488    41.670435   -902.79444    1492.4839    4693.8785    2.1838599    17.136632   0.12166726 
   36100   -947.60592    44.281975   -903.32395    1586.0198    1490.6912    2.1838599    15.279602    0.1184309 
   36200   -948.16988    44.371283   -903.79859    1589.2184    705.07076    2.1838599    17.410998   0.12159933 
   36300   -949.75837    45.946123   -903.81225    1645.6235    1192.9338    2.1838599     16.34619   0.10760258 
   36400   -949.86023    48.930012   -900.93021    1752.4956    1399.9238    2.1838599    16.081513   0.11426515 
   36500   -947.37386    43.791119   -903.58274    1568.4391    2365.1049    2.1838599    17.032354   0.12425163 
   36600    -949.9448    42.397186   -907.54762    1518.5134    175.50069    2.1838599    18.723326   0.10051217 
   36700   -948.26877    48.742964    -899.5258    1745.7962    2919.2086    2.1838599    13.290217    0.1058445 
   36800   -947.03707    42.661512   -904.37556    1527.9806    3361.2944    2.1838599    17.684497  0.096666911 
   36900   -948.93619    42.285267   -906.65093    1514.5049    493.37859    2.1838599    17.567811   0.11727353 
   37000   -944.12766    45.985199   -898.14246     1647.023    7785.6122    2.1838599    14.002466   0.10923766 
   37100   -948.56947    42.725708   -905.84377    1530.2799     2755.795    2.1838599    17.844938   0.10946606 
   37200   -949.34276    44.517462    -904.8253    1594.4541    483.53294    2.1838599    17.040135   0.12620309 
   37300   -950.78305     48.01053   -902.77252    1719.5631    102.65276    2.1838599    16.802823   0.12512938 
   37400   -949.30181     46.14189   -903.15992    1652.6352    374.41607    2.1838599    19.314248   0.12067707 
   37500   -950.25402    46.221865   -904.03216    1655.4996   -23.488562    2.1838599    15.635094   0.11215628 
   37600   -949.48848    44.069167   -905.41932    1578.3978    420.28538    2.1838599    17.860192   0.10662786 
   37700   -945.55059    45.393854   -900.15674    1625.8432    3980.2547    2.1838599    16.565046  0.099715741 
   37800   -949.57816    47.480565   -902.09759    1700.5817    833.18805    2.1838599    14.688089   0.11239481 
   37900   -949.30767    42.381401   -906.92627    1517.9481   -449.03135    2.1838599    14.424639   0.10740019 
   38000    -947.0853    47.051208   -900.03409    1685.2036      3521.79    2.1838599    16.185773   0.10845802 
   38100   -949.02231    47.242855   -901.77945    1692.0677    1292.8884    2.1838599    14.639626    0.1118588 
   38200   -951.16361     45.49221    -905.6714     1629.366   -755.55149    2.1838599    16.306589   0.11624751 
   38300   -947.51305    38.636786   -908.87626    1383.8296   -277.32686    2.1838599    15.420312   0.12867936 
   38400   -945.21432    44.926045   -900.28827     1609.088    2526.6194    2.1838599    15.053074   0.12239203 
   38500    -944.7608    40.848734   -903.91207    1463.0535    3488.9066    2.1838599    16.270999   0.11507454 
   38600   -951.52418    42.501257   -909.02292    1522.2409   -1801.9503    2.1838599    15.237931   0.10534559 
   38700   -947.64932    44.387392   -903.26193    1589.7954    1628.8531    2.1838599    14.809504   0.11286309 
   38800   -943.92226    43.529201   -900.39306    1559.0581     3503.059    2.1838599    13.838806   0.10885074 
   38900   -948.48156    39.439554   -909.04201    1412.5818    957.30865    2.1838599    14.348288   0.10670264 
   39000   -946.97895     45.09381   -901.88514    1615.0967    3251.9285    2.1838599     12.42596  0.098085715 
   39100   -949.21049    47.054431   -902.15606    1685.3191    1173.2942    2.1838599    14.122057   0.12204087 
   39200    -950.6542    41.905794   -908.74841    1500.9136   -2609.9995    2.1838599    17.497782   0.12550977 
   39300   -949.82758    40.657013   -909.17056    1456.1868   -1831.6569    2.1838599     18.92855   0.12294959 
   39400   -947.70764    44.903198   -902.80445    1608.2697    1051.8708    2.1838599    14.867307   0.13539072 
   39500   -946.42626    45.920187   -900.50607    1644.6946    3433.7648    2.1838599    17.480945   0.11467488 
   39600   -952.26919    43.576446   -908.69275    1560.7503   -4212.5024    2.1838599    15.563924   0.12073914 
   39700   -947.44845    45.631418   -901.81703    1634.3519    3007.2751    2.1838599     18.93592   0.11554445 
   39800   -945.47515    43.348124   -902.12703    1552.5726     2242.742    2.1838599     14.32059    0.1055884 
   39900   -947.62383    40.268763   -907.35507    1442.2811    98.970336    2.1838599    15.935157   0.10755758 
   40000   -950.41266    44.628874   -905.78379    1598.4444   -133.24263    2.1838599    14.909187   0.10906946 
   40100   -945.85893    45.963678   -899.89525    1646.2523    4290.2976    2.1838599    15.022089   0.12662699 
   40200   -947.83607    39.701557   -908.13451    1421.9658    578.83192    2.1838599    15.699878   0.12625604 
   40300   -949.14918    42.795641   -906.35354    1532.7847    545.18332    2.1838599    14.899119   0.13406606 
   40400   -949.96151    47.927603   -902.03391    1716.5929    1470.5803    2.1838599    15.515969    0.1209627 
   40500   -945.78161    46.618013    -899.1636    1669.6882    4026.6056    2.1838599    15.743365   0.12667893 
   40600   -952.80559    45.501686    -907.3039    1629.7054   -1404.6011    2.1838599    14.368858   0.11767649 
   40700    -944.5702    42.940765   -901.62943    1537.9825    5256.2824    2.1838599    16.064957  0.094139776 
   40800   -946.01519    45.507747   -900.50744    1629.9225    3566.5103    2.1838599    15.861429    0.1130807 
   40900   -950.17166    45.022979   -905.14868    1612.5598    769.17936    2.1838599    14.828551   0.10370427 
   41000   -948.51799    45.172223   -903.34577    1617.9052     1821.993    2.1838599    15.989478   0.10980786 
   41100   -947.29137    48.349058   -898.94231    1731.6879     3839.896    2.1838599    16.330813   0.12468313 
   41200   -952.07656    45.136642   -906.93992    1616.6308    -1661.757    2.1838599    16.868625   0.10768951 
   41300   -947.76503    44.013697   -903.75133     1576.411    1902.2914    2.1838599    16.368153   0.11647213 
   41400     -944.726    42.144896    -902.5811    1509.4773    4885.5556    2.1838599    14.761132   0.13033588 
   41500   -948.68669    44.596324   -904.09037    1597.2786    1667.8684    2.1838599    14.684856    0.1264397 
   41600   -949.72029    41.515194    -908.2051    1486.9237    35.784511    2.1838599    16.343669    0.1082291 
   41700   -948.34275    47.534529   -900.80822    1702.5145    2049.6689    2.1838599    15.061785   0.11306056 
   41800   -946.87388    44.792737   -902.08115    1604.3134    2857.6815    2.1838599    21.036939   0.11407133 
   41900    -951.6094    39.232752   -912.37665    1405.1749   -1753.2921    2.1838599    26.579039   0.11211635 
   42000   -950.19092    42.069675   -908.12124    1506.7832   -803.61773    2.1838599    19.344519   0.11412797 
   42100   -945.76432    44.641025    -901.1233    1598.8796    3442.2245    2.1838599    17.019696   0.10965518 
   42200   -944.12578    42.358587    -901.7672     1517.131    3498.9196    2.1838599    15.470623   0.13444358 
   42300   -949.77127    41.491637   -908.27963      1486.08   -1724.2612    2.1838599    16.023153   0.11774929 
   42400   -947.49623    45.075971   -902.42026    1614.4578    2473.0532    2.1838599    14.374289   0.12917265 
   42500   -949.94516    46.898694   -903.04646    1679.7411    310.57319    2.1838599    17.246162   0.11235989 
   42600   -952.02094    42.032758   -909.98818     1505.461   -2391.9329    2.1838599    19.044101  0.098829297 
   42700   -945.01186    40.615518   -904.39634    1454.7006    3866.5876    2.1838599    16.043367   0.11203835 
   42800   -947.04825    44.859951    -902.1883    1606.7208    3371.5011    2.1838599    17.097301   0.10982303 
   42900   -950.52822    43.367856   -907.16036    1553.2793    925.19287    2.1838599    16.797094   0.10956875 
   43000   -949.11041    42.260281   -906.85013      1513.61     1521.708    2.1838599    16.102162   0.10365039 
   43100   -944.61599     43.76453   -900.85146    1567.4868      5513.03    2.1838599      18.2105   0.11296991 
   43200   -949.32929    41.761339   -907.56795    1495.7397    371.19231    2.1838599    15.327544    0.1182406 
   43300   -948.38726    43.838957    -904.5483    1570.1525    1391.0446    2.1838599     14.97414   0.12014687 
   43400   -944.68072    44.619465   -900.06125    1598.1074    5210.5568    2.1838599    14.697375   0.12696394 
   43500   -949.29765    41.910978   -907.38667    1501.0992    294.79377    2.1838599    14.302329   0.11464554 
   43600   -945.28487    46.761204   -898.52366    1674.8167    3982.8736    2.1838599    15.980032   0.10891677 
   43700   -948.56215    46.779725   -901.78242    1675.4801    1451.6675    2.1838599    17.251112   0.10382812 
   43800    -946.5556    40.268679   -906.28692     1442.278    3118.0385    2.1838599    18.329838   0.11217111 
   43900   -943.22256    46.656341   -896.56622    1671.0609    6966.3401    2.1838599    15.716789   0.10157592 
   44000   -945.00134     42.81746   -902.18388    1533.5661    4242.4289    2.1838599    13.832947   0.12561585 
   44100   -949.58631    44.814483   -904.77182    1605.0923    690.66955    2.1838599    15.386869    0.1126145 
   44200   -943.66066    47.029742   -896.63091    1684.4348    7012.4886    2.1838599    16.355341   0.11810815 
   44300   -950.73319    48.867336   -901.86586    1750.2507   -363.52926    2.1838599    16.641662   0.12297351 
   44400   -947.63466    42.954363    -904.6803    1538.4695    1174.4565    2.1838599    16.029898   0.11096644 
   44500   -947.97751    48.887378   -899.09013    1750.9686    3314.2316    2.1838599    17.565497   0.12939685 
   44600   -949.18271    48.406758   -900.77595    1733.7545    835.41606    2.1838599    17.785093   0.10203102 
   44700   -946.38619    41.649384    -904.7368    1491.7299    1851.4643    2.1838599    15.938649   0.10741836 
   44800   -945.20652    45.802313    -899.4042    1640.4727    2338.5571    2.1838599    15.593355   0.11327489 
   44900    -943.3332    46.049871   -897.28333    1649.3394    5881.7687    2.1838599    13.561292   0.12991683 
   45000   -946.24799    40.467014   -905.78098    1449.3817    1271.4862    2.1838599    13.281927   0.12584134 
   45100   -947.18654    47.250789   -899.93575    1692.3519    2061.9436    2.1838599    14.097731   0.12621789 
   45200   -948.03291    46.092025   -901.94088    1650.8492    1319.7631    2.1838599    16.139524   0.12396916 
   45300    -948.9528    43.114171   -905.83863    1544.1932   -547.88445    2.1838599    17.680729   0.11332623 
   45400   -944.43337    45.167633   -899.26573    1617.7408    4627.7703    2.1838599    15.693302   0.12740441 
   45500   -949.37048    40.685199   -908.68528    1457.1963   -899.47837    2.1838599    12.885678   0.11468404 
   45600   -946.47845    42.317209   -904.16124     1515.649    2056.4559    2.1838599    15.577226   0.11786558 
   45700   -947.35403    46.269105   -901.08493    1657.1915    3096.2563    2.1838599    13.092793   0.10395739 
   45800   -952.73537     42.73617    -909.9992    1530.6546   -3555.7081    2.1838599    15.228094   0.10526462 
   45900    -949.4505    41.197496   -908.25301    1475.5449   -300.85655    2.1838599    16.837508   0.10519042 
   46000   -942.66896    41.057712   -901.61125    1470.5383    4863.2157    2.1838599    15.561591   0.12021244 
   46100   -949.13581    45.205298   -903.93052    1619.0898    1857.6476    2.1838599    15.907301    0.1109388 
   46200   -949.56044    41.445883   -908.11456    1484.4412    564.38492    2.1838599    17.725358   0.10289683 
   46300   -947.39767     45.24078   -902.15689    1620.3607     812.1659    2.1838599    14.202301   0.11449938 
   46400   -947.52684    43.663472   -903.86337    1563.8672    704.78724    2.1838599     17.49233   0.11166135 
   46500    -950.4148    39.719673   -910.69513    1422.6146   -2601.0484    2.1838599    15.681056   0.11624945 
   46600   -945.28027    43.545174   -901.73509    1559.6302    2964.8309    2.1838599    15.809345   0.11097588 
   46700   -945.70943    42.681913   -903.02752    1528.7113    2559.7335    2.1838599    17.633784   0.11475802 
   46800   -950.33212    39.960436   -910.37168    1431.2379    -1658.952    2.1838599    13.809156   0.11227797 
   46900   -948.25853    47.125057   -901.13348    1687.8487    1262.7538    2.1838599    14.609141   0.11672392 
   47000   -948.14152    45.387748   -902.75377    1625.6245    1472.3433    2.1838599    17.009001   0.10977225 
   47100   -954.03098    45.965465   -908.06551    1646.3163   -3095.8299    2.1838599    15.633108  0.097354935 
   47200   -947.08542    48.895456   -898.18996    1751.2579     2812.636    2.1838599    17.391521   0.11647047 
   47300   -951.02135    45.996866   -905.02449    1647.4409   -654.09453    2.1838599    15.621271   0.11173081 
   47400   -946.94764    42.635259   -904.31238    1527.0404    3071.3689    2.1838599    15.080527   0.11470806 
   47500   -944.21992     48.71991   -895.50001    1744.9705    5168.7634    2.1838599    16.081727   0.12539981 
   47600   -946.31359    42.283315   -904.03027     1514.435    1898.5364    2.1838599    16.209547    0.1190463 
   47700   -951.89051    47.279264   -904.61124    1693.3718   -2819.3867    2.1838599    14.065984   0.11451958 
   47800   -944.57176    48.297684   -896.27408    1729.8479     5352.478    2.1838599    14.648847   0.11963982 
   47900   -944.92882    41.658681   -903.27014    1492.0629    2965.0775    2.1838599    14.076232   0.11317825 
   48000   -950.71802    46.788564   -903.92945    1675.7967   -143.76943    2.1838599    15.575367   0.11003735 
   48100   -942.94886    45.569175   -897.37968    1632.1226    7545.8289    2.1838599    18.136369   0.12279408 
   48200   -950.52165    46.218037   -904.30361    1655.3625   -807.26738    2.1838599    16.746899   0.11214206 
   48300   -949.92641    45.191599   -904.73481    1618.5992   -747.29126    2.1838599    14.689809   0.11659558 
   48400   -941.57586    45.719311   -895.85655    1637.4999    6967.2743    2.1838599    14.887186   0.12654507 
   48500   -948.35609    45.944366   -902.41173    1645.5606    927.53213    2.1838599    16.021555   0.11619731 
   48600   -947.19335    41.299154    -905.8942    1479.1859    911.46133    2.1838599    18.573813   0.11788121 
   48700   -944.11622    44.970142   -899.14608    1610.6674    4578.8635    2.1838599     16.65331   0.11449702 
   48800   -944.83049     39.69611   -905.13438    1421.7707    4066.3927    2.1838599    15.079389   0.11591227 
   48900   -949.61254    44.000647    -905.6119    1575.9436    1419.9212    2.1838599     14.60869   0.10322488 
   49000    -945.7937    45.889727   -899.90397    1643.6036    3142.3759    2.1838599    13.556062   0.11363108 
   49100   -947.34349    38.228834   -909.11466    1369.2182   -323.31033    2.1838599     16.31528   0.12017653 
   49200   -952.38011    45.936736   -906.44337    1645.2873   -1246.0603    2.1838599    15.346635   0.11608012 
   49300   -947.94962    47.226467   -900.72316    1691.4808    2923.4343    2.1838599    13.778179   0.11944629 
   49400   -948.32088    40.868052   -907.45283    1463.7454    285.92554    2.1838599    15.224405   0.12568358 
   49500    -948.5881    42.225247   -906.36286    1512.3552    1033.2438    2.1838599    15.845612     0.110693 
   49600   -948.11371    45.347746   -902.76596    1624.1918    1436.8527    2.1838599    17.461915   0.11419832 
   49700   -951.81457    47.979883   -903.83468    1718.4654   -665.53717    2.1838599    16.959917   0.11797805 
   49800   -951.96255    43.266299   -908.69625    1549.6419   -1998.6306    2.1838599    17.329008   0.09364386 
   49900   -944.94859    44.985824   -899.96277    1611.2291     3985.233    2.1838599    15.473248   0.11824261 
   50000   -946.86603    43.428345   -903.43768    1555.4458     1056.731    2.1838599    15.626716   0.12549583 
   50100   -948.76215    39.733011   -909.02914    1423.0923   -357.06151    2.1838599    16.966615   0.11522569 
   50200   -951.10368    42.265771   -908.83791    1513.8066     315.7933    2.1838599    13.836474    0.1180229 
   50300   -946.12156    44.814012   -901.30755    1605.0754    3679.9825    2.1838599    15.492455   0.11960625 
   50400   -948.61555    44.413801   -904.20175    1590.7413    979.70053    2.1838599    15.260903   0.11828526 
   50500   -948.68112    40.436013   -908.24511    1448.2713    865.91228    2.1838599    14.672917   0.12425823 
   50600   -947.88272    45.451139   -902.43158     1627.895    1499.1781    2.1838599    15.073811   0.11724903 
   50700   -951.08319     47.15009    -903.9331    1688.7452    409.20106    2.1838599    15.301087   0.11264713 
   50800   -950.62715    41.857627   -908.76952    1499.1884    -1280.433    2.1838599    14.729865   0.10825061 
   50900    -946.0803    45.186109   -900.89419    1618.4026    4717.3366    2.1838599    18.613825   0.10349073 
   51000   -944.64782    42.384229   -902.26359    1518.0494    4434.6869    2.1838599     15.57011   0.12697622 
   51100   -951.12279    41.886595    -909.2362    1500.2259   -2925.4841    2.1838599     19.27118   0.12504287 
   51200   -945.62959    45.769401   -899.86019     1639.294     4846.907    2.1838599    15.600492   0.12502142 
   51300   -947.67021    45.026117    -902.6441    1612.6722    2225.8161    2.1838599    15.223006   0.12462237 
   51400   -951.69894    44.980709   -906.71823    1611.0459    -1438.106    2.1838599    13.108191   0.11210097 
   51500   -946.97687    50.240576   -896.73629    1799.4352    4424.2538    2.1838599    14.922879   0.11658355 
   51600   -948.43256    45.167454    -903.2651    1617.7344    1182.5389    2.1838599    15.250194   0.12770901 
   51700   -949.78279    44.517833   -905.26496    1594.4673   -76.937935    2.1838599    16.255479   0.11733414 
   51800   -948.49376    52.807638   -895.68612    1891.3781    4092.3491    2.1838599    14.245538    0.1052344 
   51900    -949.6295    46.371463   -903.25803    1660.8576    141.44495    2.1838599    16.728444   0.11696394 
   52000   -946.82206    42.655957   -904.16611    1527.7817    3712.0937    2.1838599    15.833164   0.12408808 
   52100   -946.49586    50.676764    -895.8191    1815.0579    5089.5526    2.1838599    15.799125   0.11785767 
   52200     -947.843    44.713253   -903.12975    1601.4666    1294.3695    2.1838599    16.073139   0.13438559 
   52300   -947.48924     43.43511   -904.05413    1555.6881    2138.9909    2.1838599    16.034654   0.11073787 
   52400   -944.14817    46.358601   -897.78957     1660.397    6126.2076    2.1838599    16.634074   0.11895838 
   52500   -945.20173    42.375152   -902.82658    1517.7243     2790.732    2.1838599    15.114171   0.12744828 
   52600   -948.95221    43.724811    -905.2274    1566.0641    940.20414    2.1838599    17.241943   0.11395962 
   52700   -943.87635    46.258426   -897.61793    1656.8091    7007.2136    2.1838599    13.106048   0.11510239 
   52800   -947.90794     43.03827   -904.86967    1541.4748    2042.3848    2.1838599    17.618032   0.12458821 
   52900   -950.03485    44.415832   -905.61902     1590.814     182.6755    2.1838599    16.716954    0.1094685 
   53000   -948.15185    49.190728   -898.96112    1761.8335    2045.4721    2.1838599    16.200643   0.13425094 
   53100   -950.90575    41.802571   -909.10318    1497.2165   -978.14292    2.1838599    17.359423   0.11652443 
   53200   -950.71332      46.7092   -904.00412    1672.9542    146.34661    2.1838599    15.185555   0.11071307 
   53300    -944.0097    43.512956   -900.49674    1558.4763    4326.6231    2.1838599    14.910171   0.12587615 
   53400   -947.29436    37.419849   -909.87451    1340.2433   -1988.2794    2.1838599    15.732272   0.12934976 
   53500    -946.3504    42.284188   -904.06621    1514.4663    1452.6562    2.1838599    15.248399   0.12537119 
   53600   -946.52428     44.35334   -902.17094    1588.5758    1106.9692    2.1838599    16.334014   0.11684361 
   53700   -951.73945    43.630858   -908.10859    1562.6991    -3390.191    2.1838599    14.938788   0.11854989 
   53800   -948.44255    43.014888   -905.42766    1540.6373    87.586769    2.1838599    13.577015   0.13188923 
   53900   -945.05077    43.605062   -901.44571    1561.7752    3263.4454    2.1838599    17.238831   0.13717349 
   54000   -951.90159    44.060222   -907.84137    1578.0774   -1261.5556    2.1838599    14.397493   0.11302586 
   54100   -949.77924    42.636195   -907.14305    1527.0739    -1222.361    2.1838599     14.62447   0.10751522 
   54200   -946.68408    45.918601   -900.76548    1644.6377    2296.2034    2.1838599    17.164449   0.10944008 
   54300   -950.14196    43.520088   -906.62187    1558.7317    -747.8138    2.1838599    13.977924   0.11961048 
   54400   -948.07207    44.019969    -904.0521    1576.6356    1559.4552    2.1838599    16.622528   0.10417846 
   54500   -947.10978    47.018865   -900.09092    1684.0452    1409.1781    2.1838599    14.055407   0.12407957 
   54600   -953.17703    46.450479   -906.72655    1663.6877   -2515.7314    2.1838599    15.360718   0.09916998 
   54700   -949.33132    45.223711   -904.10761    1619.7493    223.15511    2.1838599    16.246126   0.11416662 
   54800   -945.85716     42.96539   -902.89177    1538.8645    859.98284    2.1838599     16.22286   0.15633023 
   54900   -946.28807    45.487916   -900.80016    1629.2122    3423.7368    2.1838599    17.104378   0.11902743 
   55000   -950.77426     46.80861   -903.96565    1676.5146   -1781.3722    2.1838599     16.63249   0.11870398 
   55100    -949.2486    41.980421   -907.26818    1503.5864    626.48228    2.1838599    14.458369   0.10646922 
   55200   -945.02728    46.491787    -898.5355    1665.1672    4175.0391    2.1838599    15.929951   0.12304894 
   55300    -947.7274    42.611515   -905.11589    1526.1899    208.05641    2.1838599    13.664438   0.12037351 
   55400   -945.94287    41.377192   -904.56567     1481.981     1022.468    2.1838599     15.80001   0.11343403 
   55500    -946.3337    44.078745   -902.25495    1578.7408    2338.8751    2.1838599    15.561056   0.11627073 
   55600   -950.77753    46.884101   -903.89343    1679.2185   -2354.7638    2.1838599    17.291563   0.11770165 
   55700   -948.60416    44.245994   -904.35817     1584.731    619.06646    2.1838599    17.183278   0.13962185 
   55800   -945.88018    48.091829   -897.78835    1722.4749    2285.0081    2.1838599    16.180675   0.13309226 
   55900   -948.59319    42.378669   -906.21452    1517.8502   -1955.5932    2.1838599    17.498475   0.13969041 
   56000   -948.72008    44.827029   -903.89305    1605.5416   -1320.3105    2.1838599    16.498267   0.12620328 
   56100   -947.76278    48.294579   -899.46821    1729.7367    1089.1375    2.1838599    14.702855   0.11934114 
   56200   -951.48288     41.86636   -909.61652    1499.5012   -4549.2834    2.1838599    19.835992   0.12155446 
   56300   -942.65571    40.923147   -901.73257    1465.7187    3077.5109    2.1838599    14.292392   0.12278935 
   56400   -946.97743    44.803555   -902.17388    1604.7008   -194.83369    2.1838599    15.874383   0.12263569 
   56500   -952.50607    42.443192   -910.06288    1520.1612   -3655.8508    2.1838599    17.064352   0.13485159 
   56600   -949.63087    45.495301   -904.13557    1629.4767   -365.42069    2.1838599     14.90925   0.13740373 
   56700   -944.80087     43.71649   -901.08438    1565.7661    2450.9908    2.1838599    16.523973   0.13845325 
   56800   -947.96396    41.358472   -906.60548    1481.3105   -1165.0086    2.1838599    15.816958   0.13850873 
   56900   -949.71406    45.174844   -904.53922    1617.9991   -691.43688    2.1838599    15.145693   0.11779331 
   57000   -947.81084    47.588665   -900.22217    1704.4534    2413.7917    2.1838599    16.811338   0.12230907 
   57100   -946.19793    41.171518   -905.02641    1474.6145    841.31322    2.1838599    14.256576   0.10714706 
   57200   -951.52508    40.286943   -911.23813    1442.9322   -3722.4905    2.1838599    14.807676   0.11082716 
   57300   -949.54691    45.791284   -903.75563    1640.0777   -838.49274    2.1838599    14.496888   0.11475596 
   57400   -946.23662    45.144134   -901.09249    1616.8992    2146.1713    2.1838599    15.485261   0.11833362 
   57500   -950.95061    41.558434   -909.39217    1488.4724   -1403.5227    2.1838599    15.978745   0.11782232 
   57600   -948.12012    43.998439   -904.12168    1575.8645    1236.8733    2.1838599    15.268296   0.12957219 
   57700   -947.40843    44.671292   -902.73714    1599.9637    1311.7111    2.1838599    15.087117   0.13297482 
   57800   -947.43536    42.711097   -904.72426    1529.7566    182.37472    2.1838599    15.220515   0.12187685 
   57900   -948.89448    41.395777    -907.4987    1482.6466   -377.72857    2.1838599    14.663427   0.13675066 
   58000    -947.3743      48.2874    -899.0869    1729.4795    3539.4805    2.1838599    14.064711   0.11658459 
   58100   -950.48789    46.177753   -904.31014    1653.9197   -763.62316    2.1838599    13.427365   0.10843476 
   58200   -947.99549    42.180315   -905.81518    1510.7459    577.04877    2.1838599    13.698729   0.11422024 
   58300   -944.68825    43.435931   -901.25232    1555.7175    4469.9493    2.1838599    18.435564   0.11724268 
   58400   -948.89331     48.98387   -899.90944    1754.4246    2003.2005    2.1838599    18.157936   0.11432961 
   58500   -951.68204    43.883039     -907.799    1571.7313   -1891.9857    2.1838599    17.931693   0.11463228 
   58600   -947.29159    47.091407   -900.20018    1686.6434    1197.0483    2.1838599    16.480985   0.13906724 
   58700   -946.49298    44.764257   -901.72872    1603.2933    2152.4716    2.1838599    15.563473   0.12793158 
   58800   -949.53578    43.521988   -906.01379    1558.7998   -198.96273    2.1838599    15.305619   0.11816483 
   58900   -949.27087    40.638723   -908.63215    1455.5317    51.285075    2.1838599    17.101454   0.10722844 
   59000   -943.79762    43.685696   -900.11192    1564.6632     6151.178    2.1838599     14.95022   0.11110977 
   59100   -947.96615    43.444249    -904.5219    1556.0154    2309.0634    2.1838599    16.395871   0.10592902 
   59200   -950.78411    42.651681   -908.13243    1527.6285   -551.49958    2.1838599     14.70244   0.10676926 
   59300    -947.3565    44.686286   -902.67021    1600.5007    2062.2369    2.1838599    16.585474   0.11371535 
   59400    -948.7909    46.846546   -901.94435    1677.8734    2588.6525    2.1838599    17.939713   0.10174422 
   59500   -951.23523    41.954666   -909.28056     1502.664   -2738.5877    2.1838599    13.946918   0.11861433 
   59600   -944.16637    42.978332   -901.18804     1539.328    4700.8569    2.1838599    16.978367   0.12380077 
   59700   -949.63637     46.58838   -903.04799    1668.6268    681.30738    2.1838599    16.410605   0.11656436 
   59800   -953.64866    41.228168   -912.42049    1476.6435   -4622.9724    2.1838599    17.022179   0.10179108 
   59900   -950.77824    44.480726   -906.29751    1593.1383   -578.92865    2.1838599    16.789899   0.11184317 
   60000    -949.0932    48.110101    -900.9831    1723.1293    2096.5123    2.1838599    15.031909   0.13063261 
   60100    -948.6563    45.901132   -902.75517    1644.0121    1008.2693    2.1838599     15.13923   0.11873007 
   60200   -947.39743    39.785678   -907.61175    1424.9787   -39.508534    2.1838599     18.37652   0.11622031 
   60300   -946.23969    44.265111   -901.97458    1585.4157    926.26479    2.1838599    16.510855   0.11589507 
   60400   -949.03354    45.693627   -903.33991      1636.58    -399.8917    2.1838599    18.880221   0.11766061 
   60500   -953.03894    43.184787   -909.85416    1546.7225   -2683.7522    2.1838599    16.825029   0.10691821 
   60600   -947.59857    44.282579   -903.31599    1586.0414    2456.4234    2.1838599    14.562032   0.13288017 
   60700   -946.85832    45.109049   -901.74927    1615.6425     2250.806    2.1838599     15.21153   0.12469628 
   60800    -949.5085    40.406135   -909.10237    1447.2012   -527.99553    2.1838599    17.315889   0.12506314 
   60900   -943.78877    41.344865   -902.44391    1480.8231    2739.2207    2.1838599    16.724745   0.14391624 
   61000   -945.82322    44.349328   -901.47389    1588.4321    2224.4041    2.1838599    15.555174   0.13739642 
   61100   -948.92172     40.75186   -908.16986    1459.5838   -98.022837    2.1838599     15.48141   0.13109128 
   61200   -942.41163    43.414037   -898.99759    1554.9334     4476.273    2.1838599    15.839632   0.12112827 
   61300   -947.95429    44.656833   -903.29746    1599.4458   -396.84774    2.1838599    15.897293   0.12058727 
   61400   -950.15954    44.079591   -906.07995    1578.7711   -1405.0791    2.1838599    15.680491   0.12644011 
   61500   -943.86061    45.952919    -897.9077    1645.8669    4800.2684    2.1838599    15.625605    0.1372119 
   61600   -941.87837    46.794252   -895.08412    1676.0004    7854.2506    2.1838599    15.747912   0.13106178 
   61700   -949.01483    44.140976   -904.87385    1580.9697    572.31967    2.1838599    15.837802   0.12421247 
   61800   -948.92432    43.877126    -905.0472    1571.5195    952.65465    2.1838599    16.757162   0.12685713 
   61900   -944.44007    46.750283   -897.68978    1674.4256    3894.3826    2.1838599     14.61553   0.14936581 
   62000   -947.08278     43.95118    -903.1316    1574.1719   -256.63692    2.1838599    17.606178   0.13770322 
   62100   -946.99373    43.536343   -903.45739    1559.3139    1031.7258    2.1838599    15.671596   0.12086519 
   62200   -943.65374    45.044621   -898.60912     1613.335    5173.6913    2.1838599    15.198084   0.12335136 
   62300   -947.71098    44.678967   -903.03201    1600.2386    154.86789    2.1838599    14.309945   0.11266022 
   62400   -948.62637    43.203734   -905.42264    1547.4011    541.12135    2.1838599    15.764631   0.12247377 
   62500   -943.03244    45.191923   -897.84052    1618.6108    6986.6226    2.1838599    16.418651   0.11956878 
   62600   -942.62138    48.005221   -894.61616    1719.3729    7824.9248    2.1838599     15.18741   0.12375088 
   62700   -950.31899    45.756871   -904.56212    1638.8452   -1479.3926    2.1838599    15.067129   0.12137805 
   62800   -945.69454    40.482244   -905.21229    1449.9272    2317.6099    2.1838599    16.845207   0.12601099 
   62900   -944.76348    46.739859   -898.02362    1674.0522    4315.3552    2.1838599    13.821407    0.1369414 
   63000    -949.8284    42.097234   -907.73117    1507.7702    -914.3496    2.1838599    18.015594   0.11864706 
   63100   -949.30866    46.241209   -903.06745    1656.1924    21.219671    2.1838599    14.033137   0.11375837 
   63200   -945.87577    45.683341   -900.19243    1636.2116    4915.4536    2.1838599    14.364246   0.11681289 
   63300   -950.74555    40.892869   -909.85268    1464.6343   -2206.7709    2.1838599    16.003731   0.11472973 
   63400    -948.9515    46.602041   -902.34946    1669.1161    907.04722    2.1838599    15.476761   0.10988738 
   63500   -947.56096    45.532932   -902.02803    1630.8245    2059.9861    2.1838599    14.107697   0.10653564 
   63600   -950.47733     39.99565   -910.48168    1432.4991   -1468.1692    2.1838599    16.100071    0.1174021 
   63700   -946.33519    42.558489    -903.7767    1524.2908    2949.5318    2.1838599    13.817106   0.12282542 
   63800   -948.49313    46.262506   -902.23062    1656.9552    2618.5478    2.1838599    16.119569   0.11465647 
   63900   -950.45888    41.286338   -909.17254    1478.7269   -1923.3427    2.1838599    15.035841   0.11934173 
   64000    -947.0428    43.772245   -903.27056    1567.7631    1547.0765    2.1838599    14.332849   0.11415216 
   64100   -947.29396    45.451013   -901.84295    1627.8905    4663.3932    2.1838599    16.510399   0.11974292 
   64200   -951.32803    41.890737   -909.43729    1500.3743   -1717.0975    2.1838599    15.695511   0.11442615 
   64300   -949.04816    43.644736   -905.40342    1563.1962    1208.2127    2.1838599    17.999274   0.11317855 
   64400   -944.31674    43.808889   -900.50786    1569.0755     4558.504    2.1838599    15.088668   0.12392111 
   64500   -947.40134    40.840673   -906.56066    1462.7648    1707.9927    2.1838599    16.653097   0.11549577 
   64600   -947.74134    44.085961   -903.65538    1578.9993    1286.6297    2.1838599    14.823511   0.12105498 
   64700   -945.16735    45.148692   -900.01866    1617.0624    3907.4244    2.1838599    16.512332   0.13120516 
   64800    -948.5774    42.063921   -906.51348    1506.5771   -742.47201    2.1838599    17.919998    0.1114121 
   64900   -943.62432    40.482783   -903.14153    1449.9465    2666.4337    2.1838599    17.383052    0.1191344 
   65000   -948.31357    45.213291   -903.10028    1619.3761    572.24208    2.1838599    15.442908   0.11590795 
   65100   -948.55551    44.525009    -904.0305    1594.7243    1166.6499    2.1838599    18.687774   0.11236902 
   65200   -949.77336    45.572848   -904.20051    1632.2541    530.03318    2.1838599    12.582127   0.11391731 
   65300   -946.58256    47.771691   -898.81087    1711.0087     2428.059    2.1838599    13.956972   0.11741945 
   65400   -949.36749    43.827448   -905.54004    1569.7403   -1252.2145    2.1838599    14.816631   0.11693809 
   65500   -950.30409    45.109148   -905.19494    1615.6461   -613.37992    2.1838599    15.237051   0.11911715 
   65600   -943.45566    43.761511   -899.69415    1567.3786     4664.135    2.1838599    16.064399   0.13256378 
   65700   -948.02455    45.804478   -902.22007    1640.5503    2641.3914    2.1838599    17.376844   0.10767252 
   65800   -947.41902    40.683657   -906.73536    1457.1411   -650.98492    2.1838599    17.680413   0.11851224 
   65900    -949.3138    42.787768   -906.52603    1532.5027   -2466.9571    2.1838599    15.165733   0.12509825 
   66000     -949.064    49.508887   -899.55512    1773.2288   -301.55821    2.1838599     17.67499   0.12784903 
   66100   -949.92647    42.409742   -907.51672    1518.9632   -1415.9467    2.1838599    16.290262   0.13315459 
   66200   -950.26248    43.478104   -906.78438     1557.228   -1504.7382    2.1838599    17.136243   0.11927313 
   66300   -946.25223    45.072492   -901.17974    1614.3332    1346.3904    2.1838599    13.332412   0.11236107 
   66400   -946.40554    43.221533   -903.18401    1548.0386    195.86874    2.1838599    14.875596   0.12642727 
   66500   -953.26627    45.229759   -908.03651     1619.966   -4911.1265    2.1838599    16.578484   0.13180883 
   66600   -945.17572    44.582852   -900.59287    1596.7961      2451.61    2.1838599    18.187489   0.12453505 
   66700   -947.92912    44.582507   -903.34661    1596.7837    532.63431    2.1838599      18.5748   0.12229583 
   66800   -952.12661    39.744466   -912.38214    1423.5026   -3436.5813    2.1838599    15.902357   0.11044954 
   66900   -949.99011    43.993626   -905.99648    1575.6921   -2124.6728    2.1838599    16.318972    0.1274318 
   67000   -946.92486    45.580357   -901.34451    1632.5231    836.63992    2.1838599    15.350937    0.1445945 
   67100   -946.77969    44.606536   -902.17315    1597.6444    2124.5151    2.1838599    17.214795   0.12887897 
   67200   -950.73332    42.548253   -908.18507    1523.9241    -1622.216    2.1838599    15.497883   0.11103858 
   67300   -947.07954    47.119317   -899.96022    1687.6431    3391.2552    2.1838599     15.27494   0.10714906 
   67400    -947.5772    44.392682   -903.18451    1589.9849     1574.173    2.1838599    15.462849    0.1258534 
   67500   -951.71566    42.180757   -909.53491    1510.7617   -2669.2119    2.1838599     15.76808   0.11809981 
   67600   -948.80366    41.601187   -907.20247    1490.0037   -1028.7174    2.1838599    16.106785   0.11815747 
   67700   -943.43774    42.333111   -901.10463    1516.2185    4647.2701    2.1838599    17.623897   0.11150395 
   67800   -948.43047    42.182116   -906.24835    1510.8104    229.40867    2.1838599    14.756964   0.11813789 
   67900   -947.30353    40.566153   -906.73737    1452.9325     153.2617    2.1838599    16.230845   0.13484999 
   68000   -945.23657    44.642526   -900.59404    1598.9334    3906.8391    2.1838599    14.897302   0.12798734 
   68100   -947.47355    40.518614   -906.95493    1451.2298    514.71982    2.1838599     13.84286   0.12651787 
   68200   -948.91786    47.382911   -901.53495     1697.084     1029.716    2.1838599    14.436006    0.1151483 
   68300   -949.60116     48.91068   -900.69048    1751.8032    522.05982    2.1838599    17.089784   0.10685458 
   68400   -951.24608     44.86005   -906.38603    1606.7243   -921.72931    2.1838599    16.773989   0.11244647 
   68500   -948.63665    44.945878   -903.69077    1609.7983    302.05573    2.1838599    16.076126   0.11204142 
   68600   -945.30183    42.504324   -902.79751    1522.3507    729.12737    2.1838599    16.353017   0.11162385 
   68700   -950.61791    44.471569   -906.14634    1592.8103   -2271.0484    2.1838599    15.083478   0.10231286 
   68800   -949.27884    44.562583   -904.71626    1596.0701    -804.9987    2.1838599    14.736786   0.12079762 
   68900   -945.94994    46.468639    -899.4813    1664.3381    2117.6995    2.1838599    16.314262   0.11867381 
   69000     -948.384    41.604729   -906.77927    1490.1305    416.23492    2.1838599    15.282372   0.11504042 
   69100   -952.97831     39.75231     -913.226    1423.7836   -3440.1346    2.1838599    14.442555   0.10605895 
   69200    -947.9208    44.037557   -903.88324    1577.2656    1816.4637    2.1838599    18.480248   0.11449851 
   69300   -944.23449     44.35822   -899.87627    1588.7506    4619.7108    2.1838599    14.186626   0.11631161 
   69400   -952.99001    45.222902    -907.7671    1619.7204    -2746.092    2.1838599    16.015915  0.095935055 
   69500   -948.62513    45.540559   -903.08457    1631.0977     598.7002    2.1838599    13.826755   0.10942755 
   69600   -948.55699    47.068089    -901.4889    1685.8083    1258.6247    2.1838599    15.670645   0.10609867 
   69700   -949.95394     43.45242   -906.50152    1556.3081    -1006.414    2.1838599    14.068804   0.10956605 
   69800   -945.05531    44.302846   -900.75246    1586.7673    2596.4816    2.1838599    13.215519   0.11559766 
   69900   -946.37107    45.943095   -900.42797    1645.5151    3765.6261    2.1838599    13.775522   0.11148712 
   70000   -952.64872    46.867095   -905.78162    1678.6094   -3045.8804    2.1838599    15.462967   0.10426852 
   70100   -945.24883     43.17021   -902.07862    1546.2004    2180.7998    2.1838599    14.180162   0.11895717 
   70200   -942.45014    47.619092   -894.83105    1705.5432    5608.9633    2.1838599    14.872668   0.11675371 
   70300   -946.22221    44.093442   -902.12877    1579.2672    911.03399    2.1838599    17.387656   0.10383052 
   70400   -948.57327    43.288751   -905.28452    1550.4461   -643.12275    2.1838599    16.097318   0.10066338 
   70500   -944.19336    46.711907   -897.48145    1673.0511     5881.687    2.1838599    14.860481   0.11845052 
   70600    -950.7137    46.437754   -904.27594    1663.2319   -676.18636    2.1838599    15.151842   0.10550923 
   70700   -949.77049    45.322448   -904.44804    1623.2857    1368.9119    2.1838599     15.75478  0.095531084 
   70800   -948.77272    50.104062   -898.66866    1794.5458    3401.7037    2.1838599    14.486687  0.098553269 
   70900   -949.55748    42.442555   -907.11493    1520.1384    1115.2445    2.1838599    15.137963  0.097182294 
[...]
  186800   -954.84688    48.631752   -906.21513     1741.813   -2372.9327    2.1838599    17.546737   0.11047997 
  186900   -944.90714    45.865215   -899.04193    1642.7257    7339.8693    2.1838599    17.322798   0.10765458 
  187000   -945.97192    42.513729   -903.45819    1522.6876    5711.0341    2.1838599    15.677075   0.10725765 
  187100   -949.43348    44.547047   -904.88644    1595.5137     1705.097    2.1838599     17.39734   0.11023142 
  187200   -945.31423    48.670743   -896.64349    1743.2095    7150.2801    2.1838599    18.569349   0.12169134 
  187300   -947.46938    42.733216   -904.73617    1530.5488    3753.3606    2.1838599    16.881468   0.10909081 
  187400   -949.67373    45.331016   -904.34272    1623.5926    1896.4112    2.1838599    18.152867    0.1145829 
  187500   -945.75069    50.932939   -894.81775    1824.2331    7295.5193    2.1838599    14.258469   0.11521419 
  187600   -945.11271     44.35711    -900.7556    1588.7108    4192.6061    2.1838599    16.192408   0.11474364 
  187700   -949.10467    42.688078    -906.4166    1528.9322    2117.8987    2.1838599    17.419525   0.11509577 
  187800   -946.81523    46.017001   -900.79823    1648.1621     2702.912    2.1838599     15.52246   0.12905059 
  187900   -941.41657    40.874895   -900.54167    1463.9905     6996.716    2.1838599    15.988297   0.12624983 
  188000   -946.05678    41.061923   -904.99486    1470.6892    994.33246    2.1838599    18.758566   0.12124914 
  188100   -943.04751    41.036694   -902.01081    1469.7856    3295.7571    2.1838599    14.137551   0.12542296 
  188200   -941.36188    48.646891   -892.71499    1742.3552    7200.0256    2.1838599    32.510116   0.13519858 
  188300   -947.41817    45.825513   -901.59266    1641.3037    2254.8856    2.1838599    37.635539   0.14509738 
  188400   -947.65595    43.382894   -904.27306    1553.8179   -145.63538    2.1838599    34.305929   0.14545052 
  188500   -943.50283    44.188547   -899.31428    1582.6735    5635.0521    2.1838599    35.196443    0.1381372 
  188600   -945.50545     45.97872   -899.52673     1646.791    5820.0653    2.1838599    39.748354   0.12856618 
  188700   -947.11744    42.220588   -904.89685    1512.1884    988.85863    2.1838599    40.013686   0.13066675 
  188800   -946.48665    47.725885   -898.76076    1709.3681    2506.1443    2.1838599     33.32659   0.12924174 
  188900   -947.97267    48.444967    -899.5277     1735.123    1932.7642    2.1838599    44.671517   0.14570935 
  189000   -948.05191    41.535384   -906.51653    1487.6468    790.72169    2.1838599    41.012119   0.14651909 
  189100   -944.18573    45.752633   -898.43309    1638.6934     4628.874    2.1838599    27.749161   0.14183602 
  189200    -945.7845    45.956909   -899.82759    1646.0098    3423.7475    2.1838599    28.020655   0.13925698 
  189300    -949.6165    46.794927   -902.82157    1676.0246   -74.499645    2.1838599     29.65601    0.1272758 
  189400   -945.19115    44.485786   -900.70537    1593.3195    2891.2699    2.1838599     27.39925   0.15217473 
  189500   -940.47106    44.556774   -895.91428    1595.8621    7392.5087    2.1838599    28.361493   0.16147494 
  189600   -947.67272    43.772944   -903.89978    1567.7881     1805.862    2.1838599     27.23303   0.13098842 
  189700   -944.98023    44.353417   -900.62681    1588.5785    4647.5946    2.1838599    30.423972   0.12593883 
  189800   -943.23171    47.782732   -895.44898    1711.4042     8237.652    2.1838599     32.22706   0.12252876 
  189900   -947.61418    45.719637   -901.89454    1637.5116    3871.4925    2.1838599     43.31941   0.12613156 
  190000   -947.50712    42.138311   -905.36881    1509.2415    2996.3072    2.1838599    37.366684   0.13849819 
  190100   -950.53056    44.629533   -905.90103     1598.468    1248.5171    2.1838599    38.991949   0.14017192 
  190200   -942.61824    44.119785   -898.49846    1580.2107    7447.2288    2.1838599    40.844799   0.14860345 
  190300   -948.58468    42.377019   -906.20766    1517.7912    2738.5269    2.1838599    36.155397   0.13553635 
  190400   -946.55905    41.661899   -904.89715    1492.1781    3049.0315    2.1838599    43.538866   0.12569879 
  190500   -944.92457    45.207058   -899.71752    1619.1529    4444.4591    2.1838599    39.315137   0.15357409 
  190600   -948.60092    39.813785   -908.78714    1425.9854    587.54518    2.1838599    38.443263   0.13373574 
  190700   -945.54452     42.94076   -902.60376    1537.9823    2855.0167    2.1838599     30.38565   0.14526493 
  190800   -946.12145      45.4556   -900.66585    1628.0548    3988.6001    2.1838599    43.535613   0.12640526 
  190900   -948.26992    38.723958   -909.54596    1386.9518   -428.06202    2.1838599    40.191837   0.13228585 
  191000   -951.17931    45.577009    -905.6023    1632.4032    -908.9226    2.1838599    37.427583   0.14496048 
  191100   -949.75791    48.283543   -901.47437    1729.3414     3202.884    2.1838599    45.546035   0.11835267 
  191200   -945.18558     46.76359   -898.42199    1674.9022    3711.2172    2.1838599    28.126415    0.1299899 
  191300   -947.14491    40.752598   -906.39231    1459.6103    2354.4142    2.1838599     37.15916   0.13891081 
  191400   -952.53182    50.109791   -902.42203     1794.751   -501.98424    2.1838599    35.438641    0.1388949 
  191500   -946.00199    46.642034   -899.35996    1670.5485    4125.5083    2.1838599    35.117104   0.14505436 
  191600   -946.94665    42.658047    -904.2886    1527.8565    4244.9168    2.1838599    39.458539   0.15031788 
  191700   -947.14947    41.089125   -906.06035    1471.6634    1828.1089    2.1838599    35.445794   0.12808948 
  191800   -942.36734    44.020344   -898.34699    1576.6491    7616.9197    2.1838599    45.217877   0.13602235 
  191900   -948.66463    44.434843   -904.22979    1591.4949    938.74481    2.1838599    40.097806   0.11005202 
  192000   -948.11355    43.125384   -904.98816    1544.5949    1486.4358    2.1838599    35.693893   0.12267742 
  192100   -947.20062    46.029309   -901.17131    1648.6029    2606.7973    2.1838599     37.16382   0.11831118 
  192200   -950.82888    41.150995   -909.67788    1473.8794   -2031.2387    2.1838599    36.476537   0.11518316 
  192300   -948.75057    42.819874   -905.93069    1533.6526    376.09684    2.1838599    36.661627   0.11748486 
  192400   -944.82978    43.654195   -901.17559     1563.535    1882.5472    2.1838599    36.161369   0.12004916 
  192500   -951.97473    45.626905   -906.34782    1634.1903   -3189.5911    2.1838599    36.440574   0.12004716 
  192600   -950.25658    43.446518   -906.81006    1556.0967   -1473.9265    2.1838599    38.955588   0.11256337 
  192700   -942.60607    40.740092   -901.86598    1459.1623    2992.5617    2.1838599    34.692917   0.13474389 
  192800   -949.73899    44.880233   -904.85876    1607.4472    -2808.589    2.1838599    39.901695   0.12488388 
  192900   -949.17433    38.853416   -910.32091    1391.5885    -2052.025    2.1838599    40.823089   0.11000592 
  193000   -946.23308    45.079932   -901.15315    1614.5997    2822.6946    2.1838599    39.080477   0.12735745 
  193100   -947.74087    43.252523   -904.48834    1549.1485    1660.0057    2.1838599    36.831651   0.10834703 
  193200   -949.47777     39.58418   -909.89359    1417.7618   -2385.6931    2.1838599    36.438514   0.11600357 
  193300   -946.50369    46.725214   -899.77848    1673.5277    4123.1184    2.1838599     35.65956    0.1241521 
  193400     -950.672      45.8316    -904.8404    1641.5217   -764.45188    2.1838599    39.989582   0.10724454 
  193500   -947.53164    41.301731   -906.22991    1479.2782  -0.46755606    2.1838599    37.880719   0.12140197 
  193600   -946.36273    47.765779   -898.59695     1710.797     3851.355    2.1838599    41.220761   0.12212338 
  193700   -951.57677    45.332479   -906.24429     1623.645   -1816.2315    2.1838599    37.692092     0.120993 
  193800   -943.13487    42.393422   -900.74145    1518.3786    4834.8619    2.1838599    38.630625   0.12259019 
  193900   -945.30432    46.358374   -898.94595    1660.3888    4852.1733    2.1838599    36.403534   0.11732383 
  194000   -951.36764    46.377566   -904.99007    1661.0762   -1949.8752    2.1838599    38.629739   0.10991055 
  194100   -947.40405    45.723861   -901.68019    1637.6629    2309.3662    2.1838599    38.018675   0.10822698 
  194200    -946.2714    48.539803   -897.73159    1738.5197    3799.1567    2.1838599    33.464276   0.12699816 
  194300   -947.26248    43.049554   -904.21293    1541.8789    2243.8348    2.1838599    39.248033   0.11455151 
  194400   -947.55441    45.237562   -902.31684    1620.2454    2884.1033    2.1838599    36.035591   0.10977447 
  194500   -945.43291    48.887944   -896.54497    1750.9888    3912.7738    2.1838599     40.24356   0.11316662 
  194600   -945.96615     41.36191   -904.60424    1481.4336    2237.2426    2.1838599    37.467454   0.11417156 
  194700   -947.14577    45.008144   -902.13763    1612.0285    2864.4735    2.1838599    40.735648   0.11119026 
  194800   -944.35332    48.598711    -895.7546    1740.6296    5991.5172    2.1838599    39.624415   0.12659465 
  194900   -948.86326    43.051601   -905.81166    1541.9522    1063.4422    2.1838599    36.881342   0.11028345 
  195000   -945.86077    43.103417   -902.75735    1543.8081    2944.2989    2.1838599    35.306317   0.12212413 
  195100   -942.37044    44.568908   -897.80153    1596.2966     5951.555    2.1838599    40.280412   0.11404285 
  195200    -951.1031    43.825834   -907.27727    1569.6824   -1556.2717    2.1838599    35.760799   0.11385156 
  195300   -944.20778    44.116743   -900.09103    1580.1017    4432.2279    2.1838599    35.687547   0.12643185 
  195400   -947.64463    42.587723    -905.0569    1525.3378    2158.7055    2.1838599    41.764258   0.10457506 
  195500   -949.70009     42.67459    -907.0255    1528.4491   -1076.1561    2.1838599    38.653027   0.11081377 
  195600    -942.4075    41.112981   -901.29452    1472.5179    5356.8595    2.1838599    38.896981   0.12177611 
  195700   -945.44333    41.350513   -904.09282    1481.0254    4116.3955    2.1838599    38.131983   0.11654494 
  195800   -953.11451    42.164123   -910.95039     1510.166   -3940.2053    2.1838599    37.569634   0.11723007 
  195900   -948.91002    45.821406   -903.08862    1641.1566    758.53555    2.1838599    39.271559   0.11917548 
  196000   -945.74413    43.837826    -901.9063     1570.112    2668.3483    2.1838599    37.596169    0.1201827 
  196100   -952.46136    42.567607   -909.89376    1524.6173   -2647.9564    2.1838599    36.814362   0.10462495 
  196200   -946.51277    44.164181   -902.34858    1581.8008    2990.9835    2.1838599    40.975004   0.12246285 
  196300   -943.05637    40.063561   -902.99281    1434.9315    5155.3767    2.1838599    37.542338   0.12761236 
  196400   -954.41279    44.489906   -909.92288    1593.4671   -4385.4063    2.1838599    40.412997   0.10113632 
  196500   -948.75771    45.210712     -903.547    1619.2837    2335.7973    2.1838599    43.113748   0.10312072 
  196600     -952.411    50.835199   -901.57581    1820.7325   -1309.5772    2.1838599    38.802667   0.11138477 
  196700   -950.46424    41.927197   -908.53704    1501.6801   -262.30677    2.1838599    39.096042    0.1136939 
  196800   -946.97062    44.764311   -902.20631    1603.2953     3579.487    2.1838599    41.278161   0.11826518 
  196900   -944.70293    43.311446   -901.39149    1551.2589    3953.4036    2.1838599    36.339454   0.11851416 
  197000   -946.81635    39.205409   -907.61094    1404.1956    974.42126    2.1838599    41.075182   0.11681983 
  197100   -943.63814    46.229265   -897.40888    1655.7646    5517.5643    2.1838599    37.015341    0.1255812 
  197200   -948.52585    44.671145   -903.85471    1599.9584    962.01855    2.1838599    40.352741    0.1141787 
  197300   -945.70047    40.384971    -905.3155    1446.4432    1941.9377    2.1838599    35.711324   0.11512503 
  197400   -942.64653    47.647101   -894.99943    1706.5464    6693.5763    2.1838599    41.481934   0.10934457 
  197500   -949.84799     47.43742   -902.41057    1699.0363    916.27308    2.1838599    38.259474   0.10411913 
  197600   -950.60028    45.399185    -905.2011    1626.0342   -495.61828    2.1838599    39.631621   0.10440082 
  197700   -944.48665    47.985668   -896.50098    1718.6726    6469.8301    2.1838599    35.231597   0.12192384 
  197800   -952.42868    49.242526   -903.18616    1763.6887   -997.06801    2.1838599    37.178509   0.10216897 
  197900   -949.05387    44.985858   -904.06801    1611.2303    534.21859    2.1838599     40.63511   0.10995875 
  198000   -943.72491    46.583072   -897.14183    1668.4367         5539    2.1838599    39.782254     0.112983 
  198100   -945.43939    43.918291    -901.5211    1572.9939     2436.873    2.1838599    35.267164   0.11573952 
  198200   -946.75176    42.092485   -904.65928    1507.6002    820.83364    2.1838599    39.667191   0.12520533 
  198300   -947.62559    48.446384   -899.17921    1735.1738     3174.088    2.1838599    38.462679   0.11522489 
  198400   -946.78098     46.27515   -900.50583     1657.408    971.28037    2.1838599    42.029908   0.12850988 
  198500   -946.91265    41.057545   -905.85511    1470.5324    1320.5278    2.1838599    37.722846   0.12234004 
  198600   -944.28315    45.544372   -898.73877    1631.2342    4220.0032    2.1838599    35.113522   0.12466029 
  198700   -948.18112     41.88577   -906.29535    1500.1964    990.73297    2.1838599     36.96796   0.12037458 
  198800   -950.45448    45.470631   -904.98385    1628.5931   -330.88832    2.1838599    38.560828   0.11372321 
  198900    -947.3883    47.491402    -899.8969    1700.9698    1290.0454    2.1838599     45.59137   0.11146614 
  199000   -950.60791    40.771286   -909.83663    1460.2796   -741.55665    2.1838599    42.239984   0.10740098 
  199100   -946.62252    40.613688   -906.00883     1454.635    1192.9117    2.1838599    39.516182   0.11431065 
  199200   -946.40952    45.920382   -900.48914    1644.7015    2516.5238    2.1838599    39.057591   0.11652989 
  199300   -950.29624    41.997373   -908.29886    1504.1936   -501.96213    2.1838599    36.247573   0.11052871 
  199400   -946.14588    39.980237   -906.16564    1431.9471    1505.9938    2.1838599    39.940237   0.12159773 
  199500   -944.72555     42.08152   -902.64403    1507.2074    3634.4154    2.1838599    38.498467   0.12115324 
  199600   -946.65593    42.771331    -903.8846     1531.914     1647.617    2.1838599    37.794074   0.11753265 
  199700   -951.22541    42.550732   -908.67468    1524.0129    -1604.766    2.1838599    36.905553   0.11176094 
  199800   -945.76625    45.611971   -900.15428    1633.6554    3111.0186    2.1838599    38.823699   0.10899663 
  199900   -950.31411    46.606756   -903.70736     1669.285   -924.39298    2.1838599    39.663895    0.1017654 
  200000   -953.18142    39.761256   -913.42017     1424.104    -4704.957    2.1838599    41.251453  0.096370771 
  200100   -950.25892    45.549332   -904.70959    1631.4119   -1441.7758    2.1838599    41.422244   0.11598306 
  200200   -944.69361    44.139457   -900.55416    1580.9153    5038.0587    2.1838599    39.292806    0.1252656 
  200300   -949.39611    44.492386   -904.90372    1593.5559   -1743.2184    2.1838599    37.396287    0.1262994 
  200400   -951.55657    44.601222   -906.95535     1597.454   -2463.7001    2.1838599    36.885039   0.12838824 
  200500   -949.57556    50.295567      -899.28    1801.4048    1215.2708    2.1838599    38.111941   0.12097286 
  200600   -951.07558    44.958163   -906.11742    1610.2384   -2414.1286    2.1838599     38.09232   0.11053464 
  200700   -949.19861    48.762202    -900.4364    1746.4852     1188.571    2.1838599    37.121459   0.10508748 
  200800   -947.56007    48.125812   -899.43426    1723.6921    1990.6104    2.1838599    37.511569   0.10992705 
  200900   -949.33092    43.865804   -905.46512     1571.114   -80.901772    2.1838599    41.192829   0.10076953 
  201000   -944.27703    45.603232    -898.6738    1633.3424    5022.8592    2.1838599    37.888575   0.10963124 
  201100   -946.80929    47.678496   -899.13079    1707.6708    3458.2966    2.1838599    39.592325   0.11608547 
  201200   -952.43315    48.716864   -903.71628    1744.8614   -1068.9911    2.1838599    38.852028   0.10893493 
  201300   -948.02613    43.318278   -904.70786    1551.5036    1473.6868    2.1838599    38.041267   0.12307967 
  201400    -948.3844    48.257966   -900.12643    1728.4253    1338.8365    2.1838599    36.886037   0.11557276 
  201500   -949.46216    45.967386   -903.49477    1646.3851    487.15658    2.1838599    40.359727    0.1089547 
  201600   -948.27268    41.416064   -906.85661    1483.3732    800.76771    2.1838599    38.905898   0.10798124 
  201700   -946.24141    44.172022   -902.06939    1582.0816    3220.1674    2.1838599    38.010994   0.11279265 
  201800   -949.41778     46.06687   -903.35091    1649.9482    503.66452    2.1838599    39.449306   0.11620289 
  201900   -948.71627    39.835751   -908.88052    1426.7721   -905.07066    2.1838599    42.465331   0.10804091 
  202000   -945.24483    42.236871   -903.00796    1512.7715    2803.4098    2.1838599    42.913295   0.12040826 
  202100   -946.29547    44.964727   -901.33074    1610.4735    3162.1822    2.1838599    35.684198   0.12466457 
  202200   -947.52592    37.808487   -909.71744    1354.1629   -55.636806    2.1838599    36.781713   0.11550509 
  202300   -945.98618    44.145113   -901.84107    1581.1178    1503.0735    2.1838599    34.477786   0.12595493 
  202400   -948.68474    47.495691   -901.18905    1701.1234    1504.1352    2.1838599    39.766522   0.10372296 
  202500   -949.39857    41.817426   -907.58115    1497.7485   -1324.2005    2.1838599    40.756506   0.11665864 
  202600   -943.74449    45.922572   -897.82192      1644.78    5035.7148    2.1838599    42.759609   0.11997639 
  202700   -950.12149     46.74613   -903.37536    1674.2768   -628.00054    2.1838599    36.559454   0.10421096 
  202800   -950.52897    45.341825   -905.18715    1623.9798   -103.37343    2.1838599    36.181839   0.10445573 
  202900   -949.12795    49.859447    -899.2685    1785.7846    2846.7273    2.1838599    36.326762   0.11406502 
  203000   -941.78371    45.737591   -896.04612    1638.1546    6528.0667    2.1838599    40.363028   0.13129276 
  203100   -944.59203    39.823894   -904.76813    1426.3475    3666.6443    2.1838599    37.432115   0.12399868 
  203200   -948.43219    44.240553   -904.19163    1584.5362    1335.2801    2.1838599    35.977888   0.12612845 
Loop time of 144.725 on 1 procs for 200000 steps with 217 atoms

Performance: 358.197 ns/day, 0.067 hours/ns, 1381.934 timesteps/s
100.0% CPU use with 1 MPI tasks x no OpenMP threads

MPI task timing breakdown:
Section |  min time  |  avg time  |  max time  |%varavg| %total
---------------------------------------------------------------
Pair    | 141.9      | 141.9      | 141.9      |   0.0 | 98.05
Neigh   | 0.59787    | 0.59787    | 0.59787    |   0.0 |  0.41
Comm    | 0.93161    | 0.93161    | 0.93161    |   0.0 |  0.64
Output  | 0.070818   | 0.070818   | 0.070818   |   0.0 |  0.05
Modify  | 0.91971    | 0.91971    | 0.91971    |   0.0 |  0.64
Other   |            | 0.3093     |            |       |  0.21

Nlocal:    217 ave 217 max 217 min
Histogram: 1 0 0 0 0 0 0 0 0 0
Nghost:    953 ave 953 max 953 min
Histogram: 1 0 0 0 0 0 0 0 0 0
Neighs:    4223 ave 4223 max 4223 min
Histogram: 1 0 0 0 0 0 0 0 0 0
FullNghs:  8446 ave 8446 max 8446 min
Histogram: 1 0 0 0 0 0 0 0 0 0

Total # of neighbors = 8446
Ave neighs/atom = 38.9217
Neighbor list builds = 972
Dangerous builds = 8
Total wall time: 0:02:27
