
     Program PWSCF v.6.4.1 starts on 13Dec2020 at 10:16:47 

     This program is part of the open-source Quantum ESPRESSO suite
     for quantum simulation of materials; please cite
         "P. Giannozzi et al., J. Phys.:Condens. Matter 21 395502 (2009);
         "P. Giannozzi et al., J. Phys.:Condens. Matter 29 465901 (2017);
          URL http://www.quantum-espresso.org", 
     in publications or presentations arising from this work. More details at
     http://www.quantum-espresso.org/quote

     Parallel version (MPI), running on     2 processors

     MPI processes distributed on     1 nodes
     R & G space division:  proc/nbgrp/npool/nimage =       2
     Waiting for input...
     Reading input from standard input
Warning: card &IONS ignored
Warning: card     ION_DYNAMICS = 'BFGS' ignored
Warning: card / ignored
Warning: card &CELL ignored
Warning: card     CELL_DOFREE = 'ALL' ignored
Warning: card     CELL_DYNAMICS = 'BFGS' ignored
Warning: card     PRESS = 0.0 ignored
Warning: card     PRESS_CONV_THR = 0.1 ignored
Warning: card / ignored

     Current dimensions of program PWSCF are:
     Max number of different atomic species (ntypx) = 10
     Max number of k-points (npk) =  40000
     Max angular momentum in pseudopotentials (lmaxx) =  3

     Subspace diagonalization in iterative solution of the eigenvalue problem:
     a serial algorithm will be used

     Found symmetry operation: I + (  0.0000  0.0000 -0.5000)
     This is a supercell, fractional translations are disabled

     Parallelization info
     --------------------
     sticks:   dense  smooth     PW     G-vecs:    dense   smooth      PW
     Min        1004     498    146                33844    11922    1954
     Max        1005     499    147                33847    11925    1957
     Sum        2009     997    293                67691    23847    3911



     bravais-lattice index     =            0
     lattice parameter (alat)  =      17.7634  a.u.
     unit-cell volume          =    5605.0587 (a.u.)^3
     number of atoms/cell      =           80
     number of atomic types    =            4
     number of electrons       =       256.00
     number of Kohn-Sham states=          154
     kinetic-energy cutoff     =      10.0000  Ry
     charge density cutoff     =      80.0000  Ry
     convergence threshold     =      1.0E-07
     mixing beta               =       0.5000
     number of iterations used =            8  plain     mixing
     Exchange-correlation      =  SLA  PW   PBX  PBC ( 1  4  3  4 0 0)

     celldm(1)=  17.763426  celldm(2)=   0.000000  celldm(3)=   0.000000
     celldm(4)=   0.000000  celldm(5)=   0.000000  celldm(6)=   0.000000

     crystal axes: (cart. coord. in units of alat)
               a(1) = (   1.000000   0.000000   0.000000 )  
               a(2) = (   0.000000   1.000000   0.000000 )  
               a(3) = (   0.000000   0.000000   1.000000 )  

     reciprocal axes: (cart. coord. in units 2 pi/alat)
               b(1) = (  1.000000  0.000000  0.000000 )  
               b(2) = (  0.000000  1.000000  0.000000 )  
               b(3) = (  0.000000  0.000000  1.000000 )  


     PseudoPot. # 1 for B  read from file:
     /home/modeler/qe_pseudo/b_pbe_v1.4.uspp.F.UPF
     MD5 check sum: cc6de2960df11db49a60e589f9ebb39b
     Pseudo is Ultrasoft + core correction, Zval =  3.0
     Generated by new atomic code, or converted to UPF format
     Using radial grid of  781 points,  4 beta functions with: 
                l(1) =   0
                l(2) =   0
                l(3) =   1
                l(4) =   1
     Q(r) pseudized with  8 coefficients,  rinner =    1.100   1.100   1.100


     PseudoPot. # 2 for H  read from file:
     /home/modeler/qe_pseudo/H.pbe-rrkjus_psl.1.0.0.UPF
     MD5 check sum: f52b6d4d1c606e5624b1dc7b2218f220
     Pseudo is Ultrasoft, Zval =  1.0
     Generated using "atomic" code by A. Dal Corso v.5.1
     Using radial grid of  929 points,  2 beta functions with: 
                l(1) =   0
                l(2) =   0
     Q(r) pseudized with 0 coefficients 


     PseudoPot. # 3 for N  read from file:
     /home/modeler/qe_pseudo/N.pbe-n-radius_5.UPF
     MD5 check sum: 16739722b17309cd8fe442a2ace49922
     Pseudo is Ultrasoft + core correction, Zval =  5.0
     Generated using "atomic" code by A. Dal Corso v.5.1
     Using radial grid of 1085 points,  4 beta functions with: 
                l(1) =   0
                l(2) =   0
                l(3) =   1
                l(4) =   1
     Q(r) pseudized with 0 coefficients 


     PseudoPot. # 4 for Na read from file:
     /home/modeler/qe_pseudo/na_pbe_v1.5.uspp.F.UPF
     MD5 check sum: 44600605ef58000f06b90626533354dc
     Pseudo is Ultrasoft, Zval =  9.0
     Generated by new atomic code, or converted to UPF format
     Using radial grid of  819 points,  5 beta functions with: 
                l(1) =   0
                l(2) =   0
                l(3) =   1
                l(4) =   1
                l(5) =   2
     Q(r) pseudized with  8 coefficients,  rinner =    1.250   1.250   1.250
                                                       1.250   1.250

     atomic species   valence    mass     pseudopotential
        B              3.00    10.81000     B ( 1.00)
        H              1.00     1.00800     H ( 1.00)
        N              5.00    14.00700     N ( 1.00)
        Na             9.00    22.98977     Na( 1.00)

     No symmetry found



   Cartesian axes

     site n.     atom                  positions (alat units)
         1           Na  tau(   1) = (   0.2500000   0.0000000   0.2500000  )
         2           Na  tau(   2) = (   0.0000000   0.2500000   0.2500000  )
         3           N   tau(   3) = (   0.2500000   0.2500000   0.2500000  )
         4           H   tau(   4) = (   0.3482926   0.2500000   0.2152479  )
         5           H   tau(   5) = (   0.2008532   0.3351245   0.2152479  )
         6           B   tau(   6) = (   0.0000000   0.0000000   0.0000000  )
         7           H   tau(   7) = (   0.1173500   0.0000000   0.4585106  )
         8           H   tau(   8) = (   0.4413255   0.1016277   0.4585106  )
         9           H   tau(   9) = (   0.4413255   0.3983723   0.4585106  )
        10           H   tau(  10) = (   0.0000000   0.0000000   0.1244681  )
        11           Na  tau(  11) = (   0.2500000   0.0000000   0.7500000  )
        12           Na  tau(  12) = (   0.0000000   0.2500000   0.7500000  )
        13           N   tau(  13) = (   0.2500000   0.2500000   0.7500000  )
        14           H   tau(  14) = (   0.3482926   0.2500000   0.7152479  )
        15           H   tau(  15) = (   0.2008532   0.3351245   0.7152479  )
        16           B   tau(  16) = (   0.0000000   0.0000000   0.5000000  )
        17           H   tau(  17) = (   0.1173500   0.0000000   0.9585106  )
        18           H   tau(  18) = (   0.4413255   0.1016277   0.9585106  )
        19           H   tau(  19) = (   0.4413255   0.3983723   0.9585106  )
        20           H   tau(  20) = (   0.0000000   0.0000000   0.6244681  )
        21           Na  tau(  21) = (   0.2500000   0.5000000   0.2500000  )
        22           Na  tau(  22) = (   0.0000000   0.7500000   0.2500000  )
        23           N   tau(  23) = (   0.2500000   0.7500000   0.2500000  )
        24           H   tau(  24) = (   0.3482926   0.7500000   0.2152479  )
        25           H   tau(  25) = (   0.2008532   0.8351245   0.2152479  )
        26           B   tau(  26) = (   0.0000000   0.5000000   0.0000000  )
        27           H   tau(  27) = (   0.1173500   0.5000000   0.4585106  )
        28           H   tau(  28) = (   0.4413255   0.6016277   0.4585106  )
        29           H   tau(  29) = (   0.4413255   0.8983723   0.4585106  )
        30           H   tau(  30) = (   0.0000000   0.5000000   0.1244681  )
        31           Na  tau(  31) = (   0.2500000   0.5000000   0.7500000  )
        32           Na  tau(  32) = (   0.0000000   0.7500000   0.7500000  )
        33           N   tau(  33) = (   0.2500000   0.7500000   0.7500000  )
        34           H   tau(  34) = (   0.3482926   0.7500000   0.7152479  )
        35           H   tau(  35) = (   0.2008532   0.8351245   0.7152479  )
        36           B   tau(  36) = (   0.0000000   0.5000000   0.5000000  )
        37           H   tau(  37) = (   0.1173500   0.5000000   0.9585106  )
        38           H   tau(  38) = (   0.4413255   0.6016277   0.9585106  )
        39           H   tau(  39) = (   0.4413255   0.8983723   0.9585106  )
        40           H   tau(  40) = (   0.0000000   0.5000000   0.6244681  )
        41           Na  tau(  41) = (   0.7500000   0.0000000   0.2500000  )
        42           Na  tau(  42) = (   0.5000000   0.2500000   0.2500000  )
        43           N   tau(  43) = (   0.7500000   0.2500000   0.2500000  )
        44           H   tau(  44) = (   0.8482926   0.2500000   0.2152479  )
        45           H   tau(  45) = (   0.7008532   0.3351245   0.2152479  )
        46           B   tau(  46) = (   0.5000000   0.0000000   0.0000000  )
        47           H   tau(  47) = (   0.6173500   0.0000000   0.4585106  )
        48           H   tau(  48) = (   0.9413255   0.1016277   0.4585106  )
        49           H   tau(  49) = (   0.9413255   0.3983723   0.4585106  )
        50           H   tau(  50) = (   0.5000000   0.0000000   0.1244681  )
        51           Na  tau(  51) = (   0.7500000   0.0000000   0.7500000  )
        52           Na  tau(  52) = (   0.5000000   0.2500000   0.7500000  )
        53           N   tau(  53) = (   0.7500000   0.2500000   0.7500000  )
        54           H   tau(  54) = (   0.8482926   0.2500000   0.7152479  )
        55           H   tau(  55) = (   0.7008532   0.3351245   0.7152479  )
        56           B   tau(  56) = (   0.5000000   0.0000000   0.5000000  )
        57           H   tau(  57) = (   0.6173500   0.0000000   0.9585106  )
        58           H   tau(  58) = (   0.9413255   0.1016277   0.9585106  )
        59           H   tau(  59) = (   0.9413255   0.3983723   0.9585106  )
        60           H   tau(  60) = (   0.5000000   0.0000000   0.6244681  )
        61           Na  tau(  61) = (   0.7500000   0.5000000   0.2500000  )
        62           Na  tau(  62) = (   0.5000000   0.7500000   0.2500000  )
        63           N   tau(  63) = (   0.7500000   0.7500000   0.2500000  )
        64           H   tau(  64) = (   0.8482926   0.7500000   0.2152479  )
        65           H   tau(  65) = (   0.7008532   0.8351245   0.2152479  )
        66           B   tau(  66) = (   0.5000000   0.5000000   0.0000000  )
        67           H   tau(  67) = (   0.6173500   0.5000000   0.4585106  )
        68           H   tau(  68) = (   0.9413255   0.6016277   0.4585106  )
        69           H   tau(  69) = (   0.9413255   0.8983723   0.4585106  )
        70           H   tau(  70) = (   0.5000000   0.5000000   0.1244681  )
        71           Na  tau(  71) = (   0.7500000   0.5000000   0.7500000  )
        72           Na  tau(  72) = (   0.5000000   0.7500000   0.7500000  )
        73           N   tau(  73) = (   0.7500000   0.7500000   0.7500000  )
        74           H   tau(  74) = (   0.8482926   0.7500000   0.7152479  )
        75           H   tau(  75) = (   0.7008532   0.8351245   0.7152479  )
        76           B   tau(  76) = (   0.5000000   0.5000000   0.5000000  )
        77           H   tau(  77) = (   0.6173500   0.5000000   0.9585106  )
        78           H   tau(  78) = (   0.9413255   0.6016277   0.9585106  )
        79           H   tau(  79) = (   0.9413255   0.8983723   0.9585106  )
        80           H   tau(  80) = (   0.5000000   0.5000000   0.6244681  )

     number of k points=     8  Methfessel-Paxton smearing, width (Ry)=  0.0200
                       cart. coord. in units 2pi/alat
        k(    1) = (   0.0000000   0.0000000   0.0000000), wk =   0.2500000
        k(    2) = (   0.0000000   0.0000000  -0.5000000), wk =   0.2500000
        k(    3) = (   0.0000000  -0.5000000  -0.5000000), wk =   0.2500000
        k(    4) = (  -0.5000000  -0.5000000  -0.5000000), wk =   0.2500000
        k(    5) = (  -0.5000000   0.0000000   0.0000000), wk =   0.2500000
        k(    6) = (   0.0000000  -0.5000000   0.0000000), wk =   0.2500000
        k(    7) = (  -0.5000000   0.0000000   0.5000000), wk =   0.2500000
        k(    8) = (  -0.5000000   0.5000000   0.0000000), wk =   0.2500000

     Dense  grid:    67691 G-vectors     FFT dimensions: (  54,  54,  54)

     Smooth grid:    23847 G-vectors     FFT dimensions: (  36,  36,  36)

     Estimated max dynamical RAM per process >     247.79 MB

     Estimated total dynamical RAM >     495.59 MB

     Check: negative core charge=   -0.000179

     Initial potential from superposition of free atoms

     starting charge  255.89658, renormalised to  256.00000
     Starting wfcs are  192 randomized atomic wfcs

     total cpu time spent up to now is       11.7 secs

     Self-consistent Calculation

     iteration #  1     ecut=    10.00 Ry     beta= 0.50
     Davidson diagonalization with overlap
     ethr =  1.00E-02,  avg # of iterations =  3.2

     total cpu time spent up to now is       52.9 secs

     total energy              =   -1622.87599716 Ry
     Harris-Foulkes estimate   =   -1677.59638780 Ry
     estimated scf accuracy    <      89.68066218 Ry

     iteration #  2     ecut=    10.00 Ry     beta= 0.50
     Davidson diagonalization with overlap
     ethr =  1.00E-02,  avg # of iterations =  2.1

     total cpu time spent up to now is       82.2 secs

     total energy              =   -1627.76567572 Ry
     Harris-Foulkes estimate   =   -1632.72040405 Ry
     estimated scf accuracy    <       7.77428771 Ry

     iteration #  3     ecut=    10.00 Ry     beta= 0.50
     Davidson diagonalization with overlap
     ethr =  3.04E-03,  avg # of iterations =  2.1

     total cpu time spent up to now is      109.8 secs

     total energy              =   -1628.25727051 Ry
     Harris-Foulkes estimate   =   -1628.41180455 Ry
     estimated scf accuracy    <       0.31263554 Ry

     iteration #  4     ecut=    10.00 Ry     beta= 0.50
     Davidson diagonalization with overlap
     ethr =  1.22E-04,  avg # of iterations =  6.1

     negative rho (up, down):  1.452E-05 0.000E+00

     total cpu time spent up to now is      149.9 secs

     total energy              =   -1628.28779820 Ry
     Harris-Foulkes estimate   =   -1628.27868066 Ry
     estimated scf accuracy    <       0.01138095 Ry

     iteration #  5     ecut=    10.00 Ry     beta= 0.50
     Davidson diagonalization with overlap
     ethr =  4.45E-06,  avg # of iterations =  7.6

     negative rho (up, down):  3.243E-05 0.000E+00

     total cpu time spent up to now is      184.8 secs

     total energy              =   -1628.29187307 Ry
     Harris-Foulkes estimate   =   -1628.28824270 Ry
     estimated scf accuracy    <       0.00112121 Ry

     iteration #  6     ecut=    10.00 Ry     beta= 0.50
     Davidson diagonalization with overlap
     ethr =  4.38E-07,  avg # of iterations =  1.6

     negative rho (up, down):  4.166E-05 0.000E+00

     total cpu time spent up to now is      207.7 secs

     total energy              =   -1628.29291056 Ry
     Harris-Foulkes estimate   =   -1628.29191913 Ry
     estimated scf accuracy    <       0.00006236 Ry

     iteration #  7     ecut=    10.00 Ry     beta= 0.50
     Davidson diagonalization with overlap
     ethr =  2.44E-08,  avg # of iterations =  2.0

     negative rho (up, down):  4.643E-05 0.000E+00

     total cpu time spent up to now is      234.8 secs

     total energy              =   -1628.29315408 Ry
     Harris-Foulkes estimate   =   -1628.29292955 Ry
     estimated scf accuracy    <       0.00007158 Ry

     iteration #  8     ecut=    10.00 Ry     beta= 0.50
     Davidson diagonalization with overlap
     ethr =  2.44E-08,  avg # of iterations =  2.0

     negative rho (up, down):  4.870E-05 0.000E+00

     total cpu time spent up to now is      258.8 secs

     total energy              =   -1628.29322273 Ry
     Harris-Foulkes estimate   =   -1628.29316362 Ry
     estimated scf accuracy    <       0.00000197 Ry

     iteration #  9     ecut=    10.00 Ry     beta= 0.50
     Davidson diagonalization with overlap
     ethr =  7.69E-10,  avg # of iterations =  2.5

     negative rho (up, down):  5.098E-05 0.000E+00

     total cpu time spent up to now is      289.0 secs

     total energy              =   -1628.29323781 Ry
     Harris-Foulkes estimate   =   -1628.29322352 Ry
     estimated scf accuracy    <       0.00000193 Ry

     iteration # 10     ecut=    10.00 Ry     beta= 0.50
     Davidson diagonalization with overlap
     ethr =  7.53E-10,  avg # of iterations =  2.0

     negative rho (up, down):  5.222E-05 0.000E+00

     total cpu time spent up to now is      312.9 secs

     total energy              =   -1628.29324176 Ry
     Harris-Foulkes estimate   =   -1628.29323815 Ry
     estimated scf accuracy    <       0.00000020 Ry

     iteration # 11     ecut=    10.00 Ry     beta= 0.50
     Davidson diagonalization with overlap
     ethr =  7.77E-11,  avg # of iterations =  2.0

     negative rho (up, down):  5.343E-05 0.000E+00

     total cpu time spent up to now is      339.5 secs

     End of self-consistent calculation

          k = 0.0000 0.0000 0.0000 (  2945 PWs)   bands (ev):

   -72.3119 -71.4275 -71.4193 -71.4053 -71.2116 -71.1648 -71.1245 -70.8406
   -70.6736 -70.6671 -70.6549 -70.4585 -70.4145 -70.1758 -70.0886 -69.3080
   -30.9837 -30.8055 -27.6764 -27.6265 -27.6097 -27.4960 -27.4476 -27.3873
   -27.3354 -27.3185 -27.2901 -27.2613 -27.2418 -27.2408 -27.1810 -27.0131
   -26.8681 -26.7740 -26.7720 -26.7506 -26.7368 -26.6825 -26.6813 -26.6283
   -26.6222 -26.5554 -26.4803 -26.4469 -26.2691 -26.2017 -26.1362 -26.0848
   -26.0522 -25.8303 -25.7268 -25.6260 -25.2704 -24.9762 -24.8496 -24.8254
   -24.8224 -24.6710 -24.6242 -24.5157 -24.4377 -23.1522 -22.9207 -22.5735
   -17.3513 -17.3423 -17.3265 -17.3105 -17.2943 -17.2870 -17.2437 -17.2040
    -7.0834  -7.0208  -6.9365  -6.7958  -6.7656  -6.7285  -6.6965  -6.5930
    -6.5622  -6.5209  -6.4129  -6.2031  -6.0843  -5.9770  -5.9039  -5.5802
    -2.6348  -2.5140  -2.4795  -2.1987  -2.0309  -1.8974  -1.8020  -1.7953
    -1.6896  -1.6634  -1.6393  -1.6221  -1.4239  -1.4154  -1.4026  -1.3598
    -1.3514  -1.3487  -1.2178  -1.2079  -1.1523  -1.1007  -1.0525  -0.8646
    -0.8310  -0.7470  -0.7199  -0.6985  -0.6803  -0.6724  -0.6721  -0.3469
     1.0610   1.1366   1.2925   1.2956   1.2990   1.4633   1.4967   1.6799
     3.4333   4.2014   4.5249   5.2262   5.2813   5.3463   5.3767   5.7175
     5.8793   6.0643   6.1250   6.1493   6.2574   6.8345   6.8393   7.1120
     7.1251   7.1717   7.1817   7.2722   7.5240   7.5732   7.5951   7.6280
     7.7597   7.8469

          k = 0.0000 0.0000-0.5000 (  2946 PWs)   bands (ev):

   -71.6565 -71.6564 -71.3869 -71.3868 -71.3748 -71.3747 -70.8421 -70.8420
   -70.6324 -70.6323 -70.6277 -70.6276 -70.0900 -70.0899 -70.0130 -70.0129
   -28.7034 -28.7033 -28.4742 -28.4741 -28.2332 -28.2331 -28.0473 -28.0472
   -27.8522 -27.8521 -27.8344 -27.8343 -27.8162 -27.8161 -26.8933 -26.8932
   -26.8868 -26.8867 -26.4479 -26.4478 -26.3329 -26.3329 -26.2322 -26.2321
   -26.0546 -26.0544 -25.9369 -25.9367 -25.9168 -25.9168 -25.5392 -25.5391
   -25.2678 -25.2677 -25.1394 -25.1392 -24.9579 -24.9578 -24.9413 -24.9412
   -24.8005 -24.8004 -24.7152 -24.7151 -24.5376 -24.5375 -24.5261 -24.5259
   -17.3350 -17.3347 -17.3269 -17.3267 -17.2918 -17.2915 -17.2506 -17.2503
    -6.9458  -6.9458  -6.9111  -6.9111  -6.8450  -6.8450  -6.6620  -6.6620
    -6.4441  -6.4439  -6.2596  -6.2595  -6.1515  -6.1513  -5.8078  -5.8076
    -2.2503  -2.2502  -2.2351  -2.2350  -2.1104  -2.1104  -1.9499  -1.9498
    -1.7151  -1.7151  -1.7112  -1.7111  -1.6957  -1.6956  -1.3990  -1.3990
    -1.2857  -1.2856  -1.1927  -1.1925  -1.1700  -1.1699  -0.9500  -0.9499
    -0.8002  -0.8002  -0.7056  -0.7055  -0.7053  -0.7053  -0.5550  -0.5550
     1.2457   1.2459   1.3181   1.3183   1.3451   1.3453   1.4910   1.4912
     4.2462   4.2463   4.7925   4.7926   5.1413   5.1414   6.1775   6.1776
     6.2700   6.2701   6.4730   6.4731   6.4960   6.4961   6.5745   6.5745
     7.0629   7.0629   7.1218   7.1219   7.2361   7.2361   7.3498   7.3499
     7.4995   7.4996

          k = 0.0000-0.5000-0.5000 (  3016 PWs)   bands (ev):

   -71.9722 -71.9722 -71.9718 -71.9718 -71.3019 -71.3019 -71.3005 -71.3005
   -70.9863 -70.9863 -70.9859 -70.9859 -70.5220 -70.5220 -70.5216 -70.5216
   -29.6487 -29.6487 -29.6269 -29.6269 -29.3222 -29.3222 -29.3128 -29.3128
   -28.2123 -28.2123 -28.1885 -28.1885 -27.6376 -27.6376 -27.6308 -27.6308
   -27.3453 -27.3453 -27.3393 -27.3393 -27.2380 -27.2380 -27.2049 -27.2049
   -26.9991 -26.9991 -26.9696 -26.9696 -26.8347 -26.8347 -26.7462 -26.7462
   -26.5681 -26.5681 -26.5079 -26.5079 -26.4125 -26.4125 -26.3548 -26.3548
   -25.6799 -25.6799 -25.6514 -25.6514 -24.8624 -24.8624 -24.8619 -24.8619
   -17.3731 -17.3731 -17.3603 -17.3602 -17.2686 -17.2686 -17.2608 -17.2608
    -6.9026  -6.9026  -6.8947  -6.8947  -6.8481  -6.8481  -6.8256  -6.8256
    -6.3365  -6.3364  -6.3069  -6.3069  -6.1880  -6.1880  -6.1586  -6.1585
    -2.2573  -2.2573  -2.1334  -2.1334  -2.0738  -2.0737  -1.9723  -1.9722
    -1.7112  -1.7112  -1.6465  -1.6465  -1.5570  -1.5570  -1.5423  -1.5423
    -1.4721  -1.4721  -1.2915  -1.2915  -1.1750  -1.1750  -0.9444  -0.9443
    -0.9401  -0.9401  -0.8731  -0.8731  -0.7581  -0.7581  -0.7315  -0.7315
     1.1171   1.1171   1.1684   1.1684   1.3136   1.3136   1.3575   1.3575
     4.3961   4.3961   4.4690   4.4691   5.6597   5.6597   5.8239   5.8239
     6.2457   6.2457   6.2578   6.2578   6.6165   6.6165   6.6466   6.6466
     7.0714   7.0714   7.1481   7.1481   7.2080   7.2080   7.2190   7.2190
     7.9084   7.9087

          k =-0.5000-0.5000-0.5000 (  3016 PWs)   bands (ev):

   -71.5620 -71.5620 -71.5619 -71.5619 -71.5619 -71.5619 -71.5600 -71.5600
   -70.8096 -70.8096 -70.8085 -70.8085 -70.8078 -70.8078 -70.8076 -70.8076
   -28.5177 -28.5176 -28.4512 -28.4512 -28.3910 -28.3910 -28.3534 -28.3534
   -28.1655 -28.1655 -28.1140 -28.1140 -28.0626 -28.0626 -28.0228 -28.0228
   -27.4724 -27.4724 -27.4169 -27.4169 -27.3977 -27.3977 -27.3795 -27.3795
   -27.3550 -27.3550 -27.3386 -27.3386 -27.2420 -27.2420 -27.2250 -27.2249
   -26.5704 -26.5704 -26.5278 -26.5278 -26.4306 -26.4306 -26.3887 -26.3887
   -25.5860 -25.5860 -25.4795 -25.4795 -25.4652 -25.4652 -25.4327 -25.4327
   -17.3270 -17.3266 -17.3187 -17.3183 -17.3154 -17.3150 -17.3140 -17.3136
    -6.9087  -6.9087  -6.8980  -6.8980  -6.8286  -6.8286  -6.8182  -6.8182
    -6.3349  -6.3346  -6.2805  -6.2802  -6.2011  -6.2009  -6.1727  -6.1725
    -2.2437  -2.2436  -2.1179  -2.1177  -2.0631  -2.0631  -1.9326  -1.9324
    -1.8289  -1.8288  -1.7117  -1.7117  -1.6071  -1.6070  -1.3760  -1.3759
    -1.2598  -1.2598  -1.2562  -1.2562  -1.1828  -1.1827  -1.1703  -1.1703
    -0.9783  -0.9783  -0.9210  -0.9210  -0.7933  -0.7932  -0.7813  -0.7812
     1.2334   1.2338   1.2457   1.2460   1.2686   1.2689   1.2863   1.2867
     4.9150   4.9151   4.9165   4.9166   5.0381   5.0381   5.0984   5.0984
     6.6349   6.6349   6.6441   6.6441   6.7917   6.7917   6.8527   6.8528
     7.0644   7.0645   7.1167   7.1167   7.1343   7.1344   7.3587   7.3587
     7.9319   7.9320

          k =-0.5000 0.0000 0.0000 (  2946 PWs)   bands (ev):

   -71.5497 -71.5497 -71.3795 -71.3795 -71.1946 -71.1946 -70.8427 -70.8427
   -70.6242 -70.6242 -70.4398 -70.4397 -70.4390 -70.4389 -70.1007 -70.1006
   -29.1698 -29.1698 -28.4416 -28.4416 -27.8165 -27.8164 -27.6889 -27.6889
   -27.4929 -27.4929 -27.4137 -27.4137 -27.4128 -27.4127 -27.2276 -27.2275
   -27.1692 -27.1692 -26.6814 -26.6813 -26.6161 -26.6161 -26.3087 -26.3086
   -26.2194 -26.2194 -26.0347 -26.0346 -25.7579 -25.7578 -25.5099 -25.5099
   -25.3209 -25.3209 -25.1621 -25.1620 -24.9960 -24.9959 -24.9507 -24.9507
   -24.8323 -24.8322 -24.7367 -24.7366 -24.7123 -24.7122 -24.2887 -24.2886
   -17.3247 -17.3245 -17.3201 -17.3200 -17.3192 -17.3191 -17.2649 -17.2647
    -7.0504  -7.0504  -6.8801  -6.8801  -6.7487  -6.7487  -6.6215  -6.6215
    -6.2478  -6.2477  -6.2342  -6.2341  -6.1957  -6.1956  -6.0100  -6.0099
    -2.4109  -2.4109  -2.3467  -2.3467  -2.1435  -2.1434  -1.6318  -1.6318
    -1.5894  -1.5894  -1.5389  -1.5388  -1.4798  -1.4798  -1.3858  -1.3858
    -1.3073  -1.3073  -1.2331  -1.2331  -1.1283  -1.1283  -1.0459  -1.0459
    -0.9427  -0.9427  -0.7920  -0.7919  -0.7116  -0.7116  -0.5907  -0.5906
     1.1255   1.1256   1.3530   1.3531   1.4282   1.4283   1.4924   1.4925
     4.1132   4.1132   4.8917   4.8918   5.0207   5.0207   5.4356   5.4357
     5.8907   5.8907   6.3059   6.3059   6.8467   6.8467   7.0600   7.0600
     7.0815   7.0815   7.4864   7.4864   7.6006   7.6006   7.6989   7.6989
     7.7201   7.7201

          k = 0.0000-0.5000 0.0000 (  2946 PWs)   bands (ev):

   -71.5406 -71.5405 -71.3805 -71.3804 -71.1946 -71.1946 -70.8526 -70.8526
   -70.6295 -70.6295 -70.4444 -70.4444 -70.4391 -70.4391 -70.0916 -70.0916
   -29.2984 -29.2983 -28.3798 -28.3797 -27.7524 -27.7524 -27.6226 -27.6226
   -27.5056 -27.5056 -27.4057 -27.4057 -27.2579 -27.2579 -27.1287 -27.1286
   -27.1120 -27.1120 -26.8029 -26.8029 -26.5632 -26.5631 -26.3698 -26.3698
   -26.3605 -26.3605 -26.0223 -26.0223 -25.7027 -25.7027 -25.6447 -25.6447
   -25.5256 -25.5256 -25.2043 -25.2043 -25.0440 -25.0440 -24.8237 -24.8237
   -24.8095 -24.8095 -24.7037 -24.7037 -24.6222 -24.6222 -24.2954 -24.2953
   -17.3518 -17.3517 -17.3254 -17.3253 -17.2954 -17.2952 -17.2392 -17.2391
    -6.9833  -6.9833  -6.9780  -6.9780  -6.7339  -6.7339  -6.6548  -6.6548
    -6.3783  -6.3782  -6.2537  -6.2536  -6.1848  -6.1847  -5.8347  -5.8346
    -2.5416  -2.5416  -2.1157  -2.1157  -2.0962  -2.0961  -1.7422  -1.7421
    -1.6786  -1.6786  -1.4591  -1.4591  -1.4104  -1.4104  -1.3694  -1.3694
    -1.2563  -1.2563  -1.2391  -1.2390  -1.0728  -1.0728  -0.9947  -0.9946
    -0.9584  -0.9584  -0.8753  -0.8753  -0.7078  -0.7078  -0.6933  -0.6933
     1.1805   1.1806   1.3737   1.3738   1.3808   1.3809   1.4505   1.4506
     4.1441   4.1442   4.6451   4.6451   5.3351   5.3352   5.3951   5.3951
     6.1380   6.1380   6.4649   6.4649   6.6301   6.6301   6.7874   6.7874
     7.3119   7.3119   7.5049   7.5049   7.5184   7.5184   7.6054   7.6054
     7.8586   7.8587

          k =-0.5000 0.0000 0.5000 (  3016 PWs)   bands (ev):

   -71.9771 -71.9771 -71.9759 -71.9759 -71.2724 -71.2724 -71.2716 -71.2716
   -70.9837 -70.9837 -70.9833 -70.9833 -70.5477 -70.5477 -70.5442 -70.5442
   -29.5361 -29.5361 -29.5005 -29.5005 -29.4137 -29.4137 -29.3449 -29.3449
   -28.3880 -28.3880 -28.2609 -28.2609 -27.8629 -27.8629 -27.8281 -27.8281
   -27.2486 -27.2486 -27.2108 -27.2108 -27.1656 -27.1656 -27.1598 -27.1598
   -26.9300 -26.9300 -26.9038 -26.9037 -26.7769 -26.7769 -26.7733 -26.7733
   -26.5745 -26.5745 -26.5675 -26.5674 -26.4420 -26.4420 -26.3854 -26.3854
   -25.3331 -25.3331 -25.3209 -25.3209 -25.0926 -25.0925 -25.0905 -25.0905
   -17.3573 -17.3572 -17.3493 -17.3492 -17.3020 -17.3019 -17.2800 -17.2799
    -6.9582  -6.9582  -6.9529  -6.9529  -6.7751  -6.7751  -6.7518  -6.7518
    -6.3083  -6.3083  -6.2859  -6.2858  -6.2186  -6.2186  -6.1953  -6.1953
    -2.2736  -2.2735  -2.2020  -2.2020  -2.0892  -2.0892  -1.9711  -1.9711
    -1.6427  -1.6427  -1.6077  -1.6077  -1.5815  -1.5815  -1.5676  -1.5675
    -1.4968  -1.4968  -1.3301  -1.3301  -1.2308  -1.2308  -1.0995  -1.0995
    -0.8407  -0.8406  -0.8290  -0.8290  -0.6868  -0.6868  -0.6803  -0.6803
     1.1652   1.1653   1.1764   1.1764   1.2880   1.2881   1.3388   1.3389
     4.5313   4.5313   4.5480   4.5480   5.3349   5.3350   5.4755   5.4755
     6.3363   6.3363   6.4056   6.4056   6.4545   6.4545   6.6864   6.6864
     7.1320   7.1320   7.1992   7.1992   7.3133   7.3133   7.4224   7.4224
     7.7757   7.7757

          k =-0.5000 0.5000 0.0000 (  3016 PWs)   bands (ev):

   -72.0047 -72.0047 -72.0033 -72.0033 -71.6468 -71.6468 -71.6445 -71.6445
   -70.9659 -70.9659 -70.9652 -70.9652 -70.1464 -70.1464 -70.1440 -70.1440
   -29.4367 -29.4367 -29.2930 -29.2930 -29.1349 -29.1349 -29.1139 -29.1139
   -28.9140 -28.9140 -28.9051 -28.9051 -28.4837 -28.4837 -28.4796 -28.4796
   -27.7046 -27.7046 -27.7026 -27.7026 -27.6426 -27.6426 -27.5064 -27.5064
   -27.1604 -27.1604 -27.1539 -27.1539 -27.0879 -27.0879 -26.9230 -26.9230
   -26.6844 -26.6844 -26.5158 -26.5158 -26.3058 -26.3058 -26.1434 -26.1434
   -24.7600 -24.7600 -24.5978 -24.5978 -23.4574 -23.4574 -23.4547 -23.4547
   -17.3412 -17.3411 -17.3336 -17.3336 -17.3078 -17.3077 -17.2961 -17.2960
    -7.0512  -7.0512  -6.9213  -6.9213  -6.6911  -6.6911  -6.6834  -6.6834
    -6.3376  -6.3375  -6.3326  -6.3326  -6.2239  -6.2239  -6.1991  -6.1990
    -2.5286  -2.5286  -2.1905  -2.1905  -2.0401  -2.0401  -1.8647  -1.8647
    -1.6072  -1.6071  -1.4989  -1.4989  -1.4805  -1.4804  -1.4546  -1.4546
    -1.2370  -1.2370  -1.2358  -1.2358  -1.1946  -1.1945  -1.0871  -1.0871
    -0.9717  -0.9717  -0.9416  -0.9416  -0.8817  -0.8817  -0.7991  -0.7990
     1.1112   1.1113   1.2358   1.2358   1.3780   1.3781   1.3967   1.3968
     4.5583   4.5584   4.5877   4.5877   4.9200   4.9201   5.3474   5.3474
     6.2502   6.2502   6.3729   6.3729   6.5446   6.5447   7.0048   7.0049
     7.1958   7.1958   7.2959   7.2959   7.4835   7.4835   7.4899   7.4899
     8.1132   8.1134

     the Fermi energy is     1.6419 ev

!    total energy              =   -1628.29324303 Ry
     Harris-Foulkes estimate   =   -1628.29324182 Ry
     estimated scf accuracy    <       0.00000007 Ry

     The total energy is the sum of the following terms:

     one-electron contribution =   -1203.60705573 Ry
     hartree contribution      =     584.17857195 Ry
     xc contribution           =    -286.14873047 Ry
     ewald contribution        =    -722.72705951 Ry
     smearing contrib. (-TS)   =       0.01103073 Ry

     convergence has been achieved in  11 iterations

     negative rho (up, down):  5.343E-05 0.000E+00

     Forces acting on atoms (cartesian axes, Ry/au):

     atom    1 type  4   force =     0.01979481    0.10163519    0.02044680
     atom    2 type  4   force =     0.13830511   -0.01185988    0.04538472
     atom    3 type  3   force =    -0.10317271   -0.17799741    0.16162109
     atom    4 type  2   force =    -0.01228534    0.02899743   -0.11983042
     atom    5 type  2   force =    -0.04617666    0.06125340   -0.10993674
     atom    6 type  1   force =     0.00348927   -0.00627352   -0.03834879
     atom    7 type  2   force =     0.07481309    0.00065734   -0.01806723
     atom    8 type  2   force =    -0.03846006    0.06705314   -0.02338756
     atom    9 type  2   force =    -0.03734196   -0.06379914   -0.02157417
     atom   10 type  2   force =     0.00102644    0.00032423    0.10369514
     atom   11 type  4   force =     0.01979311    0.10167028    0.02044143
     atom   12 type  4   force =     0.13833184   -0.01186025    0.04538019
     atom   13 type  3   force =    -0.10317350   -0.17799930    0.16162324
     atom   14 type  2   force =    -0.01228349    0.02899730   -0.11983161
     atom   15 type  2   force =    -0.04617782    0.06125513   -0.10993787
     atom   16 type  1   force =     0.00348930   -0.00627365   -0.03834753
     atom   17 type  2   force =     0.07481382    0.00065717   -0.01806831
     atom   18 type  2   force =    -0.03846002    0.06705309   -0.02338813
     atom   19 type  2   force =    -0.03734194   -0.06379865   -0.02157479
     atom   20 type  2   force =     0.00102659    0.00032407    0.10369616
     atom   21 type  4   force =     0.01979366    0.10165564    0.02044268
     atom   22 type  4   force =     0.13834554   -0.01186104    0.04537977
     atom   23 type  3   force =    -0.10317418   -0.17800025    0.16161934
     atom   24 type  2   force =    -0.01226691    0.02899781   -0.11983543
     atom   25 type  2   force =    -0.04618556    0.06126979   -0.10994176
     atom   26 type  1   force =     0.00348879   -0.00627273   -0.03834851
     atom   27 type  2   force =     0.07481330    0.00065731   -0.01806746
     atom   28 type  2   force =    -0.03845963    0.06705330   -0.02338731
     atom   29 type  2   force =    -0.03734234   -0.06380003   -0.02157445
     atom   30 type  2   force =     0.00102643    0.00032424    0.10369447
     atom   31 type  4   force =     0.01979382    0.10162407    0.02044650
     atom   32 type  4   force =     0.13830792   -0.01186210    0.04538400
     atom   33 type  3   force =    -0.10317155   -0.17799505    0.16162692
     atom   34 type  2   force =    -0.01230346    0.02899715   -0.11982655
     atom   35 type  2   force =    -0.04616756    0.06123785   -0.10993285
     atom   36 type  1   force =     0.00349010   -0.00627186   -0.03834708
     atom   37 type  2   force =     0.07481357    0.00065732   -0.01806827
     atom   38 type  2   force =    -0.03846003    0.06705370   -0.02338870
     atom   39 type  2   force =    -0.03734129   -0.06379860   -0.02157462
     atom   40 type  2   force =     0.00102620    0.00032415    0.10369653
     atom   41 type  4   force =     0.01979469    0.10167837    0.02044255
     atom   42 type  4   force =     0.13832258   -0.01185897    0.04538199
     atom   43 type  3   force =    -0.10317404   -0.17800079    0.16161912
     atom   44 type  2   force =    -0.01226665    0.02899786   -0.11983573
     atom   45 type  2   force =    -0.04618592    0.06127012   -0.10994185
     atom   46 type  1   force =     0.00348726   -0.00627391   -0.03834880
     atom   47 type  2   force =     0.07481405    0.00065727   -0.01806801
     atom   48 type  2   force =    -0.03845959    0.06705333   -0.02338751
     atom   49 type  2   force =    -0.03734249   -0.06379993   -0.02157463
     atom   50 type  2   force =     0.00102618    0.00032404    0.10369450
     atom   51 type  4   force =     0.01979506    0.10164199    0.02044567
     atom   52 type  4   force =     0.13829719   -0.01185973    0.04538344
     atom   53 type  3   force =    -0.10317105   -0.17799538    0.16162557
     atom   54 type  2   force =    -0.01230097    0.02899729   -0.11982731
     atom   55 type  2   force =    -0.04616872    0.06123993   -0.10993351
     atom   56 type  1   force =     0.00348799   -0.00627252   -0.03834717
     atom   57 type  2   force =     0.07481413    0.00065720   -0.01806867
     atom   58 type  2   force =    -0.03846003    0.06705373   -0.02338861
     atom   59 type  2   force =    -0.03734128   -0.06379867   -0.02157461
     atom   60 type  2   force =     0.00102588    0.00032390    0.10369671
     atom   61 type  4   force =     0.01979568    0.10161213    0.02044841
     atom   62 type  4   force =     0.13828356   -0.01186110    0.04538510
     atom   63 type  3   force =    -0.10317069   -0.17799373    0.16162457
     atom   64 type  2   force =    -0.01230349    0.02899720   -0.11982657
     atom   65 type  2   force =    -0.04616736    0.06123751   -0.10993300
     atom   66 type  1   force =     0.00348765   -0.00627244   -0.03834847
     atom   67 type  2   force =     0.07481392    0.00065735   -0.01806783
     atom   68 type  2   force =    -0.03845975    0.06705376   -0.02338798
     atom   69 type  2   force =    -0.03734115   -0.06379901   -0.02157394
     atom   70 type  2   force =     0.00102617    0.00032430    0.10369480
     atom   71 type  4   force =     0.01979440    0.10165065    0.02044275
     atom   72 type  4   force =     0.13832116   -0.01186131    0.04538165
     atom   73 type  3   force =    -0.10317395   -0.17799873    0.16162599
     atom   74 type  2   force =    -0.01228936    0.02899729   -0.11983085
     atom   75 type  2   force =    -0.04617469    0.06125020   -0.10993709
     atom   76 type  1   force =     0.00348774   -0.00627192   -0.03834707
     atom   77 type  2   force =     0.07481456    0.00065734   -0.01806881
     atom   78 type  2   force =    -0.03845988    0.06705378   -0.02338861
     atom   79 type  2   force =    -0.03734163   -0.06379919   -0.02157499
     atom   80 type  2   force =     0.00102618    0.00032415    0.10369593

     Total force =     1.148552     Total SCF correction =     0.000553


     Computing stress (Cartesian axis) and pressure


     negative rho (up, down):  5.343E-05 0.000E+00
          total   stress  (Ry/bohr**3)                   (kbar)     P=-8363.10
  -0.05572912  -0.00005636  -0.00001278      -8198.03     -8.29     -1.88
  -0.00005636  -0.05663208  -0.00025977         -8.29  -8330.87    -38.21
  -0.00001278  -0.00025977  -0.05819250         -1.88    -38.21  -8560.41


     init_run     :     11.20s CPU     11.33s WALL (       1 calls)
     electrons    :    324.41s CPU    327.78s WALL (       1 calls)
     forces       :      8.36s CPU      8.48s WALL (       1 calls)
     stress       :     10.69s CPU     10.78s WALL (       1 calls)

     Called by init_run:
     wfcinit      :     10.25s CPU     10.30s WALL (       1 calls)
     potinit      :      0.08s CPU      0.09s WALL (       1 calls)
     hinit0       :      0.55s CPU      0.55s WALL (       1 calls)

     Called by electrons:
     c_bands      :    292.96s CPU    295.42s WALL (      11 calls)
     sum_band     :     27.44s CPU     28.09s WALL (      11 calls)
     v_of_rho     :      0.57s CPU      0.57s WALL (      12 calls)
     newd         :      3.66s CPU      4.00s WALL (      12 calls)
     mix_rho      :      0.07s CPU      0.07s WALL (      11 calls)

     Called by c_bands:
     init_us_2    :      0.63s CPU      0.66s WALL (     200 calls)
     cegterg      :    290.86s CPU    293.23s WALL (      88 calls)

     Called by sum_band:
     sum_band:bec :      0.18s CPU      0.18s WALL (      88 calls)
     addusdens    :      2.45s CPU      2.92s WALL (      11 calls)

     Called by *egterg:
     h_psi        :    117.13s CPU    118.28s WALL (     363 calls)
     s_psi        :     45.19s CPU     45.34s WALL (     363 calls)
     g_psi        :      0.21s CPU      0.21s WALL (     267 calls)
     cdiaghg      :     59.66s CPU     59.84s WALL (     355 calls)

     Called by h_psi:
     h_psi:pot    :    116.86s CPU    117.77s WALL (     363 calls)
     h_psi:calbec :     46.99s CPU     47.05s WALL (     363 calls)
     vloc_psi     :     24.73s CPU     25.56s WALL (     363 calls)
     add_vuspsi   :     45.14s CPU     45.16s WALL (     363 calls)

     General routines
     calbec       :     74.76s CPU     74.85s WALL (     491 calls)
     fft          :      0.40s CPU      0.41s WALL (     179 calls)
     ffts         :      0.02s CPU      0.02s WALL (      23 calls)
     fftw         :     26.76s CPU     27.63s WALL (   80128 calls)
     interpolate  :      0.04s CPU      0.04s WALL (      12 calls)

     Parallel routines
     fft_scatt_xy :      2.81s CPU      2.90s WALL (   80330 calls)
     fft_scatt_yz :      3.53s CPU      3.67s WALL (   80330 calls)

     PWSCF        :   5m55.05s CPU   5m58.76s WALL


   This run was terminated on:  10:22:46  13Dec2020            

=------------------------------------------------------------------------------=
   JOB DONE.
=------------------------------------------------------------------------------=
