LAMMPS (3 Mar 2020)

    # ---------- Initialize simulation ---------------------
    units metal
    atom_style atomic
    dimension  3
    boundary   p p p
    read_data /home/modeler/RemLabs/Lab4/ProblemEC1_v3_size_4/temp_1250/lammps.data
  orthogonal box = (0 0 0) to (16.36 16.36 16.36)
  1 by 1 by 1 MPI processor grid
  reading atoms ...
  256 atoms
  read_data CPU = 0.00105445 secs

    pair_style eam
    pair_coeff * * /usr/share/lammps-stable/potentials/Ag_u3.eam
Reading potential file /usr/share/lammps-stable/potentials/Ag_u3.eam with DATE: 2007-06-11

    velocity  all create 1250 87287 dist gaussian

    # ---------- Describe computed properties------------------
    compute msdall all msd
    thermo_style custom step pe ke etotal temp press density c_msdall[4]
    thermo 100

    # ---------- Specify ensemble  ---------------------
    #fix  1 all nve
    #fix  1 all nvt temp 1250 1250 0.25
    fix 1 all npt temp 1250 1250 0.25 tchain 2 iso 1.0 1.0 1.0 pchain 2

    # --------- Compute RDF ---------------
    compute rdfall all rdf 100 1 1
    fix 2 all ave/time 1 125000 125000 c_rdfall[*] file /home/modeler/RemLabs/Lab4/ProblemEC1_v3_size_4/temp_1250/lammps.rdf mode vector

    # --------- Run -------------
    timestep 0.005
    run 500000
Neighbor list info ...
  update every 1 steps, delay 10 steps, check yes
  max neighbors/atom: 2000, page size: 100000
  master list distance cutoff = 7.55
  ghost atom cutoff = 7.55
  binsize = 3.775, bins = 5 5 5
  2 neighbor lists, perpetual/occasional/extra = 1 1 0
  (1) pair eam, perpetual
      attributes: half, newton on
      pair build: half/bin/atomonly/newton
      stencil: half/bin/3d/newton
      bin: standard
  (2) compute rdf, occasional, copy from (1)
      attributes: half, newton on
      pair build: copy
      stencil: none
      bin: none
Per MPI rank memory allocation (min/avg/max) = 3.744 | 3.744 | 3.744 Mbytes
Step PotEng KinEng TotEng Temp Press Density c_msdall[4] 
       0       -729.6    41.201671   -688.39833         1250    10050.358    10.472245            0 
     100   -707.10461    22.278834   -684.82577    675.90807   -4567.8181    10.018788  0.065639365 
     200   -702.54683    21.830386   -680.71644    662.30282   -7483.5616    9.9156719  0.095393048 
     300   -702.40368    25.309092   -677.09459    767.84179    2549.0341    10.008892  0.089526416 
     400   -701.60538    28.052341   -673.55304    851.06805    3020.3299    9.9949475  0.091012221 
     500   -697.88642    27.735591   -670.15083     841.4583   -455.45146    9.8993618   0.10482399 
     600   -696.37353    29.691945   -666.68159    900.81131   -2815.7863    9.8456667   0.12261838 
     700    -695.3987    32.078114   -663.32058    973.20427   -1332.3993    9.8438869   0.12802432 
     800   -690.11045    30.249548    -659.8609     917.7282    10548.019    9.8817853   0.14016969 
     900    -689.8227    33.257772   -656.56493    1008.9934   -2014.8927    9.7339747   0.15293851 
    1000    -688.1561    35.058013   -653.09808    1063.6102   -5242.7529    9.6751306   0.17185461 
    1100   -684.86939     35.21544   -649.65395    1068.3863    2307.2125    9.6975382   0.18596604 
    1200   -685.74673    39.518293   -646.22844    1198.9287    7693.6632    9.7494428   0.17018753 
    1300   -683.07098    40.007206   -643.06377    1213.7616    4805.8714    9.6777076   0.19726051 
    1400   -679.87286    40.440161    -639.4327    1226.8969   -8130.1157    9.4780216   0.27993544 
    1500   -677.61276    40.851756     -636.761    1239.3841   -5742.0685    9.4723071    0.2620792 
    1600   -676.48228    42.140355   -634.34193    1278.4783    3076.2149    9.5428644   0.23735163 
    1700   -674.77198    41.850793   -632.92118    1269.6934    3523.0459    9.5027387   0.24177743 
    1800    -678.2468    37.824783   -640.42202      1147.55    9048.1737    9.6362322   0.19081282 
    1900   -676.95785    39.204973   -637.75288     1189.423   -7830.6249    9.4160552   0.26365092 
    2000   -672.21391    38.266478   -633.94743    1160.9504   -4203.6758    9.3838066   0.28342187 
    2100   -678.81282     43.05756   -635.75526     1306.305   -1867.8216    9.5279185   0.24604305 
    2200   -683.08584    43.914418   -639.17142    1332.3009   -3307.4094     9.592493   0.21453932 
    2300   -677.27738    41.180697   -636.09668    1249.3637    10005.517    9.6381656   0.24149246 
    2400    -672.9168    42.294723   -630.62208    1283.1616    6660.3619    9.5174354   0.25862715 
    2500   -676.90731    41.544427   -635.36289    1260.3987   -4475.2256    9.4566799   0.26397112 
    2600   -676.27392    35.312989   -640.96093    1071.3458    968.26375    9.5239677   0.28598774 
    2700   -676.99129    41.115731   -635.87556    1247.3927    -2994.612    9.4872276   0.24603763 
    2800   -676.62394     42.06517   -634.55877    1276.1973   -5950.2607    9.4439898   0.26558166 
    2900   -673.77845    44.525651   -629.25279    1350.8448    6637.8499    9.5228709   0.29833148 
    3000   -680.91845    42.825598   -638.09286    1299.2676    8867.1014    9.6851025   0.18428949 
    3100   -678.82638    41.200723   -637.62566    1249.9712   -4712.7203    9.5095694   0.23448382 
    3200   -678.33378    41.503668   -636.83011    1259.1622    -11948.94    9.4206222   0.24405916 
    3300    -674.9863    40.189945   -634.79636    1219.3057    6331.1144    9.5470938    0.2534177 
    3400   -671.51802    43.148905   -628.36911    1309.0763    7802.1571    9.4924094   0.27224406 
    3500   -677.56916    42.472163     -635.097    1288.5449   -1791.6978    9.5122491   0.24973746 
    3600   -676.11171    39.111721   -636.99999    1186.5939   -3219.8703    9.4676973   0.27541057 
    3700   -671.78729    38.655578   -633.13172    1172.7552    4792.1733    9.4640688   0.28368432 
    3800   -675.74671    37.166111    -638.5806    1127.5669   -1720.1945    9.4833184   0.28125862 
    3900   -680.76887    40.614563   -640.15431     1232.188     4873.832    9.6309136   0.21544088 
    4000   -675.36426    42.249595   -633.11467    1281.7925    1281.8423     9.504064   0.26685245 
    4100   -677.48818    43.356822   -634.13136    1315.3842   -2180.7889    9.5018841   0.23692676 
    4200   -681.33179    39.866452   -641.46534    1209.4913   -954.65958    9.5879836   0.23149391 
    4300   -677.04726    40.372753    -636.6745    1224.8518    1517.1631    9.5453285   0.25901277 
    4400   -674.11215     40.82224   -633.28991    1238.4886   -6780.2397     9.410746   0.26588254 
    4500    -678.3477    38.787294   -639.56041    1176.7512   -7485.7549    9.4591531   0.24083212 
    4600   -678.70371    41.130532   -637.57318    1247.8417    8737.1783     9.641088    0.1898903 
    4700    -674.5791    43.236459   -631.34264    1311.7326    10460.701    9.5774631   0.23453986 
    4800   -676.97612    42.103882   -634.87224    1277.3718   -3742.6112    9.4666418   0.24277152 
    4900   -678.53795    39.732529   -638.80542    1205.4283   -6050.8563    9.4780944   0.23884042 
    5000   -677.02336    41.981288   -635.04208    1273.6525   -3549.5936    9.4672996    0.2452942 
    5100   -670.84677    42.758446   -628.08832    1297.2303    8600.2674    9.4849755   0.29594629 
    5200   -677.99036    45.104067   -632.88629    1368.3931   -2773.2049    9.4875096   0.23966193 
    5300   -677.23029    39.771145   -637.45915    1206.5999    10835.673    9.6266292   0.23788949 
    5400   -679.12623    42.348657   -636.77758    1284.7979   -3999.9223    9.4971436   0.22366874 
    5500   -681.05007    39.834367    -641.2157    1208.5179   -260.59932    9.5863647    0.2063857 
    5600   -682.78777    38.514535   -644.27323    1168.4761    1609.7904    9.6422555   0.17821782 
    5700    -681.1926    43.501982   -637.69062    1319.7882   -9172.5246    9.4820523   0.22524491 
    5800   -677.00811    40.852768   -636.15534    1239.4148    6026.5303     9.573603   0.23182138 
    5900   -676.64502    38.762767   -637.88226    1176.0071   -7079.5312    9.4302871     0.274178 
    6000   -671.20366    42.381986   -628.82168    1285.8091   -3622.5985    9.3334918   0.32506283 
    6100   -677.68595    45.462933   -632.22302    1379.2806   -5331.4385    9.4719052   0.26517686 
    6200   -678.25455    41.482713   -636.77184    1258.5264    907.06066    9.5358637   0.23870371 
    6300   -675.65144    39.275359   -636.37608    1191.5584    3158.5473    9.5369504   0.25286114 
    6400   -671.49266    41.812989   -629.67967    1268.5465    4564.0747    9.4593634   0.27411781 
    6500   -675.16238    42.956937   -632.20544    1303.2523   -3057.7427    9.4335141   0.26315333 
    6600   -679.25073    41.847912   -637.40282     1269.606    6081.5416     9.609997   0.22627473 
    6700   -679.59125    43.130016   -636.46124    1308.5032    10720.507    9.6683606    0.2249706 
    6800   -672.90204    42.068632   -630.83341    1276.3024    72.860815    9.4521079   0.25699653 
    6900   -678.63717    42.229627   -636.40754    1281.1867   -11998.763    9.4098919   0.25039277 
    7000   -680.85452    42.310721    -638.5438     1283.647   -7619.9089    9.4933046   0.23960786 
    7100   -676.63258    42.760312   -633.87226    1297.2869    1497.0838    9.5199502   0.24007471 
    7200   -676.27258    45.246312   -631.02626    1372.7086    3513.1614    9.5303425   0.23389734 
    7300   -682.34025    43.418982   -638.92127      1317.27      1368.22    9.6190113   0.18996449 
    7400   -676.47241    39.057133   -637.41528    1184.9378    3031.3909    9.5396809   0.25769345 
    7500    -675.7901    43.785283   -632.00481    1328.3831   -4034.4873    9.4510544   0.29167392 
    7600   -676.52201    41.498181   -635.02383    1258.9957   -1371.9048     9.485837   0.24635701 
    7700   -678.53575    37.323033   -641.21271    1132.3276    4856.6315    9.6018007   0.25004563 
    7800   -676.83347    41.229137   -635.60433    1250.8333    39.768589     9.519489   0.24738543 
    7900   -675.95818    42.010595   -633.94758    1274.5416    1518.3708    9.5110272   0.22438957 
    8000   -681.36126    39.516139   -641.84512    1198.8633    -1364.429    9.5695637   0.18921752 
    8100    -676.9458    39.784062   -637.16174    1206.9917    7051.9849    9.5965024   0.22358058 
    8200   -673.92226    40.727261     -633.195    1235.6071    6131.9737    9.5369633    0.2728479 
    8300   -676.75078    42.901345   -633.84943    1301.5657   -1454.2335    9.4804186   0.28081732 
    8400   -682.69305    41.012924   -641.68012    1244.2737    8525.5174    9.7098662   0.18895228 
    8500   -680.82725    42.307633   -638.51962    1283.5533   -3678.8972    9.5396959   0.22659924 
    8600   -675.76252     41.97815   -633.78437    1273.5573    156.35607    9.4938998   0.25024426 
    8700   -680.62886    42.165992   -638.46287    1279.2561   -6986.1108    9.4902558   0.23309652 
    8800   -683.17197    41.481019   -641.69096     1258.475   -7132.7624    9.5427922    0.1928243 
    8900   -677.05447    43.903365   -633.15111    1331.9656    10590.643    9.6266877   0.19705528 
    9000   -678.25079    44.371961   -633.87883    1346.1821    9993.6693    9.6446467   0.20833076 
    9100    -679.7976    40.356056   -639.44155    1224.3452    315.16719    9.5657917   0.21994205 
    9200   -679.34292    40.806581   -638.53634    1238.0135   -1242.1348    9.5339108   0.21379188 
    9300   -676.78698    44.854085    -631.9329     1360.809   -3886.2684    9.4580979   0.25033216 
    9400   -678.74799    42.664814   -636.08318    1294.3897    6631.0525    9.6138522    0.2288756 
    9500   -681.73991    40.211179   -641.52873    1219.9499   -3249.6939    9.5639417   0.22128358 
    9600   -675.43367    39.342921   -636.09075    1193.6082   -112.93555    9.4928862   0.23690532 
    9700   -678.10577    44.543455   -633.56232    1351.3849    388.36873    9.5221937   0.24403637 
    9800   -678.34439    38.714066   -639.63033    1174.5296    2266.1486    9.5788013   0.22330616 
    9900   -680.34817    39.179491   -641.16868    1188.6499   -7591.7811    9.4882469   0.22315257 
   10000   -672.80178    39.329545   -633.47223    1193.2024    8521.8272    9.5476303   0.24295412 
   10100   -681.55346    46.382674   -635.17079    1407.1842      1036.23    9.6018859   0.22340134 
   10200   -683.03265    43.909996   -639.12265    1332.1667   -5998.9603    9.5536407   0.19879873 
   10300   -679.89782    42.362268   -637.53556    1285.2108   -4097.8448    9.5074097   0.22134048 
   10400   -675.47995     44.24736   -631.23259    1342.4018    273.16526    9.4793571   0.26625499 
   10500   -678.07175    41.070545   -637.00121    1246.0218    8721.9012     9.632705   0.23399783 
   10600   -678.40502    39.915615    -638.4894    1210.9829     662.0472    9.5556167   0.19986874 
   10700   -674.61422    40.267875   -634.34634    1221.6699   -3167.9854    9.4186762   0.24142083 
   10800   -672.52985    42.297735   -630.23211     1283.253   -9372.0775     9.329054   0.30058309 
   10900   -677.37475    41.095428   -636.27932    1246.7767    6926.2538    9.5993978   0.24608775 
   11000   -678.46922    39.859975   -638.60925    1209.2948    6018.1296    9.6077335   0.21510597 
   11100   -677.44433    41.061675   -636.38265    1245.7527    3110.5308    9.5613476   0.21606131 
   11200   -672.91548    41.709911   -631.20557    1265.4193    6534.8011    9.5115015   0.25625672 
   11300   -675.16838    37.814222   -637.35416    1147.2296    7060.4925    9.5678302   0.27238315 
   11400   -679.18285    44.858188   -634.32466    1360.9335   -2984.9753    9.5105891   0.24979367 
   11500   -675.37892     46.56947   -628.80945    1412.8514   -3673.2059    9.4164266   0.26200387 
   11600   -677.79792    41.671069   -636.12685    1264.2409   -5704.3228    9.4573556   0.25232839 
   11700   -678.00291    40.475985   -637.52693    1227.9837    1979.9463    9.5473005   0.21341278 
   11800   -674.46682    41.122223    -633.3446    1247.5897    11829.733    9.6027782   0.21380945 
   11900    -671.8132    45.465342   -626.34786    1379.3537    5275.2086    9.4777306   0.29482976 
   12000   -678.96706    47.141833   -631.82523     1430.216     -1400.92    9.5223743   0.22890855 
   12100   -675.59448    39.806529   -635.78795    1207.6734   -2366.2821    9.4489338   0.25291763 
   12200   -677.61315    40.840885   -636.77227    1239.0542   -7739.0555     9.413796   0.28784402 
   12300   -675.55921     39.59229   -635.96692    1201.1737   -5690.3603    9.4322453   0.26553436 
   12400   -682.71719    40.193729   -642.52346    1219.4205   -3597.1252    9.5791786   0.20774378 
   12500   -678.37959    37.255435   -641.12415    1130.2768     11021.43    9.6627052   0.17800325 
   12600   -677.41329     41.88539    -635.5279     1270.743    4446.1129    9.5799647   0.22645547 
   12700   -676.75347    41.868008   -634.88546    1270.2157    2424.5725    9.5362446   0.24067534 
   12800   -682.08409    39.827171   -642.25692    1208.2996    117.82174    9.6136221   0.20313012 
   12900   -680.83985    39.458477   -641.38137     1197.114   -2022.0105    9.5561832   0.23090228 
   13000   -676.80748    40.297505   -636.50998    1222.5689   -2107.2586    9.4882449   0.22002555 
   13100    -676.2858    41.266659   -635.01914    1251.9716    7970.1737    9.5973668   0.22424533 
   13200   -673.65878     45.56729   -628.09149    1382.4467   -1337.2676    9.4261397   0.26427492 
   13300   -670.89894    38.196454   -632.70248     1158.826    5584.5904    9.4761503   0.28961744 
   13400   -679.24603    43.294212   -635.95181    1313.4847   -1240.5697    9.5380459   0.24376087 
   13500   -681.08314     42.68516   -638.39798    1295.0069   -1476.2531    9.5528412   0.22033107 
   13600   -681.02977    38.252465   -642.77731    1160.5253   -4514.7198    9.5322524   0.21097175 
   13700   -683.04513    37.666072   -645.37906     1142.735   -1533.0008    9.5961822   0.18283903 
   13800    -681.2415    43.244334   -637.99716    1311.9715    -3215.463    9.5588527   0.20309561 
   13900   -675.43071    38.918121   -636.51259    1180.7203    10996.471    9.6161653   0.24037319 
   14000   -675.33141    40.551693   -634.77971    1230.2806   -766.80249    9.4816222   0.25019729 
   14100   -681.49055    38.738931   -642.75162     1175.284   -3972.0426     9.539411   0.20584354 
   14200   -679.29048    38.906423   -640.38405    1180.3655   -5050.3523    9.5006217   0.24258249 
   14300   -674.64367    38.228684   -636.41498    1159.8038    1051.3976    9.4808433   0.29975753 
   14400   -678.05286    45.503546   -632.54931    1380.5128    2357.7527     9.550631   0.21146983 
   14500   -680.82599    41.981914   -638.84408    1273.6714    -1242.523    9.5547879   0.21058114 
   14600   -676.01661    40.629648   -635.38697    1232.6456   -3581.2663     9.453655   0.26529439 
   14700   -675.66181    43.648746   -632.01306    1324.2408   -3990.7761    9.4575119   0.26809263 
   14800   -682.56908    45.952917   -636.61617     1394.146    4450.0107    9.6462641   0.20184199 
   14900   -683.47132    43.793294   -639.67803    1328.6261   -3585.6185    9.5724533    0.1946601 
   15000   -673.69527     41.23049   -632.46478    1250.8743   -8490.3654    9.3523932   0.29728897 
   15100   -674.17404    40.537645    -633.6364    1229.8544   -73.018073    9.4612058   0.25175249 
   15200   -678.87894    39.643731    -639.2352    1202.7343   -105.82029    9.5394533   0.24718939 
   15300   -676.40176    40.108039   -636.29372    1216.8208   -3325.7074    9.4746369   0.25481199 
   15400   -674.43613    45.894118   -628.54202    1392.3621   -8319.5438    9.3626329   0.29252996 
   15500   -674.34466    41.055936   -633.28873    1245.5786   -2683.1294    9.4374876   0.28350312 
   15600   -677.79325    40.783569   -637.00969    1237.3154   -1590.8213    9.4983007   0.27231005 
   15700   -674.73444    41.528886   -633.20555    1259.9272    1365.7786    9.4935584   0.24094161 
   15800    -680.4482    40.961157   -639.48704    1242.7032    -2358.148    9.5414841   0.23184257 
   15900   -679.95796    40.372652   -639.58531    1224.8487   -1379.3012    9.5489858   0.24423812 
   16000   -677.37699    44.725025   -632.65197    1356.8935    6947.7584    9.5830622   0.24080792 
   16100   -681.59456    46.581855   -635.01271    1413.2271    5189.2419    9.6272747   0.21761997 
   16200   -681.76486    40.995452   -640.76941    1243.7436    -1269.614    9.5846514   0.20054324 
   16300   -678.67209    41.794088     -636.878    1267.9731   -8704.1091    9.4565195   0.22362201 
   16400   -676.13984    41.957002   -634.18283    1272.9157    361.74717    9.4905561   0.24719705 
   16500   -679.83463    41.489871   -638.34476    1258.7436    7139.9416    9.6289353   0.20907554 
   16600   -682.03141    40.273555   -641.75785    1221.8423    1932.8218    9.6244679   0.20046828 
   16700   -674.66952    40.986085   -633.68344    1243.4594   -5970.1774    9.3993483   0.28767856 
   16800   -674.55177    41.065515   -633.48626    1245.8692   -6028.6628    9.4111333   0.32423086 
   16900   -678.96972    39.116594   -639.85312    1186.7417    5243.6165    9.6025096   0.23266366 
   17000   -680.65178    40.717383    -639.9344    1235.3074    3241.5196    9.6099179   0.21293698 
   17100   -676.07004    42.203614   -633.86643    1280.3975    4006.7681     9.517124   0.22927455 
   17200   -675.68039    37.364524   -638.31587    1133.5864   -8467.3897    9.4077274    0.2357808 
   17300   -677.68311    36.152081   -641.53103    1096.8026    -2367.691    9.5186558   0.23469594 
   17400   -674.37334    40.224634   -634.14871    1220.3581    7562.9387    9.5544513   0.27968864 
   17500   -675.21594     42.88721   -632.32873    1301.1369    920.72672    9.4841905   0.27544559 
   17600   -678.60585    38.656851   -639.94899    1172.7938    2158.9431    9.5604443   0.21664865 
   17700   -678.15981    40.477043   -637.68277    1228.0158   -4714.7685    9.4784177   0.25728089 
   17800   -675.70718    42.913756   -632.79343    1301.9422    4743.1971    9.5351615    0.2399497 
   17900   -678.85954    41.725757   -637.13379       1265.9     7669.073    9.6319424   0.23069847 
   18000     -677.135    36.225077   -640.90993    1099.0172    5813.8545    9.5943045   0.26476063 
   18100   -674.56973    40.632849   -633.93688    1232.7427   -13767.386    9.3070909   0.29038935 
   18200   -675.62828    41.934096   -633.69419    1272.2207   -5518.3038    9.4114127   0.27369254 
   18300    -679.6365    40.151199    -639.4853    1218.1302    4736.8513    9.6053448   0.22510281 
   18400   -678.59602    41.015761   -637.58026    1244.3598   -3954.3996    9.5134446   0.23536316 
   18500    -675.7774    43.050425   -632.72698    1306.0886   -5314.2744    9.4335672   0.28839651 
   18600   -678.15061    41.156466   -636.99414    1248.6285   -4559.2284    9.4779336   0.24121508 
   18700   -680.33786    40.422121   -639.91574    1226.3496   -790.51662    9.5498103   0.22584499 
   18800   -673.44386    38.888044   -634.55582    1179.8079    11078.105    9.5818309   0.26917736 
   18900   -678.14342    42.576923   -635.56649    1291.7232    -11900.74    9.3965801   0.30691418 
   19000   -679.46726    36.942441   -642.52482     1120.781    1218.0549    9.5990489   0.23216494 
   19100   -677.23919     40.11474   -637.12445     1217.024     717.4959    9.5181971   0.20867855 
   19200   -676.03285    40.608562   -635.42429    1232.0059    1513.0033    9.5053348    0.2671482 
   19300   -674.92235    42.389859   -632.53249    1286.0479    12560.769    9.6201447   0.22903905 
   19400   -680.73905    42.802895   -637.93615    1298.5788    11927.072     9.716488   0.20294708 
   19500   -681.60165    41.044676   -640.55697     1245.237   -931.64503    9.5821267   0.20363911 
   19600   -676.91667    41.376701   -635.53997    1255.3102   -10711.987    9.4085238   0.26185298 
   19700   -672.23693    36.822558   -635.41437     1117.144   -1584.1518    9.4246276    0.2761104 
   19800   -678.57753    36.682244   -641.89528     1112.887    6781.5235    9.6272593   0.21561631 
   19900   -677.77375    41.431077   -636.34268    1256.9598    1968.0757    9.5410453   0.24632538 
   20000   -676.89505    42.699032   -634.19602    1295.4278   -2211.2431    9.4966206   0.23900731 
   20100   -680.23589    40.247887   -639.98801    1221.0635   -2653.5393    9.5355911   0.21951991 
   20200   -677.59054    40.201359   -637.38918     1219.652    3191.9808     9.551289   0.21300957 
   20300   -675.91834    44.343042    -631.5753    1345.3047   -3430.0531    9.4376412   0.24316887 
   20400   -679.12434    40.987389   -638.13695     1243.499    719.63496    9.5480531   0.23272925 
   20500   -678.98561    40.167267   -638.81834    1218.6177    8174.8648    9.6232909   0.21130397 
   20600   -673.43083    42.112769   -631.31806    1277.6414    25.663695     9.445513   0.28435015 
   20700   -672.56333    38.820962   -633.74237    1177.7727   -3469.1439    9.4130996   0.31619118 
   20800   -677.83692    40.039879   -637.79704    1214.7529    771.99838    9.5290364   0.24050905 
   20900   -678.27304    40.415813   -637.85723    1226.1582   -1977.6706    9.5207075   0.21444427 
   21000   -674.05743    43.435862   -630.62157    1317.7822    12293.348    9.5864584    0.2228129 
   21100   -678.76922    42.627802   -636.14142    1293.2668    13025.074    9.6784882   0.23070523 
   21200   -677.83926    37.894279   -639.94498    1149.6584    1862.9801    9.5553668   0.22173787 
   21300   -674.01672    40.724637   -633.29208    1235.5275   -6398.5419    9.4008548   0.27194215 
   21400   -673.98466    40.881926   -633.10274    1240.2994    176.79885    9.4728235   0.27475983 
   21500   -681.68453    43.199639   -638.48489    1310.6155    4221.9484    9.6339307   0.22648655 
   21600   -679.69126    41.579067   -638.11219    1261.4497    2972.3825    9.5997701   0.22707897 
   21700   -674.97132    44.722454   -630.24887    1356.8155   -5142.4074    9.3933387   0.26810537 
   21800   -676.66176    41.613062    -635.0487     1262.481   -4441.2171     9.441843   0.27197517 
   21900    -677.0544    39.040425   -638.01398    1184.4309   -284.79454    9.5023658    0.2559456 
   22000   -672.78621    38.923324   -633.86288    1180.8782   -2654.9913     9.416444    0.2824109 
   22100   -675.46843    44.056136   -631.41229    1336.6004    2852.6087    9.4974249   0.25116908 
   22200   -679.24428    42.269959   -636.97432    1282.4103    1369.8466    9.5755465   0.25588533 
   22300   -680.11101    45.209673   -634.90133    1371.5971    -7225.425    9.4732327   0.22410766 
   22400   -682.09939    41.098153   -641.00124    1246.8594   -4660.1343    9.5451229   0.21821865 
   22500   -683.33189    41.366851   -641.96504    1255.0113      8959.17    9.7077235    0.1856538 
   22600   -679.17215    43.763132   -635.40902    1327.7111    5353.9432    9.6223031   0.21837066 
   22700   -676.81479    39.685328   -637.12946    1203.9963   -6284.1084    9.4344013   0.26262625 
   22800   -674.86023    36.987405   -637.87283    1122.1452   -4493.8998    9.4369493   0.28131749 
   22900   -683.60118    38.129716   -645.47146    1156.8012   -1049.3248    9.6090173   0.21163087 
   23000    -681.6527    41.950242   -639.70246    1272.7106    1830.1215    9.6118889   0.17686154 
   23100   -678.54371    42.310893   -636.23281    1283.6522    1183.8872    9.5487069   0.22071843 
   23200   -677.85363    45.615474   -632.23815    1383.9085    1054.6614    9.5309157   0.23840474 
   23300   -676.34299    40.591366   -635.75162    1231.4842    11309.147    9.6400464   0.25660267 
   23400   -680.77867    39.277946   -641.50072    1191.6369   -2768.1342    9.5575847   0.21590634 
   23500   -675.38565    39.215625   -636.17002    1189.7462   -7674.5251    9.4128919   0.27422053 
   23600   -673.80631    41.398846   -632.40746     1255.982    1984.2853    9.4715108   0.24832325 
   23700   -680.82386    42.759348   -638.06452    1297.2577    8615.2267    9.6800708   0.20966981 
   23800   -680.01534      40.4305   -639.58484    1226.6038    8109.1826    9.6564739   0.21438703 
   23900   -675.84522    42.865359   -632.97986    1300.4739   -11401.799    9.3443228   0.26225942 
   24000   -677.18012    40.343381   -636.83674    1223.9607   -5523.4845    9.4601792   0.23232077 
   24100   -681.14692    40.658513   -640.48841    1233.5214    8165.5741     9.654034   0.19992491 
   24200   -676.62176    42.460716   -634.16104    1288.1976    4401.2435    9.5527513   0.22013067 
   24300   -681.21048    45.639811   -635.57066    1384.6468   -2620.6414    9.5308309   0.21946343 
   24400    -682.0832    41.222087   -640.86112    1250.6194    4034.5728    9.6440948   0.19501935 
   24500   -676.06878    41.807596   -634.26119    1268.3829   -5800.1689    9.4377625   0.25477009 
   24600   -676.12564    41.980371   -634.14527    1273.6246    -7031.488    9.4226276   0.24525699 
   24700   -678.25691    38.774112    -639.4828    1176.3513   -5114.4979    9.4950959   0.24431563 
   24800    -678.7494    41.262965   -637.48643    1251.8596    1809.8092    9.5675168   0.23177361 
   24900   -674.61668    42.446667   -632.17001    1287.7714    929.47843    9.4820865   0.25037924 
   25000   -678.58455    40.209736   -638.37481    1219.9061    6676.9297    9.6141917   0.22394746 
   25100   -680.11639      41.2202   -638.89619    1250.5622   -1692.7433    9.5481091   0.22449065 
   25200   -675.34067    43.633461   -631.70721     1323.777   -410.18424    9.4800402   0.27997655 
   25300   -675.99939    40.297502   -635.70188    1222.5688   -8933.7248    9.4111586   0.27067418 
   25400   -678.30896    37.754971   -640.55399     1145.432    2939.8322     9.579443   0.23610055 
   25500   -679.17412     43.92746   -635.24666    1332.6965    3467.9262    9.5834218   0.24960562 
   25600   -675.27541    42.489246   -632.78617    1289.0632   -925.53262    9.4742951    0.2631993 
   25700   -675.57222     37.47127   -638.10095    1136.8249    6685.2234    9.5685604   0.28718377 
   25800   -680.69247    38.918588   -641.77388    1180.7345   -8138.2631    9.5082235    0.2683603 
   25900   -675.77905    42.101655   -633.67739    1277.3042   -11129.779    9.3705371   0.27787412 
   26000   -675.59546    40.869357    -634.7261    1239.9181   -838.97797     9.475832    0.2736863 
   26100   -679.91279     46.72326   -633.18953    1417.5171    2718.0717    9.5781832   0.23812739 
   26200   -675.11403    45.938772   -629.17526    1393.7169    9891.7071    9.5887061   0.24980117 
   26300   -669.60094    45.944936     -623.656    1393.9039   -6461.0161    9.2981276   0.33852222 
   26400   -671.71852    40.695305   -631.02322    1234.6376   -3757.4717    9.3611183   0.32195965 
   26500   -676.23295    41.630019   -634.60293    1262.9955   -2636.9412    9.4543104   0.28024317 
   26600   -678.59626    40.136433   -638.45983    1217.6822    907.76686    9.5527964    0.2608143 
   26700   -674.10361    41.290418   -632.81319    1252.6924    6194.2738    9.5340662    0.2970177 
   26800   -674.55983    43.380926   -631.17891    1316.1155   -1691.8229    9.4393429   0.26010263 
   26900   -675.79109     38.30242   -637.48867    1162.0408   -1873.2693    9.4803288    0.2354182 
   27000   -677.59555    40.749974   -636.84557    1236.2962    4434.5596    9.5638677   0.25426458 
   27100     -675.554     44.59048   -630.96352    1352.8116   -8073.8202    9.3937732   0.29206921 
   27200   -678.90261    40.754588   -638.14802    1236.4361    1804.8159    9.5738561   0.22357082 
   27300   -681.52171     42.83542   -638.68629    1299.5656    3955.9153    9.6242623    0.1998043 
   27400   -675.34365    41.835381   -633.50827    1269.2259    -326.7595    9.4753057    0.2899427 
   27500   -673.03292    42.748613   -630.28431     1296.932    584.37343    9.4563366   0.26367137 
   27600   -678.99488    42.469616   -636.52526    1288.4676   -5758.6427     9.480807   0.25264263 
   27700   -679.85674    43.409282   -636.44746    1316.9758    2482.3018     9.574798   0.21918058 
   27800    -677.7216    41.613782   -636.10782    1262.5029    9055.8595    9.6360849   0.20922742 
   27900   -671.69216    44.237038   -627.45512    1342.0887    -175.5175    9.4159764   0.26014267 
   28000   -672.29796    41.182725   -631.11524    1249.4252   -10302.147     9.306047   0.30243338 
   28100   -676.17112    39.789416    -636.3817    1207.1542   -267.52902    9.5117172   0.24666289 
   28200   -674.19127    35.984114   -638.20716    1091.7067     9825.728    9.5965288   0.24678487 
   28300   -675.28522    44.621941   -630.66328    1353.7661    -3726.308    9.4329791    0.2525236 
   28400   -675.21144    41.585233   -633.62621    1261.6367   -841.40923    9.4656186   0.27161952 
   28500   -679.89243    40.714537   -639.17789    1235.2211   -10411.947    9.4662248   0.25797571 
   28600   -677.02642    40.265352   -636.76106    1221.5934   -3317.2881    9.4766897   0.28494102 
   28700   -675.57589    44.605892      -630.97    1353.2792    12257.454    9.6181327   0.26357989 
   28800   -680.10791    42.444764   -637.66315    1287.7137    15186.116     9.732184   0.20418448 
   28900   -677.57492    39.324031   -638.25089    1193.0351    1419.9626    9.5426316   0.20428701 
   29000   -673.34474    38.711824   -634.63291    1174.4616   -898.24071    9.4440547   0.27863125 
   29100    -672.7146    40.303196    -632.4114    1222.7415    1398.1645     9.447001   0.27679931 
   29200   -679.54866     40.01547   -639.53319    1214.0123    5583.7774    9.6169275   0.19941711 
   29300   -678.94608    41.709916   -637.23616    1265.4194    790.61063    9.5613905   0.21314039 
   29400   -673.00867    42.583138   -630.42553    1291.9117    4814.7642    9.4987784    0.2670744 
   29500    -676.6211    40.731848   -635.88925    1235.7462    6681.5012     9.580764   0.24445845 
   29600   -678.86407    38.934653   -639.92941    1181.2219    3861.9544    9.5747942   0.23463452 
   29700   -675.43117    40.750908   -634.68026    1236.3245   -12533.428     9.338685   0.24884998 
   29800   -673.72024     40.16714    -633.5531    1218.6138   -7737.5162     9.369354   0.25946639 
   29900   -679.89108    41.099514   -638.79156    1246.9007    4608.6607    9.6268494   0.19266965 
   30000   -680.34672    44.954064   -635.39265    1363.8422    6484.1951    9.6152838   0.20446085 
   30100     -674.182    43.005225   -631.17677    1304.7172    1007.5058    9.4503019   0.29071099 
   30200   -677.46463    38.228532    -639.2361    1159.7992   -4772.6172    9.4745009   0.23485427 
   30300   -677.24563    37.914975   -639.33066    1150.2863    1895.2367    9.5585957   0.21432981 
   30400   -676.56051    43.864654   -632.69586    1330.7911    1712.3749    9.5301576   0.23755336 
   30500   -676.00515     42.81558   -633.18957    1298.9637    642.44345    9.4791813   0.28113504 
   30600   -680.64935    39.758184   -640.89117    1206.2067    1778.1997    9.6041099   0.20576459 
   30700    -679.2915    41.680777   -637.61073    1264.5354   -534.32766    9.5494676   0.22904633 
   30800   -675.14486    41.898884   -633.24598    1271.1524    4419.2899    9.5127791   0.24348002 
   30900    -678.7185    40.635099    -638.0834     1232.811     8325.784    9.6403365   0.20911058 
   31000    -678.1963    37.804672   -640.39163    1146.9399    5422.0752    9.6040645    0.2163733 
   31100    -675.2058    39.824167   -635.38163    1208.2085   -8413.1184     9.394466   0.25300229 
   31200   -676.55173    41.919105   -634.63263    1271.7659   -5533.7055    9.4433885   0.26388176 
   31300   -678.84705     38.41065    -640.4364    1165.3244    5933.5998    9.6091085   0.21935792 
   31400   -681.47467    40.314203   -641.16046    1223.0755   -1145.4139    9.5927573   0.22088938 
   31500   -677.08052    41.140045   -635.94047    1248.1304   -2432.2181    9.4954214   0.23693755 
   31600   -679.21123    45.224418   -633.98681    1372.0444    1107.9596    9.5327194   0.24607494 
   31700   -672.51483    41.389917   -631.12491    1255.7111    12684.097    9.5781264   0.27676537 
   31800   -680.65977    41.950876   -638.70889    1272.7298    -897.8184    9.5661398   0.20256094 
   31900   -675.82463    37.773099   -638.05153     1145.982   -5712.0787    9.4210471   0.25153386 
   32000   -671.64697    40.404075   -631.24289    1225.8021   -5352.8232    9.3660688    0.3074055 
   32100   -673.14803    41.118185   -632.02985    1247.4671   -1027.6347    9.4227647   0.30592731 
   32200   -679.64907    41.424491   -638.22458      1256.76   -1135.1268    9.5473435   0.23967289 
   32300   -675.54271      39.0514   -636.49131    1184.7638    3446.2613    9.5449171   0.25616623 
   32400    -671.5887     41.55424   -630.03447    1260.6964   -194.97786    9.4080003   0.30994827 
   32500   -678.87802    41.662845   -637.21517    1263.9914    113.25585    9.5335759   0.24591244 
   32600   -677.15543    38.207696   -638.94774    1159.1671    1969.8145    9.5359017   0.24122899 
   32700   -674.11601    40.290037   -633.82597    1222.3423   -4441.2817    9.3911812   0.26690674 
   32800   -674.91395    41.081017   -633.83293    1246.3395   -4740.8478    9.4288411   0.28004713 
   32900   -681.26808    39.972281    -641.2958     1212.702    7739.1222    9.6782582   0.20005272 
   33000   -678.96304    42.229517   -636.73353    1281.1834    7090.8353    9.6200062   0.23610655 
   33100   -675.66667    40.476845   -635.18983    1228.0098    524.38392    9.4893996   0.25032849 
   33200   -678.76526    39.169193   -639.59606    1188.3375   -10241.781    9.4430719   0.24978187 
   33300   -680.89626    38.864039   -642.03222    1179.0796    4189.0623    9.6274544   0.18557966 
   33400   -675.54844    43.020858   -632.52758    1305.1915    2798.8294    9.5099304   0.25782702 
   33500   -676.19575    41.984423   -634.21133    1273.7476   -1748.7367    9.4741895    0.2569555 
   33600   -679.55565     39.97787   -639.57778    1212.8716   -6409.8164    9.4939945   0.23955256 
   33700   -679.68478    42.400394   -637.28438    1286.3675   -3151.9631    9.5256581   0.22248633 
   33800   -677.27898      44.6133   -632.66568     1353.504   -2694.8871    9.4893626    0.2666123 
   33900   -682.45228    45.759632   -636.69265     1388.282     12827.43    9.7498955   0.17820812 
   34000   -682.81924    42.343395   -640.47584    1284.6383    5242.0407    9.6702064   0.18550699 
   34100    -675.7058    41.899505    -633.8063    1271.1713   -7973.3903    9.4033408   0.26047854 
   34200   -673.68372    37.564541   -636.11918    1139.6546   -5036.6846    9.3971047   0.29183001 
   34300   -676.40963    36.407882   -640.00174    1104.5633   -1361.4029    9.4976406   0.25232467 
   34400   -677.40757    41.832075   -635.57549    1269.1255     6760.868    9.5891443   0.22823295 
   34500   -673.47764    42.045271   -631.43237    1275.5936    15123.252    9.6212378   0.25689643 
   34600   -678.75802    42.273043   -636.48498    1282.5039   -3738.8929    9.5033391   0.23978131 
   34700   -680.63175    42.635812   -637.99594    1293.5098   -6283.2428    9.5021721   0.20897549 
   34800   -674.69902    40.607617    -634.0914    1231.9773    6167.6109    9.5198696   0.23968948 
   34900   -671.37471     41.57313   -629.80158    1261.2695    1098.0628    9.4273552   0.29452503 
   35000   -679.24137    41.955915   -637.28545    1272.8827   -2572.4322    9.5278189   0.21182465 
   35100   -678.31516     40.41125   -637.90391    1226.0197    4615.5762     9.581696    0.2193415 
   35200   -676.27267    43.219769    -633.0529    1311.2262    2990.3179    9.5376457   0.26353361 
   35300   -673.12545    43.788997   -629.33645    1328.4958   -138.23489    9.4467337   0.26098656 
   35400   -676.63914    38.292642    -638.3465    1161.7442     1384.461    9.5238537   0.23503372 
   35500   -676.75536    39.106789   -637.64857    1186.4443   -2837.8469    9.4857091   0.25990394 
   35600   -675.66857    40.091507   -635.57706    1216.3192   -810.37081      9.48373   0.27819905 
   35700   -674.13506    41.046786   -633.08828     1245.301    6367.7098    9.5248624   0.24956714 
   35800   -672.52062    44.892526    -627.6281    1361.9753    8924.2296    9.5294372   0.25341661 
   35900    -676.9726    43.008902    -633.9637    1304.8288     476.8339    9.5050157   0.24821284 
   36000   -676.16859    39.792607   -636.37598     1207.251   -6645.8823    9.4161062   0.28439617 
   36100   -676.23859    38.523394    -637.7152    1168.7449   -6012.5157    9.4332419   0.29313381 
   36200   -671.21642     40.79738   -630.41904    1237.7344   -1789.1413     9.392512   0.30084724 
   36300   -673.45881    44.672119    -628.7867    1355.2884    1170.7536    9.4415399   0.24758202 
   36400   -676.90437    41.652222   -635.25214    1263.6691    1975.0839    9.5262802   0.22775982 
   36500   -676.76938    40.135295   -636.63409    1217.6477   -246.40228    9.5217499   0.21034082 
   36600   -679.79282    37.343017    -642.4498    1132.9339      9840.26    9.6726781   0.19314788 
   36700   -679.85437    41.018416   -638.83596    1244.4403   -651.58358    9.5614654    0.2277796 
   36800   -677.32476    41.113088   -636.21167    1247.3125   -848.01119    9.5064283   0.25232369 
   36900   -677.20661     41.92107   -635.28554    1271.8255    1394.4732    9.5314431    0.2410784 
   37000   -676.26904     41.12028   -635.14876    1247.5307    5682.3267    9.5634609   0.23472503 
   37100   -670.93592    44.912787   -626.02313      1362.59   -2622.0077    9.3659677   0.28712071 
   37200   -673.31421    40.398919   -632.91529    1225.6456    7692.0106    9.5054586   0.24650289 
   37300   -675.23002    39.352253   -635.87777    1193.8913     3607.757    9.5203867    0.2600464 
   37400   -678.03534    40.196066   -637.83927    1219.4914    113.35015    9.5322376   0.25622132 
   37500   -677.56038    43.703159   -633.85722    1325.8916   -3706.9108     9.472212   0.26993315 
   37600   -670.83482      40.8088   -630.02602    1238.0809    3582.5635    9.4402438   0.30738921 
   37700   -678.39804    42.052005   -636.34604    1275.7979    5211.5266    9.5938926    0.2311079 
   37800   -681.77921    43.036574   -638.74264    1305.6683    -3182.568    9.5615223   0.22206208 
   37900   -677.82349    45.090983    -632.7325    1367.9962   -10689.538    9.4067508   0.28005559 
   38000   -674.99592    42.178196   -632.81772    1279.6264    3531.0609    9.5298358   0.25230298 
   38100   -679.61308    41.631092   -637.98199     1263.028    9816.6981    9.6520567    0.2148102 
   38200   -676.18968     40.48291   -635.70677    1228.1938    4669.1313    9.5582866   0.24298604 
   38300   -674.14416    43.063715   -631.08044    1306.4917   -9729.9706    9.3444753   0.30659707 
   38400   -671.21707    44.370849   -626.84622    1346.1483   -2904.9812    9.3769339   0.32199294 
   38500   -674.89042    39.458604   -635.43182    1197.1178    13800.121    9.6466112   0.24472633 
   38600   -676.83491    41.226881   -635.60803    1250.7648    2749.2121    9.5581365   0.24417539 
   38700   -678.29591    39.935414   -638.36049    1211.5836   -10284.504    9.4441389   0.24196902 
   38800   -681.01356    36.255069   -644.75849    1099.9271    6071.4995    9.6591642   0.21773953 
   38900   -675.42836    38.774101   -636.65426     1176.351   -1610.5552     9.481128   0.32011048 
   39000   -673.34666    39.272119   -634.07454    1191.4601   -891.63101    9.4646026   0.27682117 
   39100   -676.60193    39.841315   -636.76062    1208.7287     76.58849    9.5133871   0.25049987 
   39200   -680.70808    37.932598   -642.77548     1150.821    1232.7233    9.6120448   0.22553437 
   39300   -680.59939     42.93568   -637.66371    1302.6073   -3959.1484    9.5259302   0.21317574 
   39400   -674.28989    38.968908   -635.32099    1182.2612    1058.7914    9.4776033   0.25708486 
   39500   -677.41336    43.267852    -634.1455     1312.685    -9485.694     9.409317   0.25602781 
   39600   -674.00979    42.078113   -631.93167      1276.59   -1167.9458    9.4431256   0.30905523 
   39700   -682.56502     43.04852    -639.5165    1306.0308    2769.2862    9.6352885   0.22209964 
   39800   -678.92985    42.973921   -635.95593    1303.7675    3823.7028    9.5862216   0.22018105 
   39900   -675.79585    41.370834   -634.42502    1255.1322    3350.6705     9.516901   0.30197482 
   40000   -673.92736    44.909865   -629.01749    1362.5013    3920.8352    9.4995585   0.27130546 
   40100   -678.97584    41.454946   -637.52089     1257.684    6058.5518    9.6165035   0.22502869 
   40200    -678.0822    40.626441   -637.45576    1232.5483   -3971.5569    9.4934963   0.24722309 
   40300   -675.24549       41.803   -633.44249    1268.2435    1124.3272    9.4901111   0.26061785 
   40400   -672.44523    41.438533    -631.0067     1257.186    1944.5719    9.4472397   0.31966157 
   40500   -677.44367    39.007764   -638.43591      1183.44    586.82934    9.5241896   0.25205139 
   40600    -676.8472    36.963968   -639.88323    1121.4341   -6722.6317    9.4483699   0.24590365 
   40700   -673.78945    42.450477   -631.33897     1287.887   -2232.9423    9.4202439   0.26938818 
   40800   -678.10093    43.946815   -634.15411    1333.2838    4296.8928    9.5852303   0.25184723 
   40900   -676.23507    38.326465    -637.9086    1162.7703    9318.5286    9.6092344   0.25002896 
   41000   -673.77683    41.529156   -632.24767    1259.9354    -5215.641    9.3887529   0.26766738 
   41100   -675.63587    41.497149   -634.13872    1258.9644   -7674.6287    9.3909397    0.2610133 
   41200   -680.96246    41.297629   -639.66483    1252.9112   -1358.2671    9.5547836   0.22089151 
   41300   -675.97325    40.066846   -635.90641     1215.571    4129.5056    9.5500127   0.25650846 
   41400   -673.85304    41.708238   -632.14481    1265.3685    1006.4229     9.450424   0.30009469 
   41500   -678.57438    38.849697   -639.72469    1178.6445   -8006.6247    9.4544784   0.24605066 
   41600   -679.40209    40.495077   -638.90701    1228.5629   -3777.3334    9.5109626   0.22381948 
   41700   -677.53019    45.181834   -632.34836    1370.7525    4643.7803    9.5742062   0.25186922 
   41800   -678.03583    45.908755   -632.12708    1392.8062    2515.7568    9.5421814   0.23580078 
   41900   -679.22603    40.156645   -639.06938    1218.2954    8475.3683    9.6437238   0.20952408 
   42000   -675.98418    39.239801   -636.74438    1190.4797   -809.98801    9.4869943   0.23862645 
   42100   -673.71606    41.436799   -632.27927    1257.1334    1423.5737    9.4646481   0.26507923 
   42200   -679.86183    41.330296   -638.53153    1253.9023   -1060.7662    9.5471075   0.24323769 
   42300   -679.37566    39.426983   -639.94868    1196.1585    -1318.934    9.5413497   0.24257334 
   42400   -674.67998    42.542833   -632.13714    1290.6889    3014.6084    9.4943048   0.25419843 
   42500   -676.79024    41.524723   -635.26552    1259.8009    7379.8944     9.599542   0.23093826 
   42600   -679.01952    38.419515   -640.60001    1165.5933    2815.9725     9.570838   0.23322816 
   42700   -673.78282    39.593731   -634.18909    1201.2174   -13591.413    9.3092815   0.28975368 
   42800   -676.18817    41.239515   -634.94866    1251.1481   -5282.0786    9.4362181   0.26375018 
   42900   -678.53668    38.461227   -640.07546    1166.8588    7365.2668    9.6204916   0.23709688 
   43000   -677.97021    43.609895   -634.36032    1323.0621    7836.7008    9.6031555    0.2107115 
   43100   -678.22555    44.047482   -634.17807    1336.3379    1857.0113    9.5593011   0.20782805 
   43200   -681.62756    40.779891   -640.84767    1237.2038   -4987.0392    9.5335229   0.18561969 
   43300   -676.51969    39.625148   -636.89454    1202.1705   -1282.3868    9.4916741   0.22595313 
   43400   -672.87114    39.545451   -633.32569    1199.7526    7315.2624    9.5152162   0.26469904 
   43500   -678.49452    41.804695   -636.68982    1268.2949    5050.4821    9.5879911   0.20268514 
   43600   -681.40043    39.405791   -641.99464    1195.5156   -7405.5219     9.509442   0.24176114 
   43700    -677.2683    41.740084   -635.52822    1266.3347   -2532.2033    9.4977414   0.25322041 
   43800   -675.18173    40.225427    -634.9563    1220.3821   -4456.9211    9.4215734   0.25001437 
   43900   -680.59636    37.770084   -642.82627    1145.8905    8474.8491    9.6793392   0.21259228 
   44000   -679.82637    41.606638   -638.21973    1262.2861    7044.6697    9.6386388   0.20354289 
   44100   -677.60568    41.446996   -636.15868    1257.4428   -7259.1086    9.4455658    0.2412874 
   44200   -674.29353    39.263583   -635.02994    1191.2012   -2754.8967    9.4368673   0.27862076 
   44300   -671.12983    44.844215   -626.28562    1360.5096   -3616.2299    9.3528218   0.29215042 
   44400   -673.43656    41.293837   -632.14273    1252.7962    739.03959    9.4576622    0.3011821 
   44500   -678.21788    41.080254   -637.13763    1246.3164   -2348.5454    9.5078177   0.22158199 
   44600   -678.77326    39.067151    -639.7061    1185.2417   -847.67557    9.5301218   0.20808922 
   44700   -674.49168    42.028173   -632.46351    1275.0749   -8828.5636    9.3751593   0.28428305 
   44800   -673.91498    40.912422   -633.00256    1241.2246    792.40566    9.4455347   0.27784989 
   44900   -678.43123    39.042249   -639.38898    1184.4862    6562.4176    9.6259169   0.22564488 
   45000   -678.41638    42.391915   -636.02446    1286.1103    4716.9805    9.5967623   0.22295737 
   45100   -674.82888    43.691532   -631.13734    1325.5388    9103.9061    9.5450355   0.23893209 
   45200   -674.75809    38.600368   -636.15772    1171.0802    9691.0346    9.5819817   0.23689612 
   45300   -679.97214     40.02846   -639.94368    1214.4064   -1513.3158    9.5547252   0.21647389 
   45400   -677.67561    43.013099   -634.66252    1304.9561    3934.1757    9.5623484   0.25043611 
   45500   -674.60298    39.788813   -634.81417    1207.1359    4397.6358    9.5179715   0.29887648 
   45600   -680.41018     38.50069   -641.90949    1168.0561   -6419.6013    9.5088172   0.22707545 
   45700   -676.19079    36.776494    -639.4143    1115.7464   -7556.1719    9.4355637   0.25611427 
   45800    -675.5951    40.358388   -635.23672     1224.416    1816.8385    9.4924919   0.24227244 
   45900   -676.02304    42.520865   -633.50217    1290.0225    2153.6779     9.509057    0.2228052 
   46000   -680.38925    38.676668   -641.71258     1173.395    561.60101    9.5666577   0.22319368 
   46100   -680.38139    42.011907   -638.36948    1274.5814   -4985.6062    9.5146153   0.24380432 
   46200   -675.13359    40.866741   -634.26684    1239.8387    3593.8691    9.5207392   0.22994132 
   46300   -681.90431    42.453456   -639.45086    1287.9774    1637.4238    9.5993823   0.20325512 
   46400   -679.66465    36.855706   -642.80894    1118.1496   -3085.7185     9.538097   0.21695716 
   46500   -678.58991    42.485454   -636.10445    1288.9481   -7984.9246    9.4471582   0.23927701 
   46600   -674.10595    39.458398   -634.64755    1197.1116    9400.7277    9.5826205   0.24330167 
   46700   -676.32563      38.4854   -637.84023    1167.5922    7330.3393    9.5849855   0.26852943 
   46800   -682.84282    39.020211   -643.82261    1183.8176   -3539.6386    9.5848323    0.2069902 
   46900   -675.96437    38.701354   -637.26302    1174.1439   -9628.8707     9.400747   0.27735875 
   47000    -677.9543     42.91975   -635.03455    1302.1241   -3661.8466    9.4819074    0.2470848 
   47100   -680.44535    42.717354     -637.728    1295.9836    4119.5503    9.6195135   0.19543316 
   47200   -682.78359    43.798711   -638.98488    1328.7905    9334.3081    9.7169661   0.17698092 
   47300   -674.20134    43.576965   -630.62437     1322.063   -1850.6211    9.4342067   0.26027474 
   47400   -675.88086    40.264273   -635.61659    1221.5607    -3374.124    9.4685745   0.25347918 
   47500   -678.26646    40.218548   -638.04791    1220.1735     3828.244    9.5780166   0.24697449 
   47600   -679.35059    40.236123   -639.11447    1220.7067    3009.7717    9.5929195   0.21015735 
   47700   -685.40338    37.965721   -647.43766    1151.8259    890.69292    9.6845433    0.1859776 
   47800    -683.5933    40.338039   -643.25526    1223.7986   -5654.1544    9.5692636   0.18580234 
   47900   -677.88092    39.358224    -638.5227    1194.0724    -4901.804    9.4928679   0.21834783 
   48000   -676.08249    40.236977   -635.84551    1220.7325    11913.567     9.624152   0.20587161 
   48100   -680.08812    43.892367   -636.19575    1331.6319    1612.0861    9.5977168   0.20195182 
   48200   -683.87027    40.861296   -643.00897    1239.6735   -2306.9886    9.6064817   0.19948683 
   48300   -678.18318    41.465413   -636.71777    1258.0015    -3338.001    9.5034715   0.21647057 
   48400   -676.59933    40.964626   -635.63471    1242.8084    11296.853    9.6359604   0.20619575 
   48500   -681.64247    40.936075   -640.70639    1241.9422    6654.0669    9.6731766    0.1966678 
   48600   -679.86908    38.375051   -641.49403    1164.2444   -2276.1101     9.542355   0.21257735 
   48700   -673.63226    38.597967   -635.03429    1171.0073   -7177.1768    9.3794184   0.28537349 
   48800   -675.04277    39.015873    -636.0269     1183.686     1243.487    9.4836752   0.22634868 
   48900   -681.29632    39.956462   -641.33986    1212.2221    1273.5414    9.5844807   0.20691766 
   49000   -679.66141    45.423227   -634.23819     1378.076    1826.4333    9.5540796   0.22371085 
   49100    -680.5584    45.509771   -635.04863    1380.7016    783.77129    9.5771809    0.2102496 
   49200   -677.97837    38.692772   -639.28559    1173.8836   -4233.6175      9.48593   0.23215752 
   49300   -679.58555    41.222414   -638.36313    1250.6293   -6529.5882     9.477586   0.21511635 
   49400   -678.64143    46.335012   -632.30641    1405.7382    3379.2504    9.5654541   0.19786798 
   49500   -677.14035     40.16915    -636.9712    1218.6748    5885.6282    9.5690569   0.23079191 
   49600   -673.30626    39.009726   -634.29653    1183.4995    8082.4779    9.5456322   0.24685109 
   49700   -678.94475    42.872861   -636.07189    1300.7015   -4473.6365    9.4983182   0.25028541 
   49800   -683.00858    39.896907   -643.11167    1210.4153     -982.246    9.6147405    0.2026184 
   49900   -679.33908     41.06973   -638.26935    1245.9971    4473.8778    9.6038236   0.23269828 
   50000   -675.76501    41.394922   -634.37009     1255.863    2928.7478    9.5125323   0.27547087 
   50100   -673.14944    42.586955   -630.56249    1292.0275   -1229.6308    9.4326721   0.25552304 
   50200   -678.69464     42.36806   -636.32658    1285.3866    6726.4984    9.6032459   0.19489286 
   50300    -681.9154      43.8623    -638.0531    1330.7197    4573.7807    9.6460042   0.20313749 
   50400   -678.09563    43.289125   -634.80651    1313.3304    2780.3551    9.5673247   0.22370895 
   50500   -678.32714    42.735332   -635.59181    1296.5291    6344.6129    9.6095931   0.23796918 
   50600   -681.90103     39.66999   -642.23104     1203.531   -107.75575    9.6027659   0.19975917 
   50700   -676.55364    40.573379   -635.98026    1230.9385   -2051.9375    9.4832547   0.25717889 
   50800   -677.79107    42.329233   -635.46184    1284.2086   -1717.0797    9.5004208   0.24793714 
   50900   -678.15996    38.462916   -639.69704    1166.9101    2530.2896     9.565951   0.23983259 
   51000   -676.07332    41.315691   -634.75763    1253.4592   -7596.3073    9.4119586   0.29100785 
   51100   -674.25792    42.577798   -631.68012    1291.7497     315.3851    9.4529539   0.27080835 
   51200   -676.02983    40.485561   -635.54427    1228.2742    472.54501    9.4959849   0.25214656 
   51300   -677.96342    39.426578   -638.53684    1196.1462   -3162.9242    9.5101333   0.26076358 
   51400   -679.38865    44.802015   -634.58663    1359.2293   -6466.9857    9.4753842   0.24350631 
   51500   -673.52564    41.238027   -632.28761     1251.103    10927.751    9.5728248   0.24360509 
   51600   -678.43788     39.34351   -639.09437     1193.626   -1076.1257    9.5285563   0.23164008 
   51700   -677.31757    40.274379    -637.0432    1221.8673   -6244.9722    9.4424242   0.25924004 
   51800   -675.79388    45.172002   -630.62188    1370.4542   -656.82987    9.4607193   0.27857786 
   51900   -674.06587     37.44253   -636.62334     1135.953    7593.8552    9.5414744   0.28450402 
   52000   -679.08318    39.695856   -639.38732    1204.3157   -8000.4149    9.4617545   0.24178117 
   52100   -676.44223    44.015298   -632.42694    1335.3614    3315.1296      9.53132   0.22606537 
   52200   -679.07009    45.521497    -633.5486    1381.0574    2540.5879    9.5671147   0.21117077 
   52300      -677.72    38.271145   -639.44885     1161.092    2568.5062    9.5620024   0.22678337 
   52400   -675.93964    40.197958   -635.74168    1219.5488   -12128.715    9.3711977   0.25159845 
   52500   -673.37899    41.942335   -631.43665    1272.4707   -199.30907    9.4552546    0.2709441 
   52600     -676.621    41.164544   -635.45646    1248.8736    7768.8888    9.5862913   0.23692294 
   52700   -679.58421    40.965185   -638.61902    1242.8253    5426.9364    9.6161744   0.21270109 
   52800   -675.95185    41.444514   -634.50733    1257.3675    3033.7577    9.5368973   0.22175599 
   52900    -674.9556     44.13705   -630.81855    1339.0552    646.87537    9.4724689   0.26507356 
   53000    -677.2282    37.837875   -639.39033    1147.9472    1315.6654    9.5449917    0.2279384 
   53100   -679.70813    40.827526   -638.88061     1238.649    -8067.658    9.4646827   0.25641719 
   53200   -675.29235    39.866112   -635.42623     1209.481   -1534.1491    9.4720977   0.26243443 
   53300   -679.05789    43.562921   -635.49497     1321.637    1937.7928    9.5623447   0.21591929 
   53400   -683.62829    41.302644   -642.32564    1253.0634    3491.2837     9.655067   0.20096857 
   53500   -677.31817     39.55509   -637.76308    1200.0451   -3276.7945    9.4867083   0.24255002 
   53600     -674.216    38.430193   -635.78581    1165.9173   -2215.2287    9.4347613   0.29204027 
   53700   -675.10902     45.30124   -629.80778    1374.3751     -1742.04    9.4592747   0.23665798 
   53800   -675.99375    42.937126   -633.05662    1302.6512   -22.698544    9.4725888   0.28984246 
   53900   -680.89544    41.859754   -639.03569    1269.9653   -12967.086    9.4399392    0.2340602 
   54000   -675.81253    40.599596   -635.21293    1231.7339    3889.6887    9.5459888   0.25522476 
   54100   -676.43393    46.435772   -629.99816    1408.7952   -1120.0313    9.4627209   0.26250078 
   54200   -676.32119    40.487959   -635.83324     1228.347    8613.2731    9.6007689   0.26339114 
   54300    -680.5448    43.931172   -636.61363    1332.8092    17351.502    9.7685804   0.21795053 
   54400    -675.4571    45.235476   -630.22162    1372.3799   -5197.7132    9.4322308   0.26435015 
   54500   -673.45265    40.370324   -633.08233    1224.7781   -5684.9086    9.3849277   0.29716537 
   54600   -680.97578    41.954505   -639.02127    1272.8399   -1891.8646    9.5674751   0.21792908 
   54700   -680.22282    44.697485   -635.52534     1356.058    3977.2998    9.6054179   0.21869561 
   54800     -675.047    43.455283   -631.59171    1318.3714     4389.202    9.5099433   0.24967343 
   54900   -682.07078    42.845807   -639.22498    1299.8807   -1271.5652    9.5822636   0.21317479 
   55000   -679.82783    41.691494   -638.13634    1264.8605    5938.9451    9.6370103   0.22247734 
   55100   -672.94276    41.160765     -631.782     1248.759    2261.2349    9.4586925      0.27208 
   55200   -676.43579    40.233452   -636.20233    1220.6256   -11384.607    9.3893628   0.26163431 
   55300   -679.24263    40.072553   -639.17008    1215.7442    2815.1818     9.579231   0.22537194 
   55400    -677.1592    44.294788   -632.86441    1343.8407    10191.695    9.6119268    0.2119251 
   55500   -677.05138    42.345513   -634.70586    1284.7025    112.97501     9.509593   0.25334503 
   55600   -678.57139    38.624985    -639.9464     1171.827   -3629.2871    9.4984431   0.21784952 
   55700   -674.30395    40.808511   -633.49544    1238.0721   -964.08494    9.4367432   0.25594871 
   55800    -671.8129    39.071707   -632.74119    1185.3799   -193.27881    9.4102342   0.31492571 
   55900   -678.50033    40.246803   -638.25353    1221.0307    2587.2375    9.5715498    0.2095107 
   56000   -676.87397    36.514441   -640.35953    1107.7961    15168.958     9.705596   0.20925665 
   56100   -674.25838    40.167649   -634.09073    1218.6292   -339.01229     9.472419   0.28143312 
   56200   -676.61755    43.913948    -632.7036    1332.2866    -6897.841    9.4285871   0.28363075 
   56300   -679.27162    39.525015    -639.7466    1199.1326    3212.6667    9.5815692   0.26930202 
   56400   -674.91602    39.979583   -634.93644    1212.9236     6769.796    9.5337638   0.26203329 
   56500    -675.0112    40.496445   -634.51475    1228.6044   -1032.5857    9.4670174    0.2505181 
   56600   -679.20996    39.238137   -639.97183    1190.4292    5076.7938    9.6204823   0.20441699 
   56700   -680.12981    39.196465   -640.93335    1189.1649    1462.0552    9.5920285   0.20791603 
   56800     -675.184     42.78155   -632.40245    1297.9313   -495.49289     9.461677   0.25104067 
   56900   -678.93889    43.843175   -635.09572    1330.1395    858.70299    9.5487182    0.2472229 
   57000   -680.20397    41.635011   -638.56896    1263.1469    14804.825    9.7290069   0.19230631 
   57100   -680.80423    43.109777   -637.69445    1307.8892    10261.135    9.6776267    0.2151397 
   57200   -672.70328     42.04926   -630.65402    1275.7146   -6853.4174    9.3615606   0.29628794 
   57300   -675.36938    40.575099   -634.79428    1230.9907    -8718.959    9.4052489    0.2934703 
   57400   -677.71646    39.426508   -638.28996    1196.1441    9643.1266    9.6288147   0.24350572 
   57500   -679.85897    42.145785   -637.71318    1278.6431    4661.7974    9.6219308   0.23191326 
   57600   -669.54658    39.361375   -630.18521     1194.168   -1642.3377    9.3600636    0.3157041 
   57700   -674.66852    39.430191   -635.23833    1196.2558   -6625.9899     9.414782   0.27411168 
   57800   -679.12515     41.82238   -637.30277    1268.8314   -74.830684    9.5396407   0.22379114 
   57900   -677.03114    39.548437   -637.48271    1199.8432    320.53446    9.5212041   0.23714694 
   58000   -674.58054    43.966507   -630.61403    1333.8812   -5542.6232    9.4054745   0.27554429 
   58100    -677.4531    39.104177   -638.34892     1186.365    3699.9846    9.5565393   0.25306103 
   58200     -679.245     42.11113   -637.13387    1277.5917   -12500.506    9.4188286   0.23852574 
   58300    -671.2287    38.206843   -633.02185    1159.1412    7785.5381    9.5039353   0.31323032 
   58400    -674.1325    43.368804   -630.76369    1315.7477   -8503.7494    9.3607877   0.33117239 
   58500    -678.1531    39.482492   -638.67061    1197.8425   -155.13745    9.5230124   0.24161916 
   58600   -676.10388    39.007553   -637.09633    1183.4336   -4002.3806    9.4575256   0.24784396 
   58700   -675.17809    41.822001   -633.35609    1268.8199    -7692.456    9.4008759   0.28935388 
   58800   -676.30076    41.288778   -635.01198    1252.6427   -6502.7214    9.4311742   0.24989132 
   58900   -681.36413    39.515372   -641.84876    1198.8401    1946.9454    9.6050723    0.2065678 
   59000   -680.36068    42.186507   -638.17417    1279.8785    1705.6532    9.5850819    0.2213227 
   59100   -678.14919    43.307155   -634.84204    1313.8774    4605.3477    9.5790168   0.23854734 
   59200   -678.61801    39.286285   -639.33173    1191.8899   -1870.8594    9.5189454   0.27235678 
   59300   -679.01246    38.176925   -640.83554    1158.2335   -4596.6813     9.486154   0.26066031 
   59400   -674.80692    40.624433   -634.18249    1232.4874   -4271.0844    9.4118312   0.29554318 
   59500   -675.45564    41.100122   -634.35552    1246.9191   -3842.9737    9.4237348   0.27607335 
   59600   -678.09429    38.073931   -640.02036    1155.1088    5865.5487    9.6043433   0.23770729 
   59700   -680.42168    41.204809   -639.21687    1250.0952     4720.782    9.6155043   0.21764716 
   59800   -675.55167    41.404941   -634.14673    1256.1669    3835.4291    9.5334579   0.23256068 
   59900   -675.80694    36.613162   -639.19378    1110.7912   -4520.3597    9.4488478   0.26306255 
   60000   -677.70628    38.101706   -639.60457    1155.9515   -5885.9985    9.4938776   0.23941816 
   60100   -672.60985    41.296561   -631.31329    1252.8788    9089.4523    9.5324553   0.25579848 
   60200   -673.33756    38.352836   -634.98473    1163.5704    7279.7711    9.5462982   0.26054697 
   60300   -679.21507    41.114802   -638.10026    1247.3645   -1572.2324    9.5493753   0.24957374 
   60400    -676.2538    43.393967   -632.85983    1316.5111    3340.4437    9.5184292   0.23977014 
   60500   -675.06541    44.125626   -630.93978    1338.7086    8427.7173     9.574842   0.25512428 
   60600   -674.40645    37.653059   -636.75339    1142.3401    10459.332    9.5887498   0.25924082 
   60700   -675.75442    40.823088   -634.93133    1238.5143   -6745.6282    9.4067832   0.25008179 
   60800   -678.44428     39.43225   -639.01203    1196.3183   -14327.978     9.381963   0.25902402 
   60900   -681.43919    39.012515   -642.42668    1183.5841    5280.8178    9.6502373   0.21982321 
   61000   -677.91202    42.876663   -635.03536    1300.8169    1509.5296    9.5463566   0.24041363 
   61100   -676.81183    42.926366   -633.88546    1302.3248    8007.2539    9.5885856   0.25188932 
   61200   -678.92406    38.893507   -640.03056    1179.9736    641.88353    9.5528624   0.25748175 
   61300   -678.53084     39.02431   -639.50653     1183.942   -1864.5709    9.5186274   0.21373432 
   61400   -676.01727    41.989467   -634.02781    1273.9006    1951.4743    9.5151174   0.24765522 
   61500   -678.08625    42.507906   -635.57835    1289.6293   -200.71322    9.5217865   0.22669456 
   61600   -684.34796    42.739905   -641.60806    1296.6678    1320.5261    9.6510913   0.19143511 
   61700   -677.53283    41.808597   -635.72423    1268.4133    9363.5456    9.6386162   0.23707941 
   61800   -677.95026     43.03157   -634.91869    1305.5165   -1750.9045    9.4952863   0.26182539 
   61900   -676.27753    38.259099   -638.01843    1160.7265   -12305.112     9.380306   0.28085748 
   62000   -680.53879     35.49885   -645.03994    1076.9845   -7587.7054    9.5073682    0.2069483 
   62100   -680.76691    42.047003    -638.7199    1275.6462    729.99463    9.5773237   0.21346405 
   62200   -676.48217     42.29093   -634.19124    1283.0466    1281.8087    9.5157889   0.28478423 
   62300   -673.24867    41.883238   -631.36543    1270.6778    2629.0476    9.4682379   0.29195489 
   62400   -679.82759    40.945234   -638.88236    1242.2201   -4320.9801    9.5159313   0.21555923 
   62500   -681.59376    43.031741   -638.56202    1305.5217   -175.20939    9.5758725    0.2191903 
   62600    -679.5233    43.849642   -635.67366    1330.3356    -2045.474    9.5396747   0.21447413 
   62700   -674.84343    40.376665   -634.46677    1224.9705    1986.9632    9.5093972   0.26321244 
   62800    -673.4387    43.667849   -629.77085    1324.8203    2251.9358    9.4700232   0.30295042 
   62900   -678.27467    40.260063   -638.01461    1221.4329   -2392.0198    9.5069613   0.24111299 
   63000   -677.40226     38.13469   -639.26757    1156.9522   -2695.5536    9.4968192   0.26254824 
   63100   -671.51664    40.310819   -631.20582    1222.9728   -26.966443     9.418295   0.31837571 
   63200   -674.33145    41.588674   -632.74278    1261.7411   -1390.7649    9.4647788   0.30405189 
   63300   -679.02783    41.856831     -637.171    1269.8766    5750.1883    9.6064684   0.22528246 
   63400   -680.18257    39.315963    -640.8666    1192.7903   -167.66515    9.5740164   0.20998123 
   63500   -677.19829    44.248405   -632.94989    1342.4336   -7822.7944     9.419991   0.24590274 
   63600   -674.75381    39.833811      -634.92    1208.5011    7233.5744    9.5504998   0.21743914 
   63700   -681.22648    41.610011   -639.61646    1262.3884    11887.093    9.7062297   0.19581813 
   63800   -677.76096    43.352891   -634.40806    1315.2649    5021.4819    9.5782438   0.24105907 
   63900   -675.30142    42.069838   -633.23158     1276.339   -8276.1038    9.3824989   0.28443085 
   64000   -679.84354     41.36238   -638.48116    1254.8757   -5673.9835    9.4915313   0.24289152 
   64100   -681.07451    39.395379   -641.67913    1195.1997    3664.8705    9.6228867   0.21354608 
   64200    -675.5511     40.74076   -634.81035    1236.0166   -1448.7975    9.4745035    0.2726522 
   64300   -672.76319    38.192324   -634.57086    1158.7007   -3521.0688    9.3885595   0.27718405 
   64400    -677.2099    38.704215   -638.50568    1174.2307   -5444.5455    9.4561958   0.24755394 
   64500   -683.77378    44.451543   -639.32224    1348.5965    2244.5698    9.6465678   0.20091243 
   64600   -679.47961     47.45937   -632.02024    1439.8496   -5873.6168    9.4837169   0.23597929 
   64700    -679.0769    42.430035   -636.64687    1287.2668    6414.2144    9.6302826    0.2350301 
   64800   -679.69499    39.492863   -640.20213    1198.1572    1405.1074    9.5841283   0.22310955 
   64900   -674.92605    41.342358   -633.58369    1254.2682   -9829.2927    9.3638184   0.29380245 
   65000    -673.6024    41.555453   -632.04695    1260.7332    4919.9888    9.5004676   0.27084647 
   65100   -677.92576    39.146418   -638.77934    1187.6465     4107.955    9.5826542   0.20783442 
   65200    -675.1869    37.083731   -638.10316    1125.0676    12637.462    9.6370831   0.21256306 
   65300   -677.12887    46.451632   -630.67724    1409.2763   -4320.7849    9.4522257   0.22845701 
   65400   -679.99417    44.103364   -635.89081    1338.0332   -4136.0249    9.5115124   0.23937305 
   65500   -682.97617    43.341424   -639.63474     1314.917    2336.4558    9.6357684   0.21037345 
   65600   -678.54945    42.359095   -636.19036    1285.1146    1901.8844    9.5626485   0.22602462 
   65700   -675.73474    43.437836    -632.2969    1317.8421   -1839.3251    9.4675508   0.24732863 
   65800    -679.0996    42.148833   -636.95076    1278.7355    925.13771    9.5483432   0.22033068 
   65900    -681.8497    45.688657   -636.16104    1386.1288    2210.0809     9.608998   0.20599899 
   66000   -671.73781    42.925441   -628.81237    1302.2967    660.35106    9.4213062   0.30131419 
   66100   -673.14796    39.513055   -633.63491    1198.7698   -7872.8367    9.3521502   0.33503643 
   66200   -675.97883    37.787245   -638.19159    1146.4112   -9856.1371    9.4009126   0.29076517 
   66300   -680.38094    42.245623   -638.13531     1281.672    4350.9711    9.6306476   0.23309875 
   66400   -679.17223    47.652726    -631.5195    1445.7158    8546.5004    9.6261074   0.21321437 
   66500   -673.59328    39.358488   -634.23479    1194.0804     6048.637    9.5306783   0.27040701 
   66600   -678.81169    39.139378   -639.67231     1187.433   -12469.556    9.4082595   0.27845158 
   66700   -673.86675    39.477818   -634.38893    1197.7007    2868.0963    9.5008714   0.26903662 
   66800   -674.54022    41.500814   -633.03941    1259.0756    3283.9722    9.4995284   0.29608037 
   66900   -680.31404    39.429529   -640.88451    1196.2357   -1341.7196    9.5434262   0.20576118 
   67000   -678.01254    38.924222   -639.08832    1180.9054   -11833.924    9.4026704   0.25895537 
   67100    -676.2366    40.923887   -635.31271    1241.5724   -3310.4951    9.4565331   0.24284036 
   67200   -680.33837    43.528863    -636.8095    1320.6037   -2811.8096    9.5307102   0.24057196 
   67300   -684.70471    41.422472   -643.28224    1256.6988    -974.7572    9.6322096   0.19185353 
   67400   -677.53906    38.974075   -638.56498    1182.4179    8098.6562    9.6166608   0.21048667 
   67500   -675.95389    41.409746   -634.54414    1256.3127   -285.85586     9.484504   0.25393017 
   67600   -675.30245    41.018995   -634.28345    1244.4579   -6309.9563    9.3983001   0.30129925 
   67700   -674.31661    41.863026   -632.45359    1270.0646   -3732.3735    9.4221388   0.31994262 
   67800   -675.55941    39.297162   -636.26224    1192.2199    15001.125    9.6442587   0.23627993 
   67900   -675.37433    40.531781   -634.84255    1229.6765   -4485.6668    9.4243291   0.26637131 
   68000   -670.32203    42.595238   -627.72679    1292.2788   -12006.861    9.2637476   0.31615051 
   68100   -675.31115    39.927365   -635.38378    1211.3394    3462.0239    9.5132167   0.25120434 
   68200   -677.76709    40.754112   -637.01298    1236.4217    8629.2719    9.6165239   0.22633349 
   68300    -677.5257    41.365988   -636.15971    1254.9851   -576.27119     9.495162   0.24723367 
   68400   -669.15627    39.862281   -629.29399    1209.3648   -5359.1985    9.2929037   0.34351147 
   68500   -673.62825    39.575619   -634.05263    1200.6679   -5399.8179    9.3825788   0.31574265 
   68600   -677.56825    39.773646   -637.79461    1206.6757   -2606.0738    9.4957901   0.25440184 
   68700   -678.11333    40.105819   -638.00751    1216.7534   -1378.3889    9.5167787   0.25938839 
   68800   -673.61247    43.494079   -630.11839    1319.5484   -7462.6841     9.361351   0.29291855 
   68900    -677.4051    42.446986   -634.95812    1287.7811    2703.6494    9.5440165    0.2509496 
   69000   -678.58713    40.421697   -638.16543    1226.3367    9029.2534    9.6503608   0.21824723 
   69100   -676.08833    41.772258   -634.31607    1267.3108   -5259.3674    9.4317043   0.28541731 
   69200    -673.6777    44.328346   -629.34935    1344.8589    -3599.014    9.3970031   0.31128597 
   69300   -678.99871    43.871701   -635.12701    1331.0049   -1430.5551    9.5249081   0.23379681 
   69400   -680.92344    41.237023   -639.68642    1251.0725    1103.2322    9.5894518   0.21647063 
   69500    -679.4706    44.043237   -635.42736     1336.209    2284.2417    9.5812252   0.23295866 
   69600   -674.86531    42.185048   -632.68026    1279.8342    8595.5289    9.5727163   0.24258405 
   69700   -677.00121    38.968662   -638.03254    1182.2537   -12791.223    9.3659522   0.26857488 
   69800   -676.80069    39.161981   -637.63871    1188.1187   -11118.983    9.3925785    0.2649639 
   69900   -672.26913    42.577069   -629.69206    1291.7276    2647.7865    9.4607185   0.27206186 
   70000   -677.65091    42.819368   -634.83154    1299.0786    5320.2122      9.58137   0.23043672 
   70100   -680.83496     42.39427   -638.44069    1286.1817    1713.2166    9.6050954   0.21128191 
   70200   -680.97801    43.092645   -637.88536    1307.3694   -547.65223    9.5677539    0.2181265 
   70300   -674.05063    43.816959   -630.23367    1329.3441    1001.2335     9.463756   0.27039499 
   70400   -677.09155    40.942193   -636.14935    1242.1278    2041.5056    9.5287998   0.21978271 
   70500   -678.61632    39.515044   -639.10128    1198.8301     273.6302    9.5441885   0.22178495 
   70600   -680.14857    43.979908   -636.16866    1334.2878   -4732.9541    9.5145504   0.26663642 
   70700   -674.87048    45.589051   -629.28143    1383.1068    6182.1584    9.5448631   0.27988027 
   70800   -677.17345    43.078026   -634.09542    1306.9259    7157.3744    9.5790429   0.26771451 
   70900   -676.27841    39.144852   -637.13356     1187.599   -11118.086    9.3953969   0.28334638 
   71000   -673.61341    43.766522   -629.84689    1327.8139   -5823.1864    9.3749428   0.29723512 
   71100   -675.72814    43.398858   -632.32928    1316.6595    2647.7982    9.4968647   0.25814759 
   71200    -678.9283    41.738526   -637.18978    1266.2874    5161.5802    9.6008754   0.23271598 
   71300   -678.44311    41.041657   -637.40145    1245.1454   -2142.3027    9.5149615   0.24181146 
   71400   -672.99218    42.121506   -630.87067    1277.9065     -7500.79    9.3639427   0.26580009 
   71500   -670.77699    40.884257   -629.89273    1240.3701   -858.70234    9.3990228   0.30435115 
   71600   -678.20874       40.926   -637.28274    1241.6365   -2829.0168    9.5090409   0.23521618 
   71700   -681.79089    44.346097   -637.44479    1345.3974   -799.38542    9.5775437   0.21333379 
   71800   -674.47545    42.660322   -631.81513    1294.2534    6767.1377    9.5306277   0.29140582 
   71900   -675.92958    42.924736   -633.00484    1302.2753   -2851.0374    9.4439597   0.26713152 
   72000   -679.40572    41.027543   -638.37818    1244.7172   -1033.8007    9.5334527   0.22005526 
   72100   -677.26802    41.460148   -635.80787    1257.8418    1237.6345    9.5395935   0.26256782 
   72200    -673.6171    44.185605   -629.43149    1340.5283   -6235.4381    9.3746257   0.27149366 
   72300   -676.87273    40.917588   -635.95514    1241.3813    848.86203    9.5118984    0.2347337 
   72400   -678.51957    41.264143   -637.25542    1251.8953    4035.5381    9.5788351   0.22603761 
   72500   -674.61748    42.014428   -632.60306    1274.6579    1802.0273    9.4844395   0.29064833 
   72600   -670.08285    44.289321   -625.79353    1343.6749    816.34111    9.4020279   0.36268256 
   72700   -676.21553    43.011865   -633.20367    1304.9187   -2261.0045     9.485452   0.25634112 
   72800   -680.15738    43.279703   -636.87768    1313.0445    1104.5869    9.5681029   0.20637964 
   72900   -678.41717    41.532954   -636.88421    1260.0506    2222.7589    9.5779825   0.21532243 
   73000   -673.94083    43.913996   -630.02684    1332.2881    7660.7467    9.5453536   0.27352188 
   73100   -675.16498    44.177689   -630.98729    1340.2881   -5890.2949     9.412989   0.30615698 
   73200   -677.81011    40.363489   -637.44662    1224.5707    -7454.475     9.457433   0.25445018 
   73300   -678.41637    40.279153   -638.13722    1222.0121   -1389.5429    9.5252635   0.27086555 
   73400    -672.7539    41.099272   -631.65462    1246.8933   -3239.4485     9.401856   0.29342396 
   73500   -677.31617     40.67492   -636.64125    1234.0191    5614.7081    9.5834829   0.24442012 
   73600   -680.36098    42.027352   -638.33363      1275.05    7073.0383    9.6533134   0.19765976 
   73700   -679.72036    45.591049   -634.12931    1383.1675   -3667.7073    9.5009856   0.23500552 
   73800   -675.79283    44.963138   -630.82969    1364.1175   -2452.7585    9.4521473   0.26277634 
   73900   -677.24527    38.600997   -638.64428    1171.0993   -4788.8164    9.4555129   0.26095125 
   74000   -676.80415    37.473581   -639.33057     1136.895   -5459.2908    9.4476588   0.27692817 
   74100   -673.03172    40.636844   -632.39488     1232.864   -6291.4117    9.3798953   0.30334389 
   74200   -678.71536    43.539585   -635.17578     1320.929    -1953.184    9.5131212   0.24858463 
   74300   -681.33046     40.34501   -640.98545    1224.0101   -1338.5301    9.5736172   0.21622625 
   74400   -675.80651     40.68664   -635.11987    1234.3747    543.81187    9.4952724   0.26488903 
   74500   -674.25644    40.786885   -633.46955     1237.416   -7486.5214    9.3751185   0.30170242 
   74600   -679.07888    41.183785   -637.89509    1249.4574    2512.3185    9.5810184   0.22526204 
   74700   -681.10856    39.464626   -641.64394    1197.3005    5303.7151    9.6362585   0.19520554 
   74800   -676.65057    42.039837   -634.61074    1275.4288    1783.5761     9.523204   0.26291443 
   74900    -675.8769    40.067503   -635.80939    1215.5909    877.01693    9.5058883   0.24221283 
   75000   -679.51902    40.102119   -639.41691    1216.6412    100.53184    9.5704773   0.23153761 
   75100   -678.27411    44.473651   -633.80046    1349.2672   -7335.0157    9.4471677   0.26285204 
   75200   -674.04465    42.404784   -631.63987    1286.5007   -306.42577     9.463364    0.2354751 
   75300   -676.35347    38.908714   -637.44476    1180.4349    8435.7825    9.5837868   0.24119079 
   75400   -677.56671    40.143333   -637.42337    1217.8915   -4080.3497    9.4754939   0.24077516 
   75500   -672.59248    42.561406   -630.03108    1291.2524   -2351.3723    9.3982963   0.26576937 
   75600   -677.69783    43.774493   -633.92333    1328.0558    4804.7209    9.5682129   0.23757118 
   75700   -678.01837    40.790189   -637.22819    1237.5162    12554.027    9.6771452   0.19851325 
   75800   -678.35416    41.963496   -636.39066    1273.1127   -3.9154102     9.537397   0.22226583 
   75900   -673.51983    43.401023   -630.11881    1316.7252   -3931.1349    9.3910592   0.26284259 
   76000   -675.91251    39.640136   -636.27237    1202.6253    10479.103    9.5974228   0.27048668 
   76100   -677.04907     39.84004   -637.20903    1208.6901    2666.0406    9.5440961   0.22513606 
   76200   -676.19015    40.142254    -636.0479    1217.8588    -4605.426    9.4315643   0.25803631 
   76300   -672.76951    43.075867   -629.69364    1306.8604   -10313.059    9.3072795   0.30596172 
   76400   -670.66927      41.8113   -628.85797    1268.4953    494.13925    9.3867546   0.32029359 
   76500   -677.05225     41.82716   -635.22509    1268.9764    11120.351    9.6120982   0.23311235 
   76600     -677.996    40.978004   -637.01799    1243.2143    6494.3974    9.6043619   0.23403823 
   76700   -675.62247    41.452352   -634.17012    1257.6053   -132.62215    9.4769806   0.23154393 
   76800   -673.34203    43.685493   -629.65653    1325.3556   -8521.6645     9.331886   0.29312298 
   76900   -679.82784    42.216046   -637.61179    1280.7747    315.49125    9.5598863   0.22123243 
   77000   -679.53007    43.310163   -636.21991    1313.9686    8647.9044    9.6661623   0.20347751 
   77100   -676.17809    43.967544   -632.21055    1333.9126   -2785.9435    9.4672652   0.26290128 
[...]
  481400   -678.52442     43.50892   -635.01551    1319.9986    13040.005    9.6780666   0.21375954 
  481500   -674.80098    44.403529   -630.39745    1347.1398    9424.0988    9.5696973   0.26331823 
  481600   -677.76019    39.373917   -638.38627    1194.5485   -1840.1562    9.5059686    0.2565252 
  481700   -678.57906    40.527849   -638.05121    1229.5572   -7430.8728    9.4481948   0.22735117 
  481800   -676.95861    40.325623   -636.63299     1223.422    -3705.368    9.4607432   0.26057431 
  481900   -670.91344    42.589991   -628.32345    1292.1196     4182.053    9.4590793    0.2779285 
  482000   -675.54456    41.712223   -633.83233    1265.4894    5060.7127    9.5332928   0.25564964 
  482100   -677.04544    39.501442     -637.544    1198.4175    3351.4089     9.558265   0.25582835 
  482200   -677.88272    41.357719     -636.525    1254.7343   -7993.6993    9.4495374   0.26274746 
  482300   -673.47941      43.8435   -629.63591    1330.1493  -0.16010186    9.4350911   0.27005598 
  482400   -678.20316    42.049517   -636.15365    1275.7224    9819.8746    9.6510545   0.21341926 
  482500   -680.52761    42.369932   -638.15768    1285.4434    3832.3825    9.6072695    0.2121395 
  482600   -676.07619    42.808678   -633.26751    1298.7543   -6811.3462     9.423986   0.25973897 
  482700   -671.75326     43.17741   -628.57585    1309.9411   -6321.3736    9.3469487   0.29399328 
  482800   -678.10738    41.289987   -636.81739    1252.6794    5178.5609    9.5999795   0.21973849 
  482900   -683.40975    46.767763   -636.64199    1418.8673    8474.3499    9.6973683   0.19294391 
  483000    -675.4545     40.19303   -635.26147    1219.3993    6843.5073    9.5626611   0.23624585 
  483100   -671.96317    43.218604   -628.74457    1311.1909   -13485.957    9.2661541   0.30673082 
  483200   -679.40381    42.648807     -636.755     1293.904   -1153.7815    9.5494028   0.23348973 
  483300   -677.23683    39.686847   -637.54998    1204.0424    2185.8512    9.5517276   0.24099797 
  483400   -677.46806    43.378142   -634.08992     1316.031    2662.0454    9.5497488   0.25840716 
  483500   -674.24619    46.583308   -627.66288    1413.2712    -2183.302    9.4267763   0.26429389 
  483600   -675.68408    40.532502   -635.15157    1229.6984   -500.53822    9.4896114   0.25416307 
  483700    -681.9542    44.038386   -637.91581    1336.0619   -1229.9494    9.5749834   0.21847076 
  483800   -677.94856    45.261759    -632.6868    1373.1773    4989.8839     9.581437   0.23157219 
  483900   -675.97949    44.051185    -631.9283    1336.4502    2734.8821    9.5047688   0.24796437 
  484000     -682.973    44.013242   -638.95976     1335.299   -8627.9996    9.5062909   0.20792944 
  484100   -677.67787    39.168067    -638.5098    1188.3034   -4964.5942    9.4709715   0.24333311 
  484200   -671.92702    40.121864   -631.80516    1217.2402   -6944.6208    9.3512053   0.27151812 
  484300   -680.33271    43.991796   -636.34091    1334.6484    8059.6857    9.6520926   0.20721885 
  484400   -679.26754    40.165435   -639.10211    1218.5621    14040.329    9.7087131   0.21523561 
  484500   -673.87926     41.09763   -632.78163    1246.8435   -4416.0642    9.4169511    0.2626989 
  484600   -676.68156    39.787101   -636.89445     1207.084   -1103.0221    9.5139951   0.25662265 
  484700   -683.42817    42.471282   -640.95689    1288.5182    3819.6412    9.6632212   0.18103946 
  484800   -676.92121    41.676601   -635.24461    1264.4087    7748.6687    9.6052379   0.20564713 
  484900   -673.54329    41.312598   -632.23069    1253.3654    1137.9585    9.4516614   0.25579765 
  485000   -681.40663    41.787065   -639.61956      1267.76    1815.2408    9.6094548   0.22623289 
  485100   -678.95843    40.820828   -638.13761    1238.4458     9849.951    9.6580143   0.20728575 
  485200   -677.04039    41.940295   -635.10009    1272.4088    1336.2284    9.5147236   0.25077142 
  485300   -675.28512    41.275188   -634.00993    1252.2304   -10728.795    9.3609519   0.31502525 
  485400   -683.10561    39.837581   -643.26803    1208.6154   -7201.8351    9.5385913    0.2076709 
  485500   -679.86293    39.976612   -639.88632    1212.8334     5323.714    9.6212867   0.19025399 
  485600   -681.33295    45.422788   -635.91016    1378.0627    1536.9533    9.5981035   0.19104598 
  485700   -679.68289    40.837506   -638.84538    1238.9517   -3333.1444    9.5325037   0.22333734 
  485800   -679.87315    36.643074   -643.23007    1111.6987   -10470.748    9.4597208   0.24466648 
  485900   -675.34622    40.431464   -634.91476     1226.633    2603.4501    9.5107453   0.26695694 
  486000   -676.98053    42.804954   -634.17557    1298.6413    8864.4687    9.5995099   0.25455758 
  486100   -680.07851     40.55801    -639.5205    1230.4722     3278.415    9.5970562   0.21207684 
  486200   -680.90036    40.281354   -640.61901    1222.0789    -9302.768    9.4911359   0.22468051 
  486300   -674.58542    40.642058   -633.94336    1233.0221     3883.932    9.5021177   0.29169159 
  486400   -674.37548    40.860539   -633.51494    1239.6505   -83.822811     9.467629   0.27050894 
  486500   -681.58079    40.031061   -641.54973    1214.4854   -1634.9084    9.5733975   0.22533037 
  486600   -679.02592    40.974669   -638.05125    1243.1131   -1493.8591    9.5306952   0.23100694 
  486700   -675.80146    41.142486   -634.65897    1248.2044    5847.6317    9.5564401    0.2637613 
  486800   -676.43186    42.234545   -634.19731    1281.3359   -2778.7279    9.4681002   0.23983041 
  486900   -681.56603     40.99913    -640.5669    1243.8552    7203.2136    9.6592956   0.19539349 
  487000   -679.46677    44.660871    -634.8059    1354.9472   -2596.0614    9.5132425   0.24006225 
  487100   -673.86172    37.950925    -635.9108     1151.377   -4182.7176     9.436683   0.27010103 
  487200   -677.49793    38.452465   -639.04546     1166.593    2214.4084    9.5294052   0.21486924 
  487300   -676.98573    42.412496   -634.57324    1286.7347     1756.233    9.5292502   0.23516488 
  487400   -675.48661    43.083015    -632.4036    1307.0773    1504.9788    9.4938485   0.26398074 
  487500   -678.02557    40.629061   -637.39651    1232.6278    2349.9033    9.5648823   0.20465984 
  487600   -683.91602    43.858688   -640.05734    1330.6101   -6723.0029    9.5549043   0.20803522 
  487700   -676.60728    44.072469   -632.53482    1337.0959    1914.5469    9.5045118   0.21172367 
  487800   -675.37426     41.91611   -633.45815    1271.6751    15396.165      9.65597   0.20329427 
  487900   -679.31325    40.791304   -638.52194    1237.5501    5385.6005    9.6105087    0.2319733 
  488000   -680.55339    42.189931   -638.36346    1279.9824   -9374.3463    9.4735631   0.25135899 
  488100    -671.5971    41.701877   -629.89522    1265.1755   -932.75231    9.4060578   0.29628101 
  488200   -677.77343    42.657836    -635.1156     1294.178    5557.1732    9.5883742   0.20703344 
  488300   -679.05463    41.576309   -637.47832     1261.366    5173.0187    9.6065097   0.22649276 
  488400   -673.55733    40.551179   -633.00615     1230.265    852.94558    9.4707393    0.2804779 
  488500   -673.72735    45.776904   -627.95044     1388.806   -4886.5668    9.3851552   0.28477285 
  488600   -678.92862    41.718405   -637.21022     1265.677   -5104.1517    9.4889546   0.22445587 
  488700   -677.08368    40.216717   -636.86697    1220.1179    954.26734    9.5440466   0.24442026 
  488800   -676.30757    37.946673    -638.3609     1151.248   -1495.7519    9.4908522   0.28052659 
  488900   -673.48046    41.498961   -631.98149    1259.0194   -197.18127    9.4503131   0.28348637 
  489000   -675.86284    44.450082   -631.41276    1348.5522    48.356125    9.4866852   0.25419592 
  489100   -677.80033    41.731547   -636.06879    1266.0757    8062.7048    9.6141527   0.22027516 
  489200   -681.88386     44.40047   -637.48339     1347.047    1610.5397    9.6043256   0.19504465 
  489300   -680.26644    45.789865   -634.47657    1389.1993   -1244.3544    9.5293519   0.21664541 
  489400   -670.09394    41.275748   -628.81819    1252.2474   -4072.8021    9.3485283   0.32448051 
  489500   -675.70061    40.377974   -635.32263    1225.0102    992.06291    9.5004424   0.25328286 
  489600   -678.35778    40.871733   -637.48604    1239.9902   -4033.2653    9.4994001   0.26630975 
  489700   -675.85003    42.019582   -633.83045    1274.8143   -61.932558     9.489826   0.26641637 
  489800   -672.96785    46.006139   -626.96171    1395.7607    241.24016    9.4252811   0.26326844 
  489900   -675.73795    40.752406   -634.98554    1236.3699    5094.8281    9.5527364   0.23945756 
  490000   -678.05244    41.987933   -636.06451    1273.8541   -2662.8869    9.5102619   0.26108667 
  490100   -675.15405    37.968147    -637.1859    1151.8995    410.41993    9.4807602   0.26357099 
  490200   -681.26843    36.542983   -644.72545     1108.662   -7118.9276    9.5196788    0.2195446 
  490300   -679.06466    41.015943   -638.04871    1244.3653   -856.96511    9.5454166   0.24054316 
  490400   -677.95772    42.097067   -635.86065     1277.165    7283.1046     9.607865   0.23786242 
  490500   -677.67208    43.272312   -634.39977    1312.8203   -358.93124     9.515662   0.24209361 
  490600   -680.31653    39.679356   -640.63718    1203.8151   -5783.1248    9.5088474   0.22461169 
  490700   -683.57341    42.707618   -640.86579    1295.6883     3449.547    9.6492615   0.21883034 
  490800   -681.13663    46.486811   -634.64982    1410.3436    4723.5818    9.6376965    0.2027817 
  490900   -680.21894    45.300986   -634.91796    1374.3674   -6951.6296    9.4785736   0.23813924 
  491000   -677.58815     41.69434   -635.89381    1264.9469   -3977.7886    9.4808628   0.22983501 
  491100   -684.96748    40.978955   -643.98852    1243.2431    973.88351    9.6527432    0.1786631 
  491200   -676.80779    37.503728   -639.30406    1137.8097    6852.5505    9.5924231   0.23459697 
  491300   -677.70917    41.291158   -636.41801    1252.7149   -3432.5307    9.4845816   0.25469736 
  491400   -675.78153    41.824738    -633.9568     1268.903   -4087.4113    9.4395723   0.27183406 
  491500   -669.30677    40.221721   -629.08505    1220.2697    5093.3156    9.4406888   0.28722988 
  491600   -677.13834    40.024046    -637.1143    1214.2725   -167.02387    9.5112806   0.22654227 
  491700   -678.82301    41.585398   -637.23761    1261.6417   -10794.919    9.4300177   0.23500728 
  491800   -675.86621    39.453904   -636.41231    1196.9752    7119.1461    9.5681768   0.23266055 
  491900   -675.07548    45.256209   -629.81927    1373.0089    5691.2906     9.518119   0.25128387 
  492000   -676.46738      45.1203   -631.34708    1368.8856   -3410.9387    9.4564057   0.25821626 
  492100   -674.95755    37.781604   -637.17595      1146.24    1974.7919    9.5148858   0.24878406 
  492200   -674.60378    37.146858   -637.45692    1126.9827   -2406.4653    9.4493116    0.2887903 
  492300   -673.89171     42.49747   -631.39424    1289.3127   -565.92934     9.432469   0.26486826 
  492400   -677.71266    41.334107   -636.37856    1254.0179   -3581.8892    9.4942339   0.28209291 
  492500   -679.32841    40.704894   -638.62352    1234.9285    6107.1708    9.6194633   0.21212811 
  492600   -675.86883    42.390442   -633.47839    1286.0656    5352.1788    9.5598202   0.22178559 
  492700   -673.95185    43.747342   -630.20451     1327.232    3483.2269    9.4914906   0.25597285 
  492800   -677.28965    39.255486   -638.03417    1190.9555    -4353.042    9.4707548   0.23961434 
  492900   -678.10622    39.333066   -638.77315    1193.3092   -6357.1395    9.4644683   0.25485232 
  493000   -671.79848    40.996453   -630.80202     1243.774    5142.1232    9.4648241   0.27796846 
  493100   -676.86028    41.823532   -635.03675    1268.8664   -792.99079    9.4983822   0.26687269 
  493200   -680.49945    43.374435   -637.12501    1315.9186    1784.3495      9.58956   0.20501324 
  493300   -680.39152    38.318251   -642.07327    1162.5211    438.01923    9.5885786   0.21185635 
  493400   -679.90047    38.972497   -640.92797      1182.37   -5568.3795    9.5138223    0.2356813 
  493500   -678.16255    41.853016   -636.30953    1269.7609   -8164.5331    9.4356226   0.28029411 
  493600   -675.54186    39.254322   -636.28754    1190.9202    3483.5112    9.5381547   0.22262559 
  493700   -681.62708     40.46058    -641.1665    1227.5163   -730.14098    9.5815108    0.1969071 
  493800   -678.84233    40.066724   -638.77561    1215.5673    8887.3891    9.6554338   0.19948834 
  493900   -678.09922     44.60935   -633.48987    1353.3841    5710.5936    9.5953189   0.24670624 
  494000    -680.6662    43.632442   -637.03376    1323.7461    306.73967    9.5756885    0.2300882 
  494100   -675.86544    34.999492   -640.86595    1061.8347   -1600.4229    9.4847933   0.24914288 
  494200   -675.32291    42.205723   -633.11718    1280.4615   -8290.6287    9.3872773   0.26556059 
  494300   -678.63849    42.732003   -635.90648    1296.4281    5735.8758    9.5951128   0.19616089 
  494400   -679.05071    38.949756   -640.10095    1181.6801    6343.8549    9.6144687    0.2111024 
  494500   -675.21752    41.212836   -634.00468    1250.3387    843.34083     9.492982   0.22384705 
  494600    -676.5552    40.565856   -635.98934    1230.7103   -212.35334      9.48543   0.26004892 
  494700   -679.89075    39.035819   -640.85493    1184.2911   -3861.0389    9.5261336   0.21060626 
  494800   -677.72875    42.677601   -635.05115    1294.7776   -436.98707    9.5140933   0.24341024 
  494900   -674.63794    41.446301   -633.19163    1257.4217    5992.7916    9.5299705   0.28448365 
  495000   -677.89074    40.929169   -636.96157    1241.7327   -5238.3252    9.4588596   0.23259151 
  495100   -683.74642     42.58413   -641.16229    1291.9418    9075.6771    9.7157907   0.18541235 
  495200   -675.99073    42.665258   -633.32547    1294.4031    11548.869    9.6198482   0.23882793 
  495300   -677.10554    43.395325   -633.71022    1316.5523     3272.809    9.5528011   0.25254364 
  495400   -677.38865    40.046672   -637.34198     1214.959   -1273.1952    9.5123018   0.24658435 
  495500   -679.29494    37.660092   -641.63485    1142.5535   -1663.2377    9.5398772   0.20886602 
  495600   -682.58927    39.234517   -643.35475    1190.3193    624.65645    9.6280628   0.19722407 
  495700   -677.89941    40.405223   -637.49419    1225.8369    4412.7043    9.5744441   0.25155031 
  495800   -677.65933    42.142737   -635.51659    1278.5506   -2386.1156    9.4931565   0.25806302 
  495900   -676.48693    38.678348   -637.80859     1173.446   -6851.1197    9.4339347    0.2858056 
  496000   -678.81976    36.514924   -642.30483    1107.8108   -2833.0646    9.5194793   0.25629089 
  496100   -677.08982    42.790766   -634.29906    1298.2109    275.02514    9.5117676   0.24443203 
  496200    -674.0461    38.636028   -635.41008     1172.162    4194.4423     9.524065   0.25735178 
  496300   -681.19737     40.92553   -640.27184    1241.6223   -544.19776    9.5785751   0.19575207 
  496400   -681.29825    39.703223   -641.59503    1204.5392   -2788.3957    9.5507721   0.23864463 
  496500   -677.66487    42.230077    -635.4348    1281.2004   -5213.7665    9.4617422   0.24031734 
  496600   -677.33665    41.399946    -635.9367    1256.0154    5530.8151    9.5685168   0.25464926 
  496700   -678.62051    41.372803   -637.24771    1255.1919    691.63801    9.5470925    0.2466198 
  496800   -683.95832    40.325978   -643.63234    1223.4327    2926.8972    9.6745083   0.19956321 
  496900   -678.48305    40.548666   -637.93438    1230.1888   -695.50295    9.5260288   0.22945055 
  497000     -676.171    40.604872   -635.56612     1231.894   -10822.036    9.3816561   0.26919925 
  497100    -672.3395    39.043641   -633.29586    1184.5285   -6031.3209    9.3808513   0.30065131 
  497200   -671.42955    46.413194   -625.01636    1408.1102   -1508.4727    9.3804435   0.29686635 
  497300   -675.53772    42.862656   -632.67506    1300.3919   -115.33069    9.4828963   0.26423662 
  497400   -678.20126    43.545163    -634.6561    1321.0982    8349.2569    9.6148797   0.23162435 
  497500   -679.32344     43.24899   -636.07445    1312.1127    7527.5693    9.6363375    0.1841923 
  497600    -681.8118    43.762193   -638.04961    1327.6826     11822.78    9.7296166   0.20025816 
  497700   -677.04198    46.285298   -630.75668      1404.23   -1373.3042    9.4907964   0.27737026 
  497800   -672.91856    39.657744   -633.26082    1203.1595    2989.1926    9.4662363   0.26727614 
  497900   -675.91884    39.248034    -636.6708    1190.7294   -3930.7166    9.4532738   0.26649064 
  498000   -671.56081    38.097434   -633.46337    1155.8219    4285.4715    9.4747047   0.29568973 
  498100   -672.65911    42.351925   -630.30718    1284.8971    4885.5159    9.4841693   0.26573588 
  498200   -680.11445    43.578719   -636.53573    1322.1162   -705.41167     9.557992   0.21504323 
  498300   -677.95075    39.523389   -638.42736    1199.0833    1241.7551    9.5551781   0.21889651 
  498400   -681.95914    41.479631   -640.47951    1258.4329   -8732.4995    9.4949445   0.21330959 
  498500   -673.48726    42.285361    -631.2019    1282.8776   -576.23746      9.42496   0.27657197 
  498600   -676.34157    42.951247   -633.39032    1303.0796    2509.7097     9.508412   0.25045729 
  498700   -676.03558    37.274641   -638.76094    1130.8595    525.55899    9.5047789    0.2503723 
  498800   -676.83914    41.162315   -635.67683     1248.806    -5383.395     9.465705   0.27650661 
  498900   -672.49685     42.05991   -630.43694    1276.0377    823.33722    9.4479063   0.26301191 
  499000   -677.23323    39.569641   -637.66359    1200.4865     3865.035    9.5563473   0.24660185 
  499100   -677.27309    40.747334   -636.52576    1236.2161    2999.8632    9.5420361   0.25049214 
  499200   -675.05293    43.494539    -631.5584    1319.5623   -8478.9252    9.3679284   0.27976813 
  499300   -671.75863    41.487656   -630.27097    1258.6764   -1507.5771    9.3909253   0.31822758 
  499400   -678.68162    42.544907   -636.13671    1290.7519    1178.6706     9.555847   0.23484463 
  499500   -681.21588    43.580755   -637.63513     1322.178    11089.992    9.6969837   0.19421055 
  499600   -678.26843    43.057168   -635.21126    1306.2931    1239.0812    9.5678838   0.21852615 
  499700   -673.38411    41.996372   -631.38773    1274.1101   -733.60599    9.4353418   0.29021203 
  499800   -678.15037    40.737103   -637.41326    1235.9057   -7082.0315    9.4535879   0.22769028 
  499900   -681.54697    39.786391   -641.76058    1207.0624    -5339.063    9.5381849   0.24313494 
  500000   -673.23272    38.832316   -634.40041    1178.1171    4938.8211     9.511207   0.29087586 
Loop time of 352.318 on 1 procs for 500000 steps with 256 atoms

Performance: 613.083 ns/day, 0.039 hours/ns, 1419.174 timesteps/s
100.0% CPU use with 1 MPI tasks x no OpenMP threads

MPI task timing breakdown:
Section |  min time  |  avg time  |  max time  |%varavg| %total
---------------------------------------------------------------
Pair    | 211.49     | 211.49     | 211.49     |   0.0 | 60.03
Neigh   | 13.873     | 13.873     | 13.873     |   0.0 |  3.94
Comm    | 3.879      | 3.879      | 3.879      |   0.0 |  1.10
Output  | 0.15759    | 0.15759    | 0.15759    |   0.0 |  0.04
Modify  | 122.09     | 122.09     | 122.09     |   0.0 | 34.65
Other   |            | 0.8238     |            |       |  0.23

Nlocal:    256 ave 256 max 256 min
Histogram: 1 0 0 0 0 0 0 0 0 0
Nghost:    1431 ave 1431 max 1431 min
Histogram: 1 0 0 0 0 0 0 0 0 0
Neighs:    11648 ave 11648 max 11648 min
Histogram: 1 0 0 0 0 0 0 0 0 0

Total # of neighbors = 11648
Ave neighs/atom = 45.5
Neighbor list builds = 25254
Dangerous builds = 0
    
Total wall time: 0:05:52
