LAMMPS (3 Mar 2020)

# ---------- 1. Initialize simulation ----------
units metal
atom_style atomic
dimension 3
boundary p p p
read_data /home/modeler/RemLabs/Project/eval_timestep/n3_T1800_timestep1.167861e-03_steps12844/20201204-080328/lammps.data
  orthogonal box = (0 0 0) to (17.469 17.469 17.469)
  1 by 1 by 1 MPI processor grid
  reading atoms ...
  217 atoms
  read_data CPU = 0.000959789 secs

pair_style meam/c
pair_coeff * * library.meam Li Si LiSi.meam Li Si
Reading potential file library.meam with DATE: 2012-06-29
Reading potential file LiSi.meam with DATE: 2020-11-07

group Li type 1
1 atoms in group Li

velocity all create 1800 3320 dist gaussian

# ---------- 2. Describe computed properties----------
compute msdli Li msd
thermo_style custom step pe ke etotal temp press density c_msdli[4]
thermo 100

# ---------- 3. Specify ensemble  ----------
fix 1 all npt temp 1800 1800 0.05839303672725303 tchain 2 iso 1.0 1.0 1.0 pchain 2

# ---------- 4. Run -------------
timestep 0.0011678607345450606
run 12844
Neighbor list info ...
  update every 1 steps, delay 10 steps, check yes
  max neighbors/atom: 2000, page size: 100000
  master list distance cutoff = 6
  ghost atom cutoff = 6
  binsize = 3, bins = 6 6 6
  2 neighbor lists, perpetual/occasional/extra = 2 0 0
  (1) pair meam/c, perpetual
      attributes: full, newton on
      pair build: full/bin/atomonly
      stencil: full/bin/3d
      bin: standard
  (2) pair meam/c, perpetual, half/full from (1)
      attributes: half, newton on
      pair build: halffull/newton
      stencil: none
      bin: none
Per MPI rank memory allocation (min/avg/max) = 9.27 | 9.27 | 9.27 Mbytes
Step PotEng KinEng TotEng Temp Press Density c_msdli[4] 
       0   -951.06911    50.256344   -900.81276         1800    -114182.3    1.8918427            0 
     100   -956.96132    41.285791   -915.67553    1478.7073   -13802.557    2.1609479   0.38269867 
     200   -954.09116    44.597283   -909.49388    1597.3129    43002.671    2.2955635   0.61895456 
     300   -952.22439     44.15695   -908.06744    1581.5418   -10630.939    2.1528404   0.19056251 
     400    -943.4795    42.401297    -901.0782    1518.6607   -24820.911    2.0980433   0.16998242 
     500    -944.7952     46.90876   -897.88644    1680.1017    15657.322    2.2055334    0.5323317 
     600   -942.71274    45.463665   -897.24908    1628.3436    24113.887    2.2212403   0.34480751 
     700   -936.11012    42.845012   -893.26511    1534.5529   -14570.021    2.1126433    0.3180411 
     800    -934.1155    47.489809   -886.62569    1700.9127   -12008.452    2.1102518   0.90810632 
     900   -944.35616     54.94506    -889.4111    1967.9328    11046.802    2.1911047   0.21764574 
    1000   -946.25063    50.592106   -895.65852    1812.0258    10292.922    2.1928119   0.33291796 
    1100   -938.43051    47.607947   -890.82256     1705.144    -9415.282    2.1306219   0.36631324 
    1200   -935.78889    50.139179   -885.64971    1795.8036   -7549.1512    2.1276613   0.14152623 
    1300   -946.78935     53.87207   -892.91728    1929.5022    3037.6617    2.1770626     0.186475 
    1400   -948.61945     51.65293   -896.96652    1850.0206    6363.4259    2.1913384   0.21273669 
    1500   -940.13399    52.634342   -887.49964    1885.1712   -1512.0074    2.1480325   0.11706113 
    1600   -937.29385    50.077535   -887.21631    1793.5957   -9717.2596     2.122208   0.14819049 
    1700   -943.39547    47.486095   -895.90937    1700.7797    1977.4709    2.1667236   0.42487253 
    1800   -943.42832    51.461629   -891.96669    1843.1689     15080.35    2.2043856   0.36212432 
    1900   -936.08099    49.672495   -886.40849    1779.0886    -844.7214    2.1418532   0.19846583 
    2000      -942.62    50.379449   -892.24056    1804.4092   -21419.488    2.1088346   0.43039611 
    2100   -938.09263    52.642399   -885.45023    1885.4598    11841.988    2.1857859  0.097159125 
    2200   -947.26034    52.565081   -894.69526    1882.6906    7300.2949    2.1923839  0.098577246 
    2300   -939.76383    46.394752   -893.36908    1661.6917   -9816.6623    2.1355028  0.092179976 
    2400   -938.83165    51.098455    -887.7332    1830.1614   -5998.6537    2.1406143  0.078226957 
    2500   -945.53769    53.442642   -892.09505    1914.1216    4078.1312    2.1787356   0.45075484 
    2600   -944.63462    49.037202   -895.59742    1756.3347    6835.9864    2.1787756   0.17530438 
    2700   -939.26459    50.213717   -889.05087    1798.4732   -1275.9149    2.1509405    0.5511182 
    2800   -936.55855    50.209015   -886.34953    1798.3048   -3034.3616    2.1392963   0.55246813 
    2900   -943.08625    47.491289   -895.59496    1700.9658    377.14677    2.1647482   0.12624142 
    3000   -943.65219    51.656377   -891.99582    1850.1441    11316.382    2.1890511  0.052990279 
    3100   -936.84727     47.43744   -889.40983    1699.0371   -121.12628    2.1483642   0.31884683 
    3200   -946.09655    47.553352    -898.5432    1703.1886   -16396.679    2.1282886  0.037981047 
    3300   -943.29774    52.178638    -891.1191    1868.8496    10279.913    2.1913105   0.27836692 
    3400   -944.47877    50.774696   -893.70407    1818.5655    7761.5554    2.1875308   0.19470006 
    3500   -942.97364    50.463757   -892.50989    1807.4288   -13276.397    2.1290076   0.20970917 
    3600   -940.64493     55.75592   -884.88901    1996.9748   -5275.0445     2.140328   0.53414962 
    3700   -942.68608    50.089754   -892.59633    1794.0333    6395.2791    2.1805818   0.17692209 
    3800   -946.34981    51.632772   -894.71703    1849.2987    3023.6883     2.177849   0.52774478 
    3900   -938.10834    52.438604   -885.66974    1878.1606   -2213.8586    2.1440569  0.068709923 
    4000   -939.49237    51.372041   -888.12033    1839.9602   -8080.0501    2.1365307   0.21704215 
    4100   -940.08303    46.446257   -893.63677    1663.5365    7966.0753    2.1792015   0.26700659 
    4200   -942.97681    51.263854   -891.71296    1836.0853    11747.183    2.1932578   0.29792657 
    4300   -933.98523    52.096241   -881.88899    1865.8984   -3342.6826    2.1399115    1.1812148 
    4400   -937.07627    47.151528   -889.92474    1688.7967   -17320.093    2.1117956   0.83657654 
    4500   -938.56211    48.346154   -890.21596    1731.5839    8528.9026    2.1789391   0.62661854 
    4600   -939.59881    43.355508    -896.2433    1552.8371    14561.851    2.1986469   0.73323766 
    4700   -941.43594    47.498998   -893.93694    1701.2418   -6297.6521    2.1456955    1.0789939 
    4800     -937.075    49.842209   -887.23279    1785.1672   -6210.1626    2.1396569    3.6267369 
    4900   -940.81748    51.359231   -889.45825    1839.5014    5239.7993     2.171865    2.6435585 
    5000   -945.22642    48.987595   -896.23883     1754.558    3252.5581    2.1749791   0.13650223 
    5100   -939.93662    52.036951   -887.89967    1863.7749    516.99996    2.1556407    0.4648724 
    5200   -942.66275    54.967411   -887.69534    1968.7333   -6028.5565    2.1401282   0.50910679 
    5300   -946.46268    51.970511   -894.49217    1861.3952   -3120.4384    2.1609805   0.20791079 
    5400   -942.18314    52.077602   -890.10554    1865.2308    10751.649    2.1916642   0.17621021 
    5500   -938.76131    51.927517   -886.83379    1859.8554   -1431.4822    2.1495656   0.23220306 
    5600   -939.38965    46.709909   -892.67974    1672.9795   -14400.094    2.1231701   0.14561559 
    5700   -939.90052    54.258465   -885.64206    1943.3414    9500.5257    2.1812535   0.10633929 
    5800   -942.54142    46.364804   -896.17662    1660.6191    7006.3125    2.1849602    0.2174501 
    5900   -940.45531    46.718905    -893.7364    1673.3017   -6552.4002    2.1448047   0.20795942 
    6000   -936.94244    48.903124   -888.03931    1751.5326    -1615.312    2.1474081   0.15732985 
    6100   -942.49054    48.744249   -893.74629    1745.8422    3344.3518    2.1739358   0.30211291 
    6200   -945.09954    47.187484   -897.91206    1690.0846    3049.8109    2.1824048   0.44176905 
    6300   -940.70506    51.895258   -888.80981    1858.6999    1278.8443      2.16403   0.18511752 
    6400    -937.1728    47.311136   -889.86167    1694.5133   -6508.4117    2.1377302   0.34881058 
    6500   -944.64626     48.28911   -896.35715    1729.5408   -4969.6805    2.1621533   0.23263295 
    6600    -946.5413    46.719119   -899.82218    1673.3094    11329.223    2.2070104   0.27366801 
    6700   -942.09557    50.387677   -891.70789    1804.7039    5064.1277    2.1774246   0.57169514 
    6800   -937.69657    48.134147   -889.56243    1723.9906   -15055.271    2.1224941   0.37550251 
    6900    -936.3906    55.159534   -881.23107    1975.6145   -607.71587    2.1498809   0.62924809 
    7000   -942.56197    50.945112   -891.61685    1824.6691    6987.8407    2.1844381   0.12597636 
    7100   -942.82879    49.803226   -893.02556    1783.7709    1573.5194    2.1700706   0.46633703 
    7200   -939.96112    50.891699   -889.06942    1822.7561   -5067.2982    2.1453562  0.085561594 
    7300   -935.24949    53.761972   -881.48752    1925.5589    2748.1011    2.1515181   0.17550482 
    7400   -942.84248    50.592538   -892.24994    1812.0412    -289.1797    2.1601635   0.20150187 
    7500   -942.13932    49.947924    -892.1914    1788.9535    4452.3528    2.1737406   0.25215984 
    7600   -939.70647    50.971889   -888.73459    1825.6282    3172.2412     2.166458   0.38159903 
    7700   -936.03812     58.09516   -877.94296     2080.758   -1365.5864    2.1393765   0.18253952 
    7800   -939.86845    51.951408   -887.91704     1860.711   -11934.962    2.1310977   0.25146866 
    7900   -940.01695    49.183109   -890.83384    1761.5606    5211.1193    2.1776719   0.21132139 
    8000   -943.83958    47.858652   -895.98093    1714.1234    6950.2666    2.1912352   0.72334132 
    8100   -944.87914    51.007288   -893.87185    1826.8961   -5935.5151     2.155412  0.041683518 
    8200   -935.84016     49.78682   -886.05334    1783.1833    -2814.706    2.1438066   0.32951872 
    8300   -942.42227    50.541098   -891.88117    1810.1988   -1672.8569    2.1625324   0.24021046 
    8400   -945.03627    49.043523   -895.99274    1756.5611    6761.1764     2.187866   0.19961101 
    8500    -938.7989    52.067827   -886.73108    1864.8807    5981.8602    2.1724342   0.11262833 
    8600   -937.51397    47.422648   -890.09132    1698.5073   -10818.842    2.1290184   0.43581885 
    8700   -943.92657    52.731193   -891.19538    1888.6401   -4508.4989    2.1570634    0.4739292 
    8800   -937.68232    53.176166   -884.50616    1904.5774    15193.283    2.1977532   0.12777239 
    8900   -945.45712    50.572812   -894.88431    1811.3347   -7312.5803    2.1517499   0.12582659 
    9000   -940.60724    49.929546    -890.6777    1788.2953   -7884.1828    2.1403412   0.15622071 
    9100   -941.32287    51.792907   -889.52996    1855.0341    7028.0831    2.1822768   0.30342679 
    9200   -946.12421     47.00112   -899.12309    1683.4097    1163.2372    2.1844901   0.16598899 
    9300    -941.1458    47.994431   -893.15137    1718.9865    -2356.923    2.1620149   0.34921668 
    9400   -942.32085     54.00861   -888.31224    1934.3926   -4060.0172    2.1541192    0.2392093 
    9500   -943.37902     49.85738   -893.52164    1785.7105   -2524.6934    2.1649114  0.055349864 
    9600    -948.7202    50.741937   -897.97826    1817.3922     1528.459    2.1857042  0.081455807 
    9700   -939.36834    50.208777   -889.15956    1798.2963    6723.3506     2.177503   0.35558518 
    9800   -940.67068    49.915525   -890.75515    1787.7931   -7587.5279    2.1404852  0.042919204 
    9900   -942.22571     53.71565   -888.51006    1923.8998    -4478.383    2.1558123   0.16089444 
   10000   -939.31124    56.147789   -883.16345    2011.0102    8789.7078    2.1763735  0.082032704 
   10100   -941.99194    50.720919   -891.27102    1816.6394   -5432.0906    2.1494722  0.075767752 
   10200   -940.56329    50.550114   -890.01318    1810.5218   -3721.8466    2.1535679   0.46530187 
   10300   -942.03151    50.924079   -891.10743    1823.9158    5528.2763     2.177047   0.25897352 
   10400    -947.6103    48.682597    -898.9277    1743.6341   -461.97319    2.1778924   0.34659293 
   10500   -941.39647    49.352979   -892.04349    1767.6447    54.550634    2.1671269  0.084610833 
   10600   -937.91677    48.788543   -889.12822    1747.4287   -1715.8679    2.1520532   0.24500199 
   10700   -941.73826    48.326641   -893.41162     1730.885   -4310.1405    2.1570169   0.37851051 
   10800   -943.78564    46.086142    -897.6995    1650.6385    5937.9026    2.1875081   0.25022737 
   10900   -944.16826    53.673185   -890.49507    1922.3788    5594.7874    2.1834916   0.16039332 
   11000   -940.12601     50.03904   -890.08697    1792.2169   -8471.6149    2.1388244   0.16858632 
   11100   -934.57533    55.369159   -879.20618    1983.1225   -1092.2181    2.1448775   0.37109936 
   11200   -942.25352    54.975575   -887.27795    1969.0257    1806.7783    2.1688167    0.2113012 
   11300   -941.10904    49.335042     -891.774    1767.0023    2863.9534     2.171528   0.12371446 
   11400   -941.62643    49.255642   -892.37078    1764.1585   -1140.1216     2.161061   0.74983557 
   11500   -937.65307    55.029766   -882.62331    1970.9666   -49.064756    2.1575596   0.96961376 
   11600   -941.73755    51.783938   -889.95362    1854.7129   -6499.8622    2.1472778     0.191094 
   11700   -940.92503    48.740867   -892.18416    1745.7211     2175.394    2.1642264   0.45620458 
   11800   -936.28681    45.643385   -890.64342    1634.7805    10217.888    2.1790309   0.39705723 
   11900   -944.70881    43.835508    -900.8733    1570.0289   -6428.1868    2.1562908   0.55376657 
   12000   -941.82526    47.573469   -894.25179    1703.9091    30.091301    2.1685382   0.24643681 
   12100   -942.59182    51.491021    -891.1008    1844.2216    5994.2107    2.1817932   0.28846783 
   12200   -946.06503     51.91331   -894.15172    1859.3465   -4960.4926    2.1565241   0.12024697 
   12300   -947.04094    51.000565   -896.04037    1826.6553   -9117.0722    2.1560935   0.24540702 
   12400   -940.97989    54.991721   -885.98817     1969.604    7720.6176    2.1783613   0.25709539 
   12500   -940.35817    49.735723   -890.62245    1781.3532   -1789.2493    2.1562987   0.42015219 
   12600    -938.9714    47.871908   -891.09949    1714.5981   -5755.4959    2.1463293   0.21222383 
   12700   -937.04421    54.359046   -882.68516    1946.9439    9231.3312    2.1690768   0.28079999 
   12800   -943.98655    51.811459   -892.17509    1855.6986   -4781.4584    2.1574309   0.62780382 
   12844   -943.96606    50.580618   -893.38544    1811.6143   -6668.7234    2.1516537   0.27201068 
Loop time of 8.80857 on 1 procs for 12844 steps with 217 atoms

Performance: 147.129 ns/day, 0.163 hours/ns, 1458.125 timesteps/s
100.2% CPU use with 1 MPI tasks x no OpenMP threads

MPI task timing breakdown:
Section |  min time  |  avg time  |  max time  |%varavg| %total
---------------------------------------------------------------
Pair    | 8.5512     | 8.5512     | 8.5512     |   0.0 | 97.08
Neigh   | 0.06693    | 0.06693    | 0.06693    |   0.0 |  0.76
Comm    | 0.055188   | 0.055188   | 0.055188   |   0.0 |  0.63
Output  | 0.0034832  | 0.0034832  | 0.0034832  |   0.0 |  0.04
Modify  | 0.11338    | 0.11338    | 0.11338    |   0.0 |  1.29
Other   |            | 0.01841    |            |       |  0.21

Nlocal:    217 ave 217 max 217 min
Histogram: 1 0 0 0 0 0 0 0 0 0
Nghost:    957 ave 957 max 957 min
Histogram: 1 0 0 0 0 0 0 0 0 0
Neighs:    4127 ave 4127 max 4127 min
Histogram: 1 0 0 0 0 0 0 0 0 0
FullNghs:  8254 ave 8254 max 8254 min
Histogram: 1 0 0 0 0 0 0 0 0 0

Total # of neighbors = 8254
Ave neighs/atom = 38.0369
Neighbor list builds = 114
Dangerous builds = 0
Total wall time: 0:00:08
