LAMMPS (3 Mar 2020)

# ---------- 1. Initialize simulation ----------
units metal
atom_style atomic
dimension 3
boundary p p p
read_data /home/modeler/RemLabs/Project/arrhenius_4/T1500.0/n3_T1500.0_timestep3.000000e-03_eqsteps3200_time600_rseed3327/20201205-115413/lammps.data
  orthogonal box = (0 0 0) to (17.469 17.469 17.469)
  1 by 1 by 1 MPI processor grid
  reading atoms ...
  217 atoms
  read_data CPU = 0.00100497 secs

pair_style meam/c
pair_coeff * * library.meam Li Si LiSi.meam Li Si
Reading potential file library.meam with DATE: 2012-06-29
Reading potential file LiSi.meam with DATE: 2020-11-07

group Li type 1
1 atoms in group Li
group Si type 2
216 atoms in group Si

velocity all create 1500.0 3327 dist gaussian

# ---------- 2. Specify equilibration ensemble  ----------
fix 1 all npt temp 1500.0 1500.0 0.15 tchain 2 iso 1.0 1.0 1.0 pchain 2
# fix 1 all nvt temp 1500.0 1500.0 0.15

# ---------- 3. Run equilibration -------------
timestep 0.003
run 3200
Neighbor list info ...
  update every 1 steps, delay 10 steps, check yes
  max neighbors/atom: 2000, page size: 100000
  master list distance cutoff = 6
  ghost atom cutoff = 6
  binsize = 3, bins = 6 6 6
  2 neighbor lists, perpetual/occasional/extra = 2 0 0
  (1) pair meam/c, perpetual
      attributes: full, newton on
      pair build: full/bin/atomonly
      stencil: full/bin/3d
      bin: standard
  (2) pair meam/c, perpetual, half/full from (1)
      attributes: half, newton on
      pair build: halffull/newton
      stencil: none
      bin: none
Per MPI rank memory allocation (min/avg/max) = 8.895 | 8.895 | 8.895 Mbytes
Step Temp E_pair E_mol TotEng Press Volume 
       0         1500   -951.04357            0   -909.16328   -115839.99    5330.9442 
    3200    1374.1543   -946.54315            0    -908.1765     6784.363    4596.0077 
Loop time of 2.30055 on 1 procs for 3200 steps with 217 atoms

Performance: 360.540 ns/day, 0.067 hours/ns, 1390.971 timesteps/s
100.0% CPU use with 1 MPI tasks x no OpenMP threads

MPI task timing breakdown:
Section |  min time  |  avg time  |  max time  |%varavg| %total
---------------------------------------------------------------
Pair    | 2.2381     | 2.2381     | 2.2381     |   0.0 | 97.29
Neigh   | 0.014797   | 0.014797   | 0.014797   |   0.0 |  0.64
Comm    | 0.013855   | 0.013855   | 0.013855   |   0.0 |  0.60
Output  | 2.6e-05    | 2.6e-05    | 2.6e-05    |   0.0 |  0.00
Modify  | 0.028968   | 0.028968   | 0.028968   |   0.0 |  1.26
Other   |            | 0.004811   |            |       |  0.21

Nlocal:    217 ave 217 max 217 min
Histogram: 1 0 0 0 0 0 0 0 0 0
Nghost:    957 ave 957 max 957 min
Histogram: 1 0 0 0 0 0 0 0 0 0
Neighs:    4175 ave 4175 max 4175 min
Histogram: 1 0 0 0 0 0 0 0 0 0
FullNghs:  8350 ave 8350 max 8350 min
Histogram: 1 0 0 0 0 0 0 0 0 0

Total # of neighbors = 8350
Ave neighs/atom = 38.4793
Neighbor list builds = 25
Dangerous builds = 0

# ---------- 4. Describe computed properties----------
compute msdli Li msd
compute msdsi Si msd
thermo_style custom step pe ke etotal temp press density c_msdli[4] c_msdsi[4]
thermo 100

# ---------- 3. Run production -------------
timestep 0.003
run 200000
Per MPI rank memory allocation (min/avg/max) = 9.664 | 9.664 | 9.664 Mbytes
Step PotEng KinEng TotEng Temp Press Density c_msdli[4] c_msdsi[4] 
    3200   -946.54315    38.366651    -908.1765    1374.1543     6784.363    2.1943627            0 6.1890115e-32 
    3300   -952.11679     41.92392   -910.19287    1501.5628    8572.8972    2.2145101   0.14175463  0.095342036 
    3400   -952.61564    35.598212   -917.01743    1274.9989    3048.3641    2.2058367    0.1212207   0.11732878 
    3500   -949.68561    40.262265   -909.42334    1442.0483   -8343.1918     2.164524   0.44736609   0.13087819 
    3600   -951.35475    42.990136   -908.36462    1539.7508   -3460.8153     2.179509  0.073826337   0.11087193 
    3700   -952.74465    40.118247   -912.62641    1436.8901    7252.2042    2.2148717   0.12982787   0.09468527 
    3800   -957.04552    41.767557   -915.27796    1495.9624    5560.2062    2.2161906  0.055712086   0.11669504 
    3900   -949.86761    41.891942   -907.97567    1500.4175   -7901.7756    2.1687465   0.15390828    0.1299272 
    4000   -951.96503    42.232347   -909.73268    1512.6095   -9930.5052    2.1693908  0.094197035   0.12387932 
    4100   -950.79085    37.761112   -913.02973    1352.4661    6938.7318    2.2103151   0.41424633  0.095025218 
    4200   -955.75997    38.491321   -917.26865    1378.6195    11622.389    2.2279686  0.061610047   0.10413115 
    4300   -948.31935     40.56053   -907.75882    1452.7311   -6852.6695    2.1726233   0.26463088   0.10463992 
    4400   -952.44631    44.014982   -908.43133     1576.457   -9746.5716    2.1678951  0.097646428   0.11480675 
    4500   -953.39884    44.250443    -909.1484    1584.8904    3587.2642     2.200082   0.11400877   0.11224529 
    4600   -952.03637    41.209818   -910.82655    1475.9862    8671.3006    2.2151047  0.056316413   0.11458653 
    4700   -942.50053    41.073594   -901.42693    1471.1072   -299.71261    2.1749659   0.06408598   0.14880261 
    4800    -948.7542    43.368105    -905.3861    1553.2883   -5038.7546    2.1706073  0.055730217   0.13474394 
    4900   -951.92066     42.42096    -909.4997    1519.3649    252.82195    2.1910444   0.14374486   0.12722358 
    5000   -950.61052    41.065685   -909.54484    1470.8239     7182.671    2.2068829   0.37385299  0.098555723 
    5100   -947.98631     47.41085   -900.57546    1698.0847   -2832.9738    2.1749005  0.082636768   0.10922711 
    5200   -952.30428    44.051788   -908.25249    1577.7753   -4436.1731    2.1797001   0.32144149   0.10649329 
    5300   -951.40192     41.17903    -910.2229    1474.8835    -2547.809    2.1865009  0.068037358   0.12070136 
    5400   -948.93731    42.191651   -906.74565    1511.1519    4060.4593    2.1979226  0.077954643    0.1240233 
    5500   -948.46628    47.032458   -901.43382    1684.5321   -1613.2278    2.1771107   0.17497144   0.11804292 
    5600   -949.81815    39.362406   -910.45574    1409.8186   -1140.5366    2.1880655   0.12646603   0.11212796 
    5700   -949.64625     40.23473   -909.41152    1441.0621    36.321372    2.1894768 0.0067011521   0.11783005 
    5800   -949.69731    44.291708    -905.4056    1586.3684    1408.5468    2.1876496  0.036364589   0.12669751 
    5900   -948.68684    48.128141    -900.5587    1723.7755   -3786.9126    2.1731088   0.01042631   0.12824171 
    6000   -953.45561     43.25765   -910.19796    1549.3321   -3.1294724    2.1941062   0.24337207   0.11721268 
    6100   -952.91373    43.561205   -909.35253    1560.2044    705.82006    2.1916524    0.1731899   0.10310714 
    6200   -952.28684    44.399658   -907.88718    1590.2347   -1838.8636    2.1849544  0.051551259   0.10715492 
    6300   -946.80821    47.294988   -899.51322     1693.935   -1826.9155    2.1712799   0.26381143   0.12807004 
    6400   -947.07531     42.26558   -904.80973    1513.7998    3427.5658    2.1861151  0.065339257   0.11409991 
    6500   -946.58762    38.022717   -908.56491    1361.8358    1221.1323    2.1832904   0.30222728   0.12933955 
    6600   -952.16602    41.963231   -910.20279    1502.9708   -2632.4456    2.1838732   0.17201552   0.11583621 
    6700   -950.11446     39.78022   -910.33424    1424.7832    1937.6881    2.1918568   0.14313729   0.11627578 
    6800   -944.90379    43.412891    -901.4909    1554.8923   -750.14672    2.1741632   0.14790518   0.13789086 
    6900   -950.23246    42.453912   -907.77854    1520.5452    1162.9041    2.1869446   0.15492315   0.12608067 
    7000   -953.07517    42.750386   -910.32479    1531.1638    1075.8187    2.1959522   0.17641098   0.10800698 
    7100   -950.28601    41.373716    -908.9123    1481.8565    118.70645    2.1874401  0.097326735   0.10956252 
    7200   -945.34558    43.014292   -902.33129    1540.6159    -5544.824     2.160505   0.39897343    0.1107978 
    7300   -949.56724    39.514181   -910.05306    1415.2547   -19.969912    2.1875384   0.28450213   0.12303788 
    7400   -952.37705    42.954725   -909.42232    1538.4825    5458.4273    2.2061502   0.16253739   0.12732039 
    7500   -948.75995    46.297973   -902.46197    1658.2255    1485.3771    2.1866626   0.25060011   0.11355772 
    7600   -953.47194    45.856271   -907.61567    1642.4053   -9299.4257    2.1660744   0.15993791   0.12115712 
    7700   -950.90306    40.045847   -910.85721     1434.297   -8259.5057    2.1684519   0.13804898   0.12288273 
    7800   -947.13536    40.619035   -906.51633    1454.8265    9228.5791    2.2057242  0.087837385   0.13088619 
    7900   -950.52856    44.365149   -906.16341    1588.9988    8836.8996     2.206664  0.083069236   0.12708872 
    8000   -953.00487    39.230583   -913.77429    1405.0972   -3373.1502    2.1862213    0.1208124   0.10659625 
    8100   -946.83439    36.658006   -910.17638    1312.9568   -5584.0664    2.1673771   0.33251682   0.12221831 
    8200   -949.57188    42.671242   -906.90063    1528.3291    2679.7671    2.1894159   0.15104084   0.11367514 
    8300   -956.61799    42.560197    -914.0578    1524.3519    7538.2289    2.2167544   0.30131183   0.11110339 
    8400   -952.93722    40.666262   -912.27096     1456.518   -1232.1631    2.1904836   0.13883518   0.12696549 
    8500   -946.09954    38.025444   -908.07409    1361.9335   -3311.4597    2.1706062    0.4425014   0.13290767 
    8600   -952.38821    42.280429   -910.10778    1514.3316   -3084.1395    2.1837738  0.085424047   0.12000879 
    8700   -953.60175    37.549782   -916.05197     1344.897    5648.8753    2.2080684    0.1535428    0.1057422 
    8800   -949.37723    42.014225   -907.36301    1504.7972   -489.68812      2.18191   0.20956872   0.13207982 
    8900   -947.64608    39.203432   -908.44265    1404.1248    893.49239    2.1816744   0.18642448   0.12047448 
    9000    -953.1576     40.46439   -912.69321    1449.2877   -1041.8682    2.1906777   0.13595766   0.10962796 
    9100    -953.8927    39.321077   -914.57162    1408.3384    1451.8361    2.1981439  0.033075355   0.11567286 
    9200   -947.07844    40.969718   -906.10872    1467.3867   -1279.3048    2.1750142   0.17513195   0.12182255 
    9300   -953.01381    43.891797   -909.12201     1572.045   -5389.2695    2.1798361   0.16295072   0.12617276 
    9400   -954.25232    43.023229   -911.22909     1540.936   -487.78515    2.1941164   0.15410679   0.12349702 
    9500   -947.88872    41.040603   -906.84811    1469.9256    6203.8008    2.1983724   0.10884946    0.1277115 
    9600   -947.55193    43.331212   -904.22072    1551.9669   -1221.8231    2.1770786  0.022334251   0.12341573 
    9700   -951.46379    41.864502   -909.59929    1499.4346   -7723.0102    2.1709397  0.090154722   0.11650659 
    9800   -950.00237    40.022617   -909.97975     1433.465    2351.4425    2.1920909   0.10305373   0.12489644 
    9900    -946.1337    44.759695   -901.37401    1603.1299    10928.982    2.2035809  0.027149647   0.12478689 
   10000   -945.99658    38.895473   -907.10111    1393.0948    5224.1548    2.1951689     0.174207    0.1297093 
   10100   -951.37001    40.305865   -911.06414    1443.6099   -16071.725    2.1516943   0.16168551   0.11424308 
   10200   -950.09492    42.864826    -907.2301    1535.2626   -9583.6938    2.1641805  0.020808655   0.13218021 
   10300   -944.84092    43.899523   -900.94139    1572.3217    15936.386    2.2088073   0.21717289   0.12968162 
   10400   -955.10937     44.47074   -910.63863    1592.7806    6731.9316      2.21349   0.12314444   0.11294037 
   10500   -950.58302    40.495506   -910.08751    1450.4022   -5389.7949     2.173853  0.093473986   0.12297806 
   10600   -948.44052    42.099954   -906.34056    1507.8677   -6062.1541     2.170106   0.39014212    0.1314015 
   10700   -952.48673    39.918419   -912.56831     1429.733    1041.4966    2.1966987   0.23207725   0.12169002 
   10800   -954.13973     41.26412   -912.87561    1477.9311    4573.0334    2.2047138   0.15845535    0.1155391 
   10900   -953.17141    45.095134   -908.07628    1615.1442   -1537.3893    2.1875902   0.17390316   0.10335153 
   11000   -952.35146    44.057722   -908.29374    1577.9878   -4166.1247    2.1764374  0.083229419   0.10482027 
   11100   -956.76023    40.484558   -916.27567    1450.0101   -1167.0793    2.1981126    0.1341494   0.10510732 
   11200   -948.28353    39.427944   -908.85559     1412.166    2315.5679    2.1878276  0.034753626   0.11722318 
   11300   -951.77601    43.769232   -908.00678    1567.6552     1105.955    2.1891753  0.053721678   0.10811361 
   11400   -953.80941    39.626616    -914.1828    1419.2817   -404.48337     2.193415   0.15405484   0.10608437 
   11500   -950.14752    39.064311    -911.0832     1399.142   -568.17137    2.1871495   0.13650651    0.1055633 
   11600   -947.67967    40.761797   -906.91787    1459.9397    3434.9756    2.1872953  0.052147399   0.10197078 
   11700   -950.13442    39.578263   -910.55615    1417.5498    779.29158    2.1908011    0.1499116   0.12883317 
   11800   -952.17398    38.836159   -913.33782    1390.9704   -509.07614     2.188214   0.13329949   0.10981317 
   11900    -949.1214    45.048744   -904.07265    1613.4826   -4211.0642      2.16991   0.25817859   0.11155861 
   12000   -952.45709    44.754398   -907.70269    1602.9402    4780.5293    2.2026991   0.13360858    0.1044337 
   12100   -952.96107    42.433155   -910.52791    1519.8017    5869.8297    2.2048271  0.020345232   0.10556262 
   12200   -949.47112    43.579218    -905.8919    1560.8495   -6432.8476    2.1702575   0.13830896   0.12780353 
   12300   -950.27705    45.748799   -904.52825    1638.5561   -9259.3567    2.1602948   0.28483408   0.10997074 
   12400   -952.80341    42.308755   -910.49465    1515.3462   -400.02481    2.1916144   0.15959802   0.10902018 
   12500   -951.49782    42.768647   -908.72917    1531.8179    9024.8941    2.2121476  0.044893422   0.10569741 
   12600   -950.30655    49.186686   -901.11987    1761.6887   -4213.3503    2.1717342   0.28775926   0.10222069 
   12700   -948.30251     39.24043   -909.06208    1405.4499    -5218.351    2.1660204   0.13913742   0.11542614 
   12800   -953.17134    43.097362   -910.07398    1543.5912    -3916.505    2.1778595  0.075982667   0.10610412 
   12900    -950.3018    43.880295    -906.4215     1571.633    7561.3614    2.2051984   0.11173124   0.10663791 
   13000    -948.6012    46.968519   -901.63268     1682.242    4844.0818    2.1897128   0.20595219   0.10596521 
   13100   -949.71835    39.365452    -910.3529    1409.9277   -6278.2735    2.1708441  0.018040417   0.11043237 
   13200   -951.22896    41.026885   -910.20207    1469.4342   -11606.569    2.1543278   0.25042912   0.11703496 
   13300   -954.03209    45.441871   -908.59022     1627.563    3091.0385    2.1983185   0.15336597    0.1073599 
   13400   -949.96665    40.659134   -909.30752    1456.2627    15692.628    2.2276206   0.17010978   0.11714423 
   13500   -954.93527    36.658115   -918.27715    1312.9607   -541.81777    2.1974454   0.19702302   0.10616031 
   13600   -952.96184    41.189196   -911.77264    1475.2476   -13069.101    2.1623917   0.10373729   0.12926899 
   13700   -950.36767    41.707623   -908.66005    1493.8158     932.8174    2.1849904  0.023960003   0.11014478 
   13800   -950.52621    42.231331   -908.29488    1512.5731    6087.9861    2.2010003  0.076752771   0.10832459 
   13900    -954.6739    37.905076   -916.76883    1357.6223    2089.2517    2.2012088   0.21945394  0.098280648 
   14000   -952.33138    40.692116   -911.63926     1457.444   -6976.8749    2.1737787   0.17765317   0.11013102 
   14100   -951.54963    43.043596   -908.50603    1541.6655   -1431.2047    2.1844145   0.14110279   0.12207518 
   14200   -952.94626    43.676059   -909.27021    1564.3181    4920.2106    2.2033634    0.1118959   0.10572654 
   14300   -953.59144    36.390659   -917.20078    1303.3815    5394.9261        2.209  0.078248398   0.10246442 
   14400    -952.9388    43.063327   -909.87547    1542.3722   -9152.9335    2.1687036    0.2494768   0.11821484 
   14500   -949.50142    40.855321    -908.6461    1463.2894    -2488.387    2.1778011  0.052157603   0.11022453 
   14600     -951.175    41.410006   -909.76499    1483.1562    7334.3433    2.2050784  0.095469219   0.12546265 
   14700   -955.52498    38.092674    -917.4323    1364.3414     5597.852    2.2147304  0.026971556   0.10412481 
   14800   -947.48892    37.484529   -910.00439    1342.5599   -3695.6505    2.1724887   0.14089928   0.11151813 
   14900   -949.04189    40.184167   -908.85773    1439.2511   -4740.4203    2.1727396  0.073131804   0.11901201 
   15000   -951.70689    42.673976   -909.03291    1528.4271    5644.8406    2.2024692   0.33278954    0.1046631 
   15100   -955.35078    39.731946   -915.61883    1423.0542    6985.7793    2.2161912  0.095639336   0.12114486 
   15200   -953.49154    39.328943    -914.1626    1408.6201   -5483.2608     2.182423  0.099810538   0.10990223 
   15300   -950.83867     41.25066   -909.58801     1477.449   -9742.1727    2.1662664  0.079921182   0.11950608 
   15400   -952.68723    43.741841   -908.94539    1566.6741    -156.8793    2.1911655   0.34841599   0.11515211 
   15500   -949.96479    39.819387   -910.14541     1426.186    13822.863    2.2220266   0.20898312    0.1269043 
   15600   -958.96995    40.131859   -918.83809    1437.3776    574.41361    2.2097377   0.19861935   0.12062776 
   15700    -947.7575    37.489433   -910.26807    1342.7355   -17423.242    2.1394503    0.1341743   0.12099629 
   15800   -951.23392    42.086913   -909.14701    1507.4006   -8416.2545    2.1716556  0.069949719   0.11023733 
   15900   -951.94792    44.805663   -907.14225    1604.7763    12677.595    2.2214547   0.18280982   0.10585821 
   16000   -950.67173    36.336586   -914.33514    1301.4447    6367.1538    2.2058128   0.26282104   0.12498484 
   16100   -951.85372    38.154983   -913.69873    1366.5731   -5780.0338    2.1772964   0.21746901   0.11012379 
   16200   -947.44607    38.521683   -908.92439     1379.707    -1671.572    2.1791014   0.34810454   0.11659227 
   16300   -952.45541    44.398338   -908.05708    1590.1875    2569.2186    2.1982644   0.16956608   0.10511982 
   16400    -955.6147    39.649131   -915.96557    1420.0881    3854.5018    2.2103782   0.29097126   0.11443964 
   16500   -950.33852    38.892737   -911.44579    1392.9968    -3289.114    2.1811058  0.090307215   0.12792919 
   16600   -950.77636    42.351829   -908.42453    1516.8889   -3755.0678    2.1791395  0.077883936   0.12693213 
   16700   -953.46617    43.999034   -909.46714    1575.8858    2550.5032    2.1975918   0.11177159   0.11614159 
   16800   -955.45014    38.762933   -916.68721    1388.3477    6353.2863    2.2167686  0.087563319    0.1114506 
   16900   -948.76566    40.153369   -908.61229     1438.148   -3758.7285    2.1774236   0.13062657   0.13125603 
   17000   -949.33802    40.853105   -908.48492    1463.2101   -4403.9481    2.1772568  0.098643749   0.11874969 
   17100   -951.59447    41.523715   -910.07076    1487.2289    4415.3843    2.2005335  0.064908891   0.11781739 
   17200   -956.74643    40.219266   -916.52716    1440.5083    5747.2991    2.2170098   0.17851632   0.10238887 
   17300   -954.20152    39.886589   -914.31493     1428.593   -1867.1705    2.1889365   0.20406102   0.11166589 
   17400   -952.74287    42.702135   -910.04073    1529.4356   -7513.4138    2.1715729  0.067341617   0.11676952 
   17500   -953.95567    45.082861   -908.87281    1614.7046   -1645.5414    2.1884121   0.15719459   0.11084214 
   17600   -948.73543    41.237375   -907.49806    1476.9732    13909.662    2.2155028  0.056228664   0.11944741 
   17700   -944.18717    46.771585   -897.41559    1675.1886    138.89282    2.1688295   0.14650728   0.11312159 
   17800   -950.19021    44.807151   -905.38305    1604.8297   -9198.3165    2.1623039   0.25882072   0.11686703 
   17900   -949.31038    40.372854   -908.93752    1446.0092   -553.81104    2.1813694   0.17919374   0.11116621 
   18000   -954.91273    45.436494   -909.47624    1627.3704     8297.182    2.2138832   0.11004232   0.11216634 
   18100   -952.42012    40.978801   -911.44132     1467.712    5635.1775    2.2055516  0.046734287    0.1068196 
   18200   -957.76347    37.906789   -919.85668    1357.6837   -8293.7571    2.1847418    0.2172077   0.10172736 
   18300   -952.34359    38.933386    -913.4102    1394.4527   -9576.0341    2.1659086   0.16566897   0.11397863 
   18400     -952.227     42.50348   -909.72353    1522.3205    5456.4519    2.2001019  0.027158412   0.11096721 
   18500   -954.31405     47.50653   -906.80752    1701.5116     5270.183    2.2060347   0.13421099   0.11313936 
   18600   -951.13262    41.422492   -909.71013    1483.6034   -2963.7997     2.179334   0.07684867   0.11013009 
   18700   -954.22593    39.640233    -914.5857    1419.7694   -5195.1928    2.1815938   0.10389281   0.10656429 
   18800   -951.26073    42.477844   -908.78288    1521.4023     925.1017    2.1893838  0.090916812   0.10797717 
   18900   -947.83717    40.466828   -907.37034     1449.375    5620.2149    2.1915404  0.090297492    0.1097321 
   19000   -955.77714    40.058154   -915.71899    1434.7378   -130.75025    2.1949853   0.28784977   0.10343311 
   19100   -950.85316    40.231014   -910.62214     1440.929   -3752.9126    2.1773979   0.14535693     0.117122 
   19200   -949.15088    41.526024   -907.62486    1487.3116    1295.4931     2.185362   0.16725982   0.10434742 
   19300   -951.15404    39.488501   -911.66554    1414.3349    5211.1591    2.1996688   0.11736203   0.11131461 
   19400   -954.05568    38.628166   -915.42751    1383.5208    2430.8775    2.1999337   0.13041875   0.11709752 
   19500   -950.60636    43.577869   -907.02849    1560.8012   -6437.6184    2.1684924  0.040860843   0.11909145 
   19600   -951.63209    42.236986   -909.39511    1512.7757   -2605.0198    2.1785228  0.079614017   0.10480672 
   19700   -955.16214    43.180724   -911.98142    1546.5769    4614.3641    2.2063207   0.35652121   0.10001496 
   19800   -947.60541    44.795317   -902.81009    1604.4058    4031.4009    2.1888038   0.25095178   0.11824796 
   19900   -947.29901    40.828812    -906.4702      1462.34   -881.67219    2.1738866   0.33671301   0.11983201 
   20000   -952.38425    41.306604   -911.07764    1479.4528   -9029.2526    2.1690946  0.041328209   0.12077986 
   20100   -950.68101    43.021542   -907.65947    1540.8756    4041.3815    2.1989395   0.23835133   0.12012898 
   20200   -946.68028     45.54377   -901.13651    1631.2127    11014.753     2.203068   0.15631351   0.11691768 
   20300   -950.41491    40.827993   -909.58692    1462.3106    -4558.755    2.1774713    0.0787432   0.12795146 
   20400   -950.96313     40.97134   -909.99179    1467.4448   -11555.886    2.1568907   0.10607274   0.11918593 
   20500   -946.51982    42.309161   -904.21066    1515.3607     2500.932    2.1805463   0.11353887   0.12326924 
   20600   -950.40218    44.994089   -905.40809    1611.5251    9604.8255    2.2059631   0.38502175   0.11591115 
   20700   -954.99917    43.785881   -911.21329    1568.2515   -1952.3076     2.191011    0.1899977   0.10931783 
   20800   -949.86487    40.773336   -909.09154     1460.353   -5837.7825     2.165926   0.33676807   0.12908347 
   20900   -949.58446     43.44197   -906.14248    1555.9338   -3664.6883    2.1739891  0.059696178   0.13024145 
   21000   -957.63008    42.338171   -915.29191    1516.3997    5306.3396    2.2136083  0.015174124   0.11021263 
   21100   -954.10619    43.316707   -910.78948    1551.4474   -614.78005    2.1916852   0.10072188   0.11239491 
   21200     -951.536    43.646185   -907.88981    1563.2481   -5228.9711    2.1746379   0.16950906   0.12824463 
   21300   -951.98518    40.059217   -911.92596    1434.7759   -1316.3192    2.1850941   0.12507527   0.12520727 
   21400   -953.35457     39.05794   -914.29663    1398.9138    4657.2332    2.2048385     0.178818   0.12083239 
   21500   -948.79252    41.459735   -907.33278    1484.9373    2404.3173    2.1878565   0.21680813   0.12187589 
   21600   -946.17174    36.602654   -909.56909    1310.9743    1389.2079    2.1805812   0.22737274   0.12303043 
   21700   -952.95043    37.350086   -915.60035    1337.7446   -411.12435    2.1936591  0.032947329   0.12260714 
   21800   -952.67579    44.437229   -908.23856    1591.5804   -841.14313    2.1880857  0.034873101   0.11991074 
   21900   -950.82469    43.081827   -907.74286    1543.0348    1425.1494    2.1917182   0.19254211   0.12082138 
   22000   -950.13624    39.271599   -910.86464    1406.5663    1016.2635    2.1875907   0.20113942   0.11021579 
   22100   -955.98731     42.42071    -913.5666     1519.356   -3208.9795    2.1891583   0.15063311   0.11601089 
   22200   -947.97206    43.923219   -904.04884    1573.1704   -699.61096    2.1759553     0.190624   0.12720459 
   22300   -949.91546    43.144351    -906.7711    1545.2742     5846.313    2.1980443  0.046686413   0.12444203 
   22400   -951.28737     41.44794   -909.83943    1484.5149    2360.5807    2.1955611  0.089197987   0.12867335 
   22500   -949.68532    38.872913    -910.8124    1392.2868   -1898.3938    2.1798902   0.14087743   0.12005421 
   22600   -945.10381    43.900432   -901.20338    1572.3543   -5107.2017     2.162397  0.067554023   0.12794765 
   22700   -948.90011    41.633611    -907.2665    1491.1649    6560.9742    2.2018616   0.38724901   0.13045677 
   22800   -953.84312    43.905167   -909.93795    1572.5239    3925.3482    2.2050687  0.087298217   0.11971273 
   22900   -951.78093    43.016715   -908.76421    1540.7027    -5474.898    2.1768414   0.20631014     0.113811 
   23000   -946.92073    45.357885   -901.56285     1624.555   -7746.9909    2.1580561   0.32631877   0.12770926 
   23100   -952.71018    42.600045   -910.11013    1525.7791    2964.0569    2.1971277   0.11173256    0.1143055 
   23200   -950.66893    41.257586   -909.41134    1477.6971    4686.4704    2.1995564   0.18318736   0.12678498 
   23300   -948.32782    44.818601   -903.50922    1605.2398      205.114    2.1796906   0.14170596   0.13555494 
   23400   -949.08869    40.245465   -908.84322    1441.4466   -1087.7485    2.1804233   0.11726834   0.11910198 
   23500   -954.13657    42.997654   -911.13892      1540.02   -4372.7922    2.1861436   0.25790514   0.12349615 
   23600   -950.52258      42.7966   -907.72598     1532.819    2732.8881    2.1946816   0.15262199    0.1184629 
   23700   -950.23131    44.239363   -905.99195    1584.4935    1725.7759     2.192639   0.16206191   0.12431658 
   23800   -955.49034    40.581728   -914.90862    1453.4903    50.435543    2.1990172   0.49472983   0.10990094 
   23900   -951.21035    40.623188   -910.58717    1454.9753   -4610.5832    2.1784631   0.01617073   0.12494347 
   24000   -950.71703     43.01217   -907.70486    1540.5399    -2662.858    2.1808215   0.16343782   0.12597937 
   24100   -951.02914    38.362608   -912.66653    1374.0095    6188.5601    2.2069055   0.23279307   0.12576854 
   24200   -952.46366    38.582266    -913.8814    1381.8768    5959.4761    2.2070906   0.01487288   0.12067334 
   24300   -949.14992    41.179082   -907.97084    1474.8854   -5140.6197    2.1717744   0.36014256   0.12964794 
   24400   -947.71261    38.304847   -909.40776    1371.9407   -5223.0683    2.1669558   0.11307208   0.11510109 
   24500   -955.97819    40.892707   -915.08548    1464.6285    4585.7353    2.2098806  0.030851502  0.098636471 
   24600   -946.60337    40.005283   -906.59809    1432.8441    11638.064    2.2083004  0.081522862   0.12586731 
   24700   -950.21502    42.437196   -907.77783    1519.9465   -1843.2819    2.1813656   0.05432352     0.125875 
   24800   -954.71128     42.92555   -911.78573    1537.4375   -12765.349    2.1598783  0.033090458    0.1186343 
   24900    -952.8048    44.716079   -908.08872    1601.5678   -2207.6924     2.185463   0.11857589   0.11998815 
   25000   -948.17842    44.606068   -903.57235    1597.6276    11587.225    2.2122498  0.038756404   0.12628336 
   25100   -950.45415    40.606436   -909.84771    1454.3753    1538.3543    2.1904107   0.14320268   0.13256698 
   25200   -951.41275    40.936461   -910.47629    1466.1956   -8167.8942    2.1669502   0.16004911   0.12386793 
   25300   -944.98985    42.922695   -902.06715    1537.3353    1121.9125    2.1731453  0.092360916   0.12249866 
   25400   -950.11996    41.889407   -908.23055    1500.3267    5879.1935    2.2002251  0.058242424   0.11702041 
   25500   -950.17299    39.561706   -910.61128    1416.9568    1390.2899    2.1879497   0.15706516   0.11993611 
   25600   -949.27542    42.812698   -906.46272    1533.3956   -4183.2159     2.174149   0.10665415   0.12104496 
   25700   -948.47443    45.048077   -903.42635    1613.4587   -3226.5108    2.1727006   0.17011257   0.12504156 
   25800   -952.19231    40.183434   -912.00887    1439.2249    5384.0184    2.2048446   0.37777621    0.1108528 
   25900   -950.66658    41.827196   -908.83939    1498.0985    3812.9675    2.1937122  0.066614951   0.11837928 
   26000   -951.82519    45.139852   -906.68534    1616.7458    -4596.686    2.1717899  0.029034926   0.13373992 
   26100   -954.02269    38.571188    -915.4515    1381.4801   -2304.2135      2.18865  0.081849763   0.13484401 
   26200   -954.83079    42.864825   -911.96596    1535.2626    -1634.255    2.1906784  0.079212509   0.11341819 
   26300   -950.30021     42.96495   -907.33526    1538.8487    3846.5528    2.1972712  0.056289435   0.12389932 
   26400   -951.30578    41.067204   -910.23857    1470.8783    1090.0855    2.1908116   0.48735146   0.10932502 
   26500    -954.0929    38.282155   -915.81074     1371.128   -4319.2965    2.1848918   0.11983515    0.1077578 
   26600   -952.89366    44.455351   -908.43831    1592.2294   -5670.9729    2.1750711   0.11786438   0.12653855 
   26700   -949.76687    41.481228   -908.28564    1485.7071    7213.7297    2.2028894  0.050284668   0.11497619 
   26800   -954.23171    39.782863   -914.44885    1424.8779    6468.8606    2.2148937   0.05502136   0.11594417 
   26900   -947.90668    41.482747   -906.42393    1485.7616   -6057.7176    2.1654372   0.20484492    0.1275835 
   27000   -951.55371    43.940067   -907.61364    1573.7739   -7984.6994    2.1654332  0.048596395   0.12265176 
   27100   -950.63773    39.963015   -910.67471    1431.3303    6381.9051    2.2036167   0.11808301   0.12635072 
   27200   -950.83082    38.922845   -911.90798    1394.0752    12652.523    2.2168654   0.20816419   0.12540443 
   27300    -947.4705    44.044491   -903.42601     1577.514   -8005.5242    2.1587433   0.15228052   0.12282912 
   27400   -952.92433    43.082382   -909.84195    1543.0547   -10343.857    2.1623596  0.097001394    0.1025873 
   27500   -951.26673    41.234982   -910.03174    1476.8875    5374.5554    2.2001073  0.099003371   0.10546726 
   27600   -950.26317    47.715138   -902.54804    1708.9832    7597.3887     2.202863     0.205057   0.11232805 
   27700   -948.64665    40.904921   -907.74173    1465.0659    460.75325    2.1841114   0.46089433   0.11126374 
   27800   -952.84537     41.40822   -911.43715    1483.0923   -8824.4922    2.1705061   0.20425534   0.12224343 
   27900   -949.33202    43.449138   -905.88288    1556.1906   -445.28024    2.1814681 0.0022765465   0.11834295 
   28000   -949.47019    42.885738   -906.58445    1536.0116    4300.7092    2.1948315  0.082568413   0.12583126 
   28100   -953.87066    41.317014   -912.55365    1479.8256    3242.9515    2.2006163  0.037444069   0.11760971 
   28200   -951.30921    42.968363   -908.34085    1538.9709   -2481.3398    2.1795819  0.037513975   0.11179736 
   28300   -949.45604    43.045898   -906.41014     1541.748    -3015.758    2.1761524   0.13033446   0.12769159 
   28400   -956.22681    41.335276   -914.89153    1480.4797    1818.2757    2.2024418   0.16066058   0.10312336 
   28500   -952.37135      43.4192   -908.95215    1555.1183    266.45443    2.1915716   0.02988145   0.11990751 
   28600   -948.95402    41.588029   -907.36599    1489.5324   -72.803793    2.1807085   0.36152461   0.10596207 
   28700   -953.91007    38.820509   -915.08956    1390.4099   -1869.1197    2.1938851    0.1165586   0.10676504 
   28800   -948.25521    38.732166   -909.52305    1387.2457    1703.0475    2.1909487   0.25300754   0.11670262 
   28900   -949.63485    42.883981   -906.75087    1535.9487    4419.9282    2.1993764    0.1284402   0.13031982 
   29000   -950.51868    37.955226   -912.56345    1359.4185    963.04276    2.1970548  0.054603087   0.14665987 
   29100   -951.03968    40.684336   -910.35534    1457.1654   -5760.1623    2.1734453   0.14199934   0.11939374 
   29200   -950.76593     45.10252   -905.66341    1615.4087   -3069.3755    2.1773529   0.18691649   0.12054727 
   29300   -953.98625    44.027579   -909.95867    1576.9082    5202.5499    2.2070279  0.048991137   0.11011429 
   29400    -950.2329    38.137188   -912.09571    1365.9358    6428.1165    2.2072542   0.18867341   0.11938533 
   29500   -943.99158    40.891036   -903.10054    1464.5686   -5557.6318    2.1608526  0.074652926    0.1288953 
   29600   -951.00792     41.38783   -909.62009     1482.362    -4211.803    2.1769083   0.24244542   0.11192168 
   29700   -950.65429    40.386058   -910.26824    1446.4821    7053.5707    2.2095655  0.027053624   0.12046232 
   29800   -947.91257    44.924826   -902.98774    1609.0444    7451.2797    2.2021258   0.19080351   0.12918971 
   29900   -951.25753    43.214947   -908.04259    1547.8027   -5860.3832    2.1791185   0.15639132   0.13196043 
   30000   -951.06351    39.465448   -911.59806    1413.5092   -8528.0693     2.169295  0.082675487   0.11554344 
   30100   -949.68202    43.925046   -905.75697    1573.2358    1277.8497    2.1902494   0.11585746   0.13182711 
   30200   -951.06087    43.183853   -907.87702     1546.689    7391.1496    2.2128406   0.30472405   0.14110376 
   30300   -954.59022     41.68418   -912.90604    1492.9761    1272.3048    2.1995565   0.27176019   0.12824002 
   30400   -950.00721    41.887782   -908.11942    1500.2684   -6536.9898    2.1730077   0.10758533   0.13680051 
   30500    -950.2017    43.694682   -906.50702    1564.9851   -3271.1394    2.1805754   0.27533255   0.11171443 
   30600   -957.25466    42.664677   -914.58998     1528.094    6514.3118    2.2167921  0.054371629   0.10328757 
   30700   -948.44998    40.498644   -907.95133    1450.5146    3567.2917    2.1951967   0.16804901   0.12962144 
   30800   -948.33765    40.525295   -907.81236    1451.4691   -3018.5326    2.1797954   0.26300438   0.13387572 
   30900   -954.19801    39.783536   -914.41448     1424.902   -1955.6184    2.1911658   0.07884385   0.11457562 
   31000   -950.89637    42.475575   -908.42079    1521.3211    1541.3077    2.1931398   0.23649233   0.11461292 
   31100   -952.03632    45.152846   -906.88347    1617.2112    314.67654    2.1936895   0.12058613   0.11469924 
   31200   -954.99192     42.38875   -912.60317    1518.2113   -3331.6592    2.1910458   0.38775797    0.1264555 
   31300   -948.94056    40.650664    -908.2899    1455.9594   -467.13047    2.1840033   0.24032889    0.1305082 
   31400   -948.21878    42.913687   -905.30509    1537.0127   -89.800896    2.1841716   0.23560878   0.12145483 
   31500   -951.28845    40.313639   -910.97481    1443.8884    2202.5414    2.1969076   0.12181041     0.131225 
   31600   -952.21531    42.663603    -909.5517    1528.0555   -529.09117    2.1899705   0.07460578   0.11760774 
   31700   -948.61285    45.176227   -903.43662    1618.0486   -4733.1055    2.1710187    0.1478489   0.13025017 
   31800    -952.3748    41.166889   -911.20791    1474.4487   -979.61834    2.1901691   0.07178701   0.11284639 
   31900   -949.17597    40.038545   -909.13743    1434.0355    5934.9404    2.2046911   0.18832462   0.11978181 
   32000   -945.93641    43.215498   -902.72091    1547.8224    2480.1387    2.1868254     0.142612   0.12617378 
   32100   -952.70482    41.719944   -910.98487    1494.2571   -6162.1515    2.1765557   0.43736966   0.11502955 
   32200   -951.33577    40.935902   -910.39986    1466.1755   -8628.0887    2.1704947   0.23962818    0.1341335 
   32300   -946.10999    41.326926   -904.78306    1480.1806    8576.6363     2.199484   0.24542921   0.13200552 
   32400   -955.82437    43.657967   -912.16641      1563.67    10390.733    2.2242523   0.10865146   0.12492915 
   32500   -953.65078    41.709693   -911.94109      1493.89   -4113.6431    2.1813148   0.59626139   0.12750034 
   32600   -950.97065    43.576983   -907.39367    1560.7695    -11908.49    2.1612152   0.16787186   0.13838372 
   32700   -952.31069    42.080303   -910.23039    1507.1638    472.83836    2.1939238   0.19053089   0.12734165 
   32800   -953.01526    39.264564    -913.7507    1406.3143     12145.72    2.2238762   0.31389311   0.11139855 
   32900   -947.22254    41.025387   -906.19715    1469.3806      1276.98    2.1890621   0.29817803    0.1390675 
   33000   -951.55368    41.719313   -909.83437    1494.2345   -8941.1406    2.1700166   0.19666955   0.11814073 
   33100    -951.1632    37.691237   -913.47196    1349.9634   -724.27115    2.1905832   0.35531176   0.13443291 
   33200   -946.28905    41.641508   -904.64754    1491.4478    4637.2254    2.1935375   0.11254556   0.13954448 
   33300   -950.60466    43.046243   -907.55842    1541.7603    6145.6758    2.2016209   0.13009551   0.12176417 
   33400   -953.58458    41.625466   -911.95911    1490.8732   -1669.6516    2.1899756   0.18066614   0.11770233 
   33500   -949.12818    43.998928   -905.12925     1575.882    -4069.876    2.1727416   0.24716343   0.13688037 
   33600   -949.79981    43.781744   -906.01807    1568.1033    783.64585    2.1859676  0.047048799   0.14446017 
   33700   -951.11316    40.009826   -911.10334    1433.0069    2227.4393    2.1989521   0.17131438   0.14287621 
   33800   -949.07648    41.945993   -907.13049    1502.3534    1556.6114    2.1872484   0.27517128   0.13144369 
   33900    -950.3514    46.187736   -904.16366    1654.2772   -4975.9907     2.168386  0.073837979    0.1198239 
   34000   -951.94008    39.751932   -912.18815    1423.7701    2032.0056    2.1950331   0.27750511   0.12499495 
   34100   -947.76905    39.564299   -908.20476    1417.0497    5347.0529    2.1968057   0.17445859   0.13218739 
   34200   -947.58783    42.950349   -904.63748    1538.3257   -339.08307    2.1793898   0.28572733   0.12366572 
   34300   -952.45434    39.109931   -913.34441    1400.7759   -662.27932    2.1896205   0.49002434   0.12481913 
   34400   -950.44538    40.791732   -909.65365    1461.0119     12.73806    2.1883477    0.3161797    0.1237996 
   34500   -948.37257    42.845357   -905.52721    1534.5653     3223.556     2.187924   0.12656055   0.13354606 
   34600   -951.60423    37.856141   -913.74809    1355.8697    3853.1046     2.197276  0.071571673   0.12785597 
   34700   -953.02329    42.331349   -910.69194    1516.1554   -6124.4136    2.1771549   0.13284995   0.13049969 
   34800   -951.61317    44.847944   -906.76522    1606.2907   -4963.6965    2.1734927  0.079548063   0.13025392 
   34900    -956.7954    44.091499    -912.7039    1579.1976    7501.7094    2.2160842   0.14081969   0.10796628 
   35000   -955.52075    43.512953    -912.0078    1558.4762    10824.736    2.2219024   0.20198743   0.10715134 
   35100    -951.2336    44.394893   -906.83871    1590.0641   -9492.3355    2.1642372   0.59374491   0.12827396 
   35200   -947.98955    37.518441   -910.47111    1343.7745   -12187.421     2.153826   0.12901045   0.11577926 
   35300   -952.22988    39.799004   -912.43088     1425.456    4851.6893    2.2025107   0.10559178   0.10523221 
   35400    -950.0481      45.9079    -904.1402    1644.2545    8222.7518    2.2039199  0.030479704   0.13363095 
   35500   -951.28033    42.045285   -909.23504    1505.9096     91.49929    2.1852596   0.19744892   0.10980287 
   35600   -956.11396    43.342091   -912.77187    1552.3565   -10223.539    2.1678202   0.18006066      0.12882 
   35700   -947.08387    42.663745   -904.42012    1528.0606   -258.87779    2.1713151   0.13394519   0.13005847 
   35800   -951.52004    43.808036   -907.71201     1569.045    8584.5125    2.2073141   0.16149894   0.10362779 
   35900   -951.03004    39.519908   -911.51013    1415.4598    5374.1127    2.2005212   0.32827423     0.111363 
   36000   -948.37133    42.776011   -905.59532    1532.0816   -6306.6722    2.1641694   0.30841872   0.10843055 
   36100   -947.62644    41.113194   -906.51324    1472.5255   -5708.2326      2.16758   0.23653001   0.12409057 
   36200   -953.52899    41.678174   -911.85082    1492.7611    4507.0666    2.2057507  0.067813139   0.10845853 
   36300   -951.95966    45.624453   -906.33521    1634.1025    7788.7176    2.2064529  0.086058226   0.10020024 
   36400   -951.43612    43.831274   -907.60484    1569.8773   -4263.2184     2.176108   0.10273885   0.09732838 
   36500   -955.35658    41.197386   -914.15919     1475.541     -7615.85    2.1769517  0.053432477    0.1141008 
   36600   -949.74773    42.126831    -907.6209    1508.8303    1242.8869    2.1866281   0.81586689   0.11937756 
   36700   -951.31684    44.311252   -907.00559    1587.0684    3768.2847    2.2019439   0.11156192   0.11758616 
   36800   -953.84247    39.499177    -914.3433    1414.7173    2215.0667    2.2008141  0.068243075   0.11042573 
   36900   -948.50768    40.941499   -907.56618     1466.376   -5028.8755    2.1705591  0.090331822    0.1084529 
   37000   -946.62902    39.273817    -907.3552    1406.6457    35.949024    2.1796657   0.22309787   0.12239625 
   37100   -952.07681      38.3996   -913.67721    1375.3344     4276.833    2.2041482  0.089822362   0.11217992 
   37200   -949.59457    43.315651   -906.27892    1551.4095    2260.4423    2.1885627   0.12915904   0.10615094 
   37300   -952.73772    45.332399   -907.40532    1623.6421   -1747.6166    2.1828386  0.031471458  0.096491269 
   37400   -955.34182    42.295071   -913.04675    1514.8561   -4853.4175    2.1901159  0.097193415   0.11028173 
   37500   -949.46091    43.603862   -905.85705    1561.7322    694.90813    2.1848866   0.21494367   0.11291795 
   37600   -950.53342    43.880508   -906.65291    1571.6407    1933.7465    2.1921485   0.31075049    0.1121662 
   37700   -951.58213    39.474126     -912.108      1413.82    154.42465    2.1921925  0.006655046   0.11168922 
   37800   -950.30441    44.347417   -905.95699    1588.3636    -3026.947    2.1743768  0.072648406   0.10527929 
   37900    -948.1799    42.170785   -906.00912    1510.4046    62.955451    2.1822725   0.10743495   0.11753767 
   38000   -953.35087    41.714152   -911.63672    1494.0496    2668.9331    2.1958049    0.1419947   0.11695921 
   38100    -948.8096    42.356829   -906.45277     1517.068    933.59467    2.1846591 0.0058561255    0.1221772 
   38200   -950.62309    44.888927   -905.73416    1607.7586   -5598.1871    2.1714185  0.058550269    0.1178685 
   38300   -955.01586    41.933829   -913.08203    1501.9177    -2731.462    2.1856234   0.17159838   0.10357665 
   38400   -952.90206    45.015197   -907.88686    1612.2811    4869.5139    2.2026796  0.078378064   0.10661792 
   38500   -948.51742    41.969653   -906.54777    1503.2008    5828.7519    2.1957295   0.10365679    0.1073392 
   38600   -954.57258    39.445245   -915.12733    1412.7856   -6309.6672    2.1818253   0.14076675   0.10808027 
   38700   -951.56564    41.583063   -909.98258    1489.3545    -8981.738    2.1644293  0.055166099   0.10352991 
   38800   -951.84559    45.055625   -906.78997    1613.7291    636.57067    2.1927908   0.25693871   0.11757276 
   38900   -951.26207    37.920047   -913.34202    1358.1586    12856.712    2.2207885   0.14226349   0.11667917 
   39000   -952.14561     40.50172   -911.64389    1450.6247   -885.08385    2.1864835   0.15079515   0.11003871 
   39100   -947.82055     40.38675    -907.4338    1446.5069   -8801.2366    2.1581495  0.035203354   0.11887171 
   39200   -953.20411    42.368204   -910.83591    1517.4754   -4701.5965    2.1812049   0.14368435   0.11826332 
   39300   -954.95533    41.406132    -913.5492    1483.0175    9579.9986    2.2150467  0.075818588   0.11058432 
   39400   -949.98624    45.393891   -904.59235    1625.8446    1049.5303    2.1815912   0.25673413   0.11029671 
   39500     -951.176    42.084415   -909.09159    1507.3111   -5503.6388    2.1708292   0.24592464  0.098394956 
   39600   -952.39181    40.415206    -911.9766    1447.5261   -2710.2314     2.185702  0.094640723   0.10541058 
   39700   -946.95256    42.951268   -904.00129    1538.3587    4732.4179    2.1918077   0.22336004   0.11496948 
   39800   -946.73006    40.269948   -906.46011    1442.3235    6452.0207    2.1945169  0.047509408   0.12950423 
   39900    -949.8244    38.408017   -911.41638    1375.6359   -1954.8112    2.1840712   0.11736308   0.12878764 
   40000   -952.67956    46.283797   -906.39576    1657.7177   -4531.3274    2.1770542   0.11426415   0.11287103 
   40100    -949.8972    44.995569   -904.90163    1611.5781   -1876.1819    2.1788988   0.13590424   0.12472532 
   40200   -957.20213     45.61222   -911.58991    1633.6643   -778.44681     2.195798   0.10980324   0.10031931 
   40300   -952.98595    45.063408   -907.92254    1614.0079   -1512.1856    2.1881437   0.12495265   0.12108554 
   40400   -951.58381    47.099066   -904.48474    1686.9177    -4396.167    2.1760493   0.24334643   0.12432904 
   40500   -956.21093    42.808384   -913.40255    1533.2411       -404.1     2.197059   0.32092935   0.10606745 
   40600   -951.59394    42.441147   -909.15279     1520.088   -805.28536    2.1861785  0.092062077    0.1109402 
   40700   -947.41365    41.378576   -906.03507    1482.0305    382.02973    2.1783185  0.040208639   0.10802905 
   40800   -953.63104    38.901983   -914.72906    1393.3279    1731.1467    2.2009592  0.059100816    0.1138177 
   40900   -951.01472    41.008118    -910.0066    1468.7621   -181.73723     2.188192   0.12287824   0.11664273 
   41000    -947.5925    40.500089   -907.09241    1450.5663   -1055.5259    2.1793395   0.40050173   0.12475773 
   41100    -954.3421    41.028688   -913.31342    1469.4988    727.99866    2.1982148   0.09642516   0.12277987 
   41200   -951.54448    39.046363   -912.49812    1398.4991    2852.9956    2.1980381   0.26401092   0.11540142 
   41300   -948.37503    41.353253   -907.02178    1481.1235    422.17134    2.1827569   0.52586229    0.1309019 
   41400   -952.59436    41.504232   -911.09013    1486.5311   -4394.3698    2.1835514   0.25080334   0.10794171 
   41500   -955.09155    41.215923   -913.87563    1476.2049   -437.43973    2.1962218   0.33893057   0.11239775 
   41600   -949.99689    44.872799   -905.12409    1607.1809   -1218.0682    2.1832854   0.43768683   0.12072328 
   41700   -951.06496    42.053934   -909.01102    1506.2194    1229.2916    2.1924536   0.25978626    0.1120819 
   41800   -953.54961    41.050481   -912.49913    1470.2794   -254.44818    2.1932729   0.13233605   0.12313171 
   41900   -949.58065    45.757289   -903.82336    1638.8601   -1629.7669    2.1765102  0.058402097   0.12203974 
   42000   -950.86033    43.581531    -907.2788    1560.9324    3030.0959    2.1938939  0.089884526   0.11825132 
   42100   -953.09115    41.982052   -911.10909    1503.6449    1432.4448    2.1960087   0.27056474   0.11523018 
   42200   -947.55617    42.059402   -905.49677    1506.4153   -892.91747     2.178429    0.3404941   0.13420878 
   42300   -947.41089    41.988626   -905.42226    1503.8803   -1443.5259    2.1780382   0.16876781   0.12673352 
   42400   -952.56879    41.308339   -911.26045    1479.5149    956.75091    2.1969443   0.20691945   0.13378512 
   42500   -949.53749    42.658866   -906.87863    1527.8859    6379.1435    2.1981012   0.11308609   0.12542092 
   42600   -946.13279    41.520911   -904.61188    1487.1284   -238.86819    2.1791198   0.16236844   0.12196853 
   42700    -952.5377    39.481058   -913.05665    1414.0683   -4375.7407    2.1849445   0.20527986   0.13659645 
   42800   -952.55429    43.799319   -908.75497    1568.7328    495.64812    2.1919624  0.089860991   0.12542755 
   42900   -949.12465    44.614838   -904.50982    1597.9417    4468.6212    2.1923703    2.3799664   0.14810341 
   43000   -951.92853    42.624556   -909.30397     1526.657   -525.87374    2.1895049     4.983369   0.14949462 
   43100   -950.73828     39.55276   -911.18552    1416.6364   -5378.9799    2.1758662    5.0272798   0.14112433 
   43200   -949.20405    42.225423   -906.97863    1512.3615    -2259.849    2.1816511    5.1030579   0.15183035 
   43300    -948.6204    41.582843   -907.03756    1489.3466    6707.7288    2.2016964    6.4473593   0.15247134 
   43400   -951.82972    37.805468   -914.02426    1354.0547    5249.5878     2.206222    5.8356299   0.13186502 
   43500   -948.22636    40.832955    -907.3934    1462.4884   -7689.2107    2.1647425    6.5059303   0.15510663 
   43600   -951.35866    43.867988   -907.49067    1571.1922   -10774.028    2.1631881    5.8833402   0.14780089 
   43700   -953.86227    40.130226   -913.73205    1437.3192    7034.2436    2.2119202    5.2523039   0.14530149 
   43800   -950.79992    41.769653   -909.03027    1496.0375    11344.841    2.2156958    5.0607914   0.14125204 
   43900   -948.19009    41.752534   -906.43755    1495.4244   -911.64418    2.1765353    5.9060999   0.15569345 
   44000    -951.5563    40.855782   -910.70052    1463.3059    -13149.14    2.1575859    4.4561216   0.14635428 
   44100   -950.72262    40.680356   -910.04226    1457.0228    391.30655    2.1881844    5.7583806   0.12820152 
   44200    -949.1059    45.852793    -903.2531    1642.2808    4209.9182     2.192728    6.1203104     0.144761 
   44300   -952.07107    43.503004   -908.56807    1558.1198   -1869.8437    2.1866146    4.5002093   0.14274477 
   44400   -951.00576    40.215989   -910.78977    1440.3909   -3334.1304    2.1768007    6.6750884   0.13608455 
   44500   -948.52054    46.106479   -902.41406    1651.3669   -1329.2841    2.1761102    1.5941584   0.14488734 
   44600   -947.95759    42.598622   -905.35897    1525.7282    7461.4846    2.1950417    0.5582984   0.13628672 
   44700   -952.13427    42.596187   -909.53808    1525.6409    1557.3382    2.1942659   0.43224769   0.13348853 
   44800   -949.33594    44.887836    -904.4481    1607.7195   -5981.3519    2.1703967   0.84342606   0.12286174 
   44900   -947.88644    44.220389   -903.66605     1583.814   -5544.1422    2.1664528   0.96531384   0.12884052 
   45000   -950.80043    40.686003   -910.11443    1457.2251    1696.3809     2.192435     1.505565   0.13631524 
   45100   -950.88412    44.852965   -906.03115    1606.4706    1923.4326    2.1906649   0.51635936     0.121984 
   45200   -951.18601     44.63637   -906.54964    1598.7129   -4747.9905    2.1756908   0.37258572   0.11769673 
   45300   -951.93835    39.042835   -912.89552    1398.3728   -1595.3937    2.1855726   0.11786148   0.12276927 
   45400   -945.03526    37.264918   -907.77034    1334.6942    5396.5366    2.1956515  0.026623358   0.14031282 
   45500   -950.48866    43.531076   -906.95759    1559.1253    3176.0115     2.194734  0.091860819    0.1414642 
   45600   -954.10871    39.201828   -914.90688    1404.0673   -1662.4903    2.1913191   0.18704888   0.11697826 
   45700   -949.74331    40.905802   -908.83751    1465.0975   -8482.2224    2.1610153   0.14226649   0.11896944 
   45800   -950.00643    42.837381   -907.16905    1534.2796     1542.044    2.1896179   0.27040441   0.11891673 
   45900   -953.72663     40.66641   -913.06022    1456.5233    15791.418    2.2337721   0.20100471   0.11712492 
   46000    -950.5557    41.245292    -909.3104    1477.2568    2869.2114    2.1929698   0.25076355   0.12127175 
   46100     -948.467    41.549912   -906.91709    1488.1672    -12430.12    2.1485927  0.075491443   0.11647251 
   46200   -951.76801    40.709397   -911.05861     1458.063   -3805.7511    2.1796929   0.24150524   0.11909201 
   46300   -953.31913    42.398986   -910.92015    1518.5779     11386.03    2.2196333  0.080980629   0.12547532 
   46400   -947.23242    44.030848   -903.20158    1577.0253    3651.6649    2.1844466   0.04013918   0.14191428 
   46500   -949.55949    39.410451   -910.14904    1411.5394   -5269.6394    2.1726129  0.010361166   0.13544283 
   46600    -950.8911      40.3805    -910.5106    1446.2831   -2177.4352    2.1798794   0.12067569   0.12583248 
   46700   -948.43661    45.931325   -902.50529    1645.0935    2505.3873    2.1861743   0.17914823   0.12127381 
   46800   -949.75108    40.271198   -909.47988    1442.3683    7837.1326    2.2053671  0.048126995   0.11403987 
   46900   -951.43006    40.368619   -911.06144    1445.8575    -3519.331    2.1824669    0.1233999   0.11038453 
   47000   -949.03709    43.433769   -905.60332    1555.6401   -6589.2448     2.166674   0.23198663   0.11844604 
   47100    -950.0647    40.141594   -909.92311    1437.7263    2904.8321    2.1925828  0.088536942   0.12545612 
   47200   -949.61146    37.413134   -912.19833    1340.0028    8479.8223    2.2092155  0.033528473   0.12011246 
   47300   -947.98136    40.726553   -907.25481    1458.6774    3873.6826    2.1896424  0.048809564   0.12420582 
   47400   -950.60949    41.785319   -908.82417    1496.5986   -7239.9714     2.168129  0.043239102   0.12259885 
   47500   -954.17069    39.227659   -914.94304    1404.9925   -2666.9226    2.1881807  0.096123204    0.1239021 
   47600   -947.71736    40.355173   -907.36219    1445.3759    7596.4537    2.2000465   0.36210524   0.13072513 
   47700   -951.11988    43.240945   -907.87893    1548.7338     7844.143    2.2074251    0.1910985   0.11268887 
   47800   -951.16936    36.440303   -914.72905    1305.1595   -6248.1089    2.1724588  0.087221864   0.10884874 
   47900   -949.39534    42.082544    -907.3128    1507.2441   -19939.975    2.1347595   0.16788314   0.11732024 
   48000     -949.781    43.251597   -906.52941    1549.1154    6276.6937    2.2005838   0.20177388   0.11979162 
   48100   -951.08909    40.988214   -910.10088    1468.0492    18291.092    2.2326803   0.22421856   0.12926996 
   48200    -952.6173    43.775801    -908.8415    1567.8904   -2416.5674     2.185023  0.066453312   0.11884116 
   48300   -946.40875    42.615642   -903.79311    1526.3377   -11674.234    2.1467183  0.059905989   0.11817331 
   48400   -951.97573    40.402385   -911.57335    1447.0669   -318.00575    2.1871298  0.069172639   0.11341483 
   48500   -949.99587    40.881545   -909.11432    1464.2287    9568.8344    2.2118149   0.12758626   0.12025139 
   48600   -948.44917    44.991815   -903.45736    1611.4436    2628.8309    2.1866729   0.24693353   0.12100669 
   48700   -952.80925    41.100706   -911.70854    1472.0782    -6073.023    2.1760167   0.16093031   0.10677559 
   48800   -949.59718    38.854999   -910.74218    1391.6451   -5974.3658     2.173934  0.011683263    0.1162227 
   48900   -948.21398    43.221338   -904.99264    1548.0316    5844.9265    2.1918506   0.34797519   0.13596693 
   49000   -955.33453    43.209195   -912.12534    1547.5967    5718.1974    2.2124633   0.11029423   0.11352471 
   49100   -951.69036    39.805057   -911.88531    1425.6728   -2388.6627    2.1838217  0.060641704   0.11326782 
   49200   -949.20835    42.309373   -906.89897    1515.3683   -7983.4144    2.1644196   0.20145155   0.12105217 
   49300   -951.24179    39.696353   -911.54544    1421.7794    1236.4629    2.1913256  0.066021164   0.10293583 
   49400   -952.23676    39.402449   -912.83431    1411.2528    9143.9289    2.2150906  0.024591256    0.1292241 
   49500   -945.76391     40.00442   -905.75949    1432.8132    4588.9976    2.1870598   0.54101971   0.11643626 
   49600   -951.89606    41.499287   -910.39677     1486.354   -8590.0105    2.1667625  0.064031834    0.1001771 
   49700   -953.88978     40.37941   -913.51037     1446.244   -4235.5725    2.1820195   0.17794662  0.095189935 
   49800   -949.52606    44.504541   -905.02152    1593.9912    5881.1871      2.19802    0.2551829   0.10936583 
   49900   -949.87154    41.438863   -908.43268    1484.1898    6950.6906    2.2043042   0.44274639   0.12056443 
   50000   -952.21221      39.1704   -913.04181    1402.9417   -3782.7485    2.1791786   0.18331173   0.11117983 
   50100   -946.64279    41.986375   -904.65642    1503.7997   -7032.4861    2.1579323  0.053837587   0.12589334 
   50200   -948.75742    41.235416   -907.52201     1476.903    4099.7107    2.1953266   0.10564369   0.11858105 
   50300   -955.19976     44.08689   -911.11287    1579.0325    3370.7489    2.2030103   0.15520702   0.11446685 
   50400   -948.83074    43.075274   -905.75547    1542.8001    577.87106    2.1809953   0.11389185   0.10875332 
   50500   -950.17609    44.726936   -905.44916    1601.9566   -4552.9588    2.1743889   0.25829198   0.10983659 
   50600    -952.7219    40.878848   -911.84305    1464.1321    123.88329    2.1936245   0.15621897   0.10880738 
   50700   -949.11465    41.628414   -907.48624    1490.9788    4797.2122    2.1937787   0.11288179   0.10159121 
   50800   -952.12255    46.807954    -905.3146    1676.4912   -3292.1645    2.1794026  0.048785961   0.10486828 
   50900   -954.55444    40.558738    -913.9957    1452.6669   -1896.1184    2.1896749  0.086005903   0.10260553 
   51000   -953.59656    44.130749   -909.46581    1580.6034   -2907.6215    2.1837864  0.011574013   0.11289795 
   51100    -948.0051    41.529586   -906.47551    1487.4392    4593.8241    2.1879289  0.060001084   0.12652424 
   51200   -955.05183    40.357823   -914.69401    1445.4709    754.65034    2.1984471   0.14305936    0.1182424 
   51300     -948.632    38.120533   -910.51147    1365.3392   -2749.5059    2.1782089    0.1802197   0.11181764 
   51400   -950.69886    43.575043   -907.12382       1560.7   -2282.3975    2.1799141   0.10418487   0.10948877 
   51500   -953.19004    40.711155   -912.47888    1458.1259    5409.6651    2.2040286   0.19629305   0.10173874 
   51600   -950.56097    37.588778   -912.97219    1346.2937    4582.0302    2.2007851   0.04845651   0.11383858 
   51700   -948.45951    41.794633   -906.66488    1496.9322   -4167.1597    2.1673199  0.070294639   0.10852403 
   51800   -950.59242    39.377988   -911.21443    1410.3767   -5856.5392    2.1726254   0.23203744   0.11126302 
   51900   -951.30685    39.773649    -911.5332    1424.5479    6611.2237    2.2034715   0.46457733   0.10598767 
   52000   -948.03058    44.488914   -903.54167    1593.4315    8720.8691    2.1985242   0.10895934   0.11574078 
   52100   -950.15224    40.631953   -909.52029    1455.2892   -4453.6603    2.1765826   0.18786056   0.11743417 
   52200   -951.69279    39.661836   -912.03095    1420.5431    -11553.12    2.1638396   0.14847148   0.12467854 
   52300   -951.54489    47.661854   -903.88303    1707.0748   -1059.8367    2.1815599   0.13205041   0.12046667 
   52400   -953.59908    46.034251   -907.56483    1648.7799    13145.487    2.2197717   0.40222551   0.10959436 
   52500   -952.70658    41.413892   -911.29269    1483.2954   -581.52754    2.1937921   0.21381218   0.11101945 
   52600   -947.46577    40.731566    -906.7342     1458.857   -9793.9218    2.1571443    0.1268922   0.11556492 
   52700   -947.84379    43.300275   -904.54352    1550.8588   -4204.0594    2.1709735   0.20014348   0.11276998 
   52800   -953.57549    41.385932   -912.18956     1482.294    6456.5443    2.2100336   0.20460327   0.11991923 
   52900   -950.33902    42.419742   -907.91927    1519.3213    1836.2898    2.1933227   0.21818749   0.12591624 
   53000   -947.79686     41.48455   -906.31231    1485.8261   -2957.3937    2.1722498   0.13414067    0.1128779 
   53100    -953.5009    38.764634   -914.73627    1388.4086   -696.53872     2.193163  0.051270139   0.10913487 
   53200   -948.60072    39.998423    -908.6023    1432.5985    4981.4382    2.1919236  0.086287049   0.11578073 
   53300   -951.96085     44.88405    -907.0768    1607.5839    573.44504    2.1893131   0.26595076   0.12236019 
   53400   -950.65623    35.847613   -914.80861    1283.9315    2098.2044    2.1937433   0.29976607   0.12592933 
   53500   -951.24962    42.273566   -908.97605    1514.0858   -4235.3454    2.1768314   0.31492771   0.11375434 
   53600   -945.18669    38.206042   -906.98065    1368.4019    5047.0804    2.1880989   0.44771435    0.1045208 
   53700   -950.74983    38.066586   -912.68325    1363.4071    8484.1669    2.2087574   0.22645283   0.10755667 
   53800   -954.05731    43.956411    -910.1009    1574.3592   -1727.0863    2.1876602   0.25148719   0.11212377 
   53900   -949.36557    43.183286   -906.18229    1546.6687   -8479.0229    2.1616593   0.16060558   0.13797201 
   54000     -950.084    38.704632   -911.37937    1386.2596   -1417.8471    2.1862361   0.15059878   0.12079071 
   54100   -950.23971    40.270234   -909.96948    1442.3338    13712.112    2.2217019   0.23167981   0.11643019 
   54200    -949.5724    46.599007    -902.9734    1669.0074    2016.2313    2.1890247   0.18083064   0.12283061 
   54300   -949.53526    39.081288   -910.45398      1399.75   -10240.445    2.1606183   0.36198814   0.12547241 
   54400   -949.22486     39.04856    -910.1763    1398.5778   -4349.6316    2.1724996   0.27674034   0.11344193 
   54500    -947.8117    44.913434   -902.89827    1608.6363     9755.603    2.2026456   0.17343096   0.12372908 
   54600   -953.30475     43.21704   -910.08771    1547.8776    7422.3102    2.2101673  0.060610833   0.12068713 
   54700   -953.59443    41.961407   -911.63302    1502.9054    -6319.417    2.1749688  0.040600167     0.118866 
   54800    -947.4216    41.563578   -905.85803    1488.6566   -5658.4538    2.1642231   0.12234391   0.12639034 
   54900   -952.50364    41.130019   -911.37362    1473.1281    2543.8823    2.1962437   0.23663056   0.12350204 
   55000   -950.20352    38.005744   -912.19778    1361.2279    6745.5842    2.2042031   0.47856981   0.13033418 
   55100   -952.60732    46.203749   -906.40357    1654.8507   -2291.5668    2.1836325   0.15562287   0.12217298 
   55200   -953.82085    43.265596   -910.55525    1549.6168   -5590.1278    2.1802333   0.13599906   0.12563845 
   55300   -951.81152    38.188003   -913.62352    1367.7558   -476.34342    2.1907894    0.2067692   0.11704078 
   55400   -949.93339    43.836177   -906.09722    1570.0529    1834.3164    2.1873645   0.28432696   0.10932725 
   55500   -951.56753    41.651941   -909.91559    1491.8215    2063.7727    2.1946394   0.18420598   0.11794289 
   55600   -954.85963    40.666355   -914.19327    1456.5213   -1801.4873    2.1923584  0.063795348   0.12197915 
   55700   -948.36998    42.828492   -905.54149    1533.9613   -3127.9154    2.1703567   0.16099444   0.13074426 
   55800    -950.5434    41.238014   -909.30539    1476.9961    1197.0166    2.1932295   0.44215004   0.13529662 
   55900   -950.40808    38.004016   -912.40407     1361.166    9583.0179    2.2110734   0.17755948   0.13195126 
   56000   -946.79268    43.251181    -903.5415    1549.1004   -577.17639    2.1746509   0.18457302   0.13602713 
   56100   -945.54624    37.062137    -908.4841    1327.4313   -7153.7976    2.1618628   0.16027585   0.13288646 
   56200   -952.83479    41.461037   -911.37376     1484.984   -790.59287    2.1904226   0.46613052   0.11112509 
   56300   -949.73339    45.443367   -904.29002    1627.6166    12307.102    2.2156837   0.60040786   0.12311697 
   56400   -948.19796    41.520626   -906.67733    1487.1183    5011.8421    2.1938768   0.17714222   0.12387992 
   56500   -951.51804    39.193008   -912.32503    1403.7514    -10029.26    2.1647956   0.10600867   0.12102565 
   56600   -949.82421    42.797176   -907.02704    1532.8396   -6619.5843    2.1673686   0.82553101   0.14034423 
   56700   -949.49588    47.025193   -902.47068    1684.2719    5777.6827    2.1974641  0.075746869   0.12371163 
   56800   -953.01129    42.480826   -910.53046    1521.5091    4427.2946    2.2030427    3.0398715   0.15219454 
   56900   -950.61407    42.336096   -908.27797    1516.3254   -3843.2346    2.1716576    6.1383745   0.15304983 
   57000   -947.23187    44.260178    -902.9717    1585.2391   -7789.0896    2.1573421    5.9774595   0.15440929 
   57100   -953.70235    41.765977   -911.93637    1495.9058    4335.9218     2.204005    6.0728672      0.14084 
   57200   -950.02915    41.485663   -908.54349     1485.866    6313.9204    2.2039244    2.9228541   0.13570252 
   57300    -946.1315    41.588792   -904.54271    1489.5597   -2757.7915    2.1724332    3.1502637   0.15429531 
   57400   -949.99608    37.730112   -912.26597    1351.3558   -5024.3228    2.1776835    4.0696413   0.13422268 
   57500   -950.78022    41.176419    -909.6038      1474.79   -1875.1747    2.1853768    5.4781818   0.15067878 
   57600   -950.30721    45.548984   -904.75822    1631.3994    743.24663    2.1870707     3.329639   0.15616971 
   57700   -951.95501    39.968966   -911.98604    1431.5434     845.5745    2.1921978      5.88675   0.15681622 
   57800    -952.5572    42.620167   -909.93703    1526.4998   -1461.1942    2.1808102    6.2849838   0.16121432 
   57900   -950.03818    44.704975    -905.3332    1601.1701   -1089.1799    2.1782767    5.2048112   0.14833355 
   58000   -950.58985    38.212299   -912.37755     1368.626    3421.8458    2.1975154    4.6847707   0.13889259 
   58100   -950.72826      40.2254   -910.50286    1440.7279     196.6783    2.1850499    3.8519225   0.13461317 
   58200   -947.32224    41.768044    -905.5542    1495.9799   -2405.5989    2.1714689    4.0191245   0.13633062 
   58300   -949.18738    37.258698   -911.92868    1334.4715     2560.955    2.1868192    4.6726567   0.14211866 
   58400   -953.53392    43.173309   -910.36061    1546.3114    2563.5337    2.1970275     3.653539   0.14416231 
   58500   -948.70358    44.079099   -904.62448    1578.7535    2052.2526    2.1865846    5.0590204   0.16355393 
   58600   -951.44432    40.991075   -910.45324    1468.1516    -2406.012    2.1847294    11.645173   0.15825931 
   58700   -950.53178    41.270397   -909.26138     1478.156   -1307.6291    2.1860008    8.8350221    0.1676815 
   58800   -946.39686     43.68641   -902.71045    1564.6888    4870.5749    2.1874335    11.393832    0.1679941 
   58900   -950.28537     40.87222   -909.41315    1463.8947     3087.252    2.1947592    13.853733   0.18640894 
   59000   -949.08975    38.982622   -910.10712    1396.2161   -1403.7721    2.1857603     14.69016   0.15524309 
   59100   -950.31149    48.457367   -901.85413    1735.5671   -6884.4836    2.1672401    12.392604   0.16351149 
   59200   -950.66782    41.635892   -909.03193    1491.2467    3340.1566    2.1988202    13.434775   0.14860877 
   59300   -950.97396    41.654421   -909.31954    1491.9103    3197.5836     2.197157    13.154225   0.14939288 
   59400   -945.99923    43.104077   -902.89515    1543.8317   -1099.0408    2.1750307    18.414014   0.16765072 
   59500   -947.64826    41.631424   -906.01684    1491.0866   -4984.2588    2.1768917    6.3390236   0.17096283 
   59600    -948.9333    39.212582   -909.72072    1404.4525   -1850.5991    2.1798572     8.555264   0.16737938 
   59700   -948.53992    42.800571   -905.73935    1532.9612    3872.2781    2.1968148    7.1225685   0.16675593 
   59800   -946.02676    43.797362    -902.2294    1568.6627     9832.208    2.2024938    6.4698382   0.16481758 
   59900   -952.75614    41.231187   -911.52495    1476.7516   -2766.2325    2.1878616    6.3849209   0.14684199 
   60000   -948.40632     39.16548   -909.24084    1402.7655   -13479.753    2.1487384    5.8637194   0.15466209 
   60100   -950.40018    42.847672   -907.55251    1534.6482   -2084.0775      2.18093    9.0076541   0.13884485 
   60200   -955.61741    42.980034   -912.63738    1539.3889    15931.677    2.2361941    5.5165947   0.12521077 
   60300   -955.62341    41.632287   -913.99113    1491.1175    4542.3199    2.2087141     6.283524   0.10938828 
   60400   -950.97697    43.192097   -907.78488    1546.9843   -9310.3045    2.1615452    6.4179383   0.12861322 
   60500   -950.41151    40.619416    -909.7921    1454.8402   -5286.7983    2.1746815    7.3301148   0.13929095 
   60600   -956.88208    42.316587    -914.5655    1515.6267    2243.2776    2.2095255     7.412796   0.13137777 
   60700   -950.19794    44.257282   -905.94066    1585.1354     3672.788    2.1960301    6.6075436   0.14749013 
   60800   -950.48665    43.159728   -907.32692    1545.8249    454.96865    2.1872322    7.8436369   0.13742102 
   60900   -956.05742    45.050703   -911.00672    1613.5528   -6567.9817    2.1782537    7.3303592   0.11740151 
   61000   -951.15679    41.241148   -909.91564    1477.1084    313.12387    2.1860689    6.5978851   0.12908245 
   61100   -950.18155    47.158509   -903.02304    1689.0468    770.81917    2.1844369     6.216692   0.12959298 
   61200   -954.05888    44.929853   -909.12903    1609.2244     191.4642    2.1901776    6.7125515   0.11564039 
   61300   -950.29172    39.562903   -910.72882    1416.9997   -395.75031    2.1841066     6.202322   0.11752272 
   61400   -948.42036    45.913232   -902.50713    1644.4455    -2771.032    2.1724053    7.9976497   0.12424962 
   61500   -951.38878    43.660308   -907.72847    1563.7539    4691.3169    2.2002621    7.0679741   0.11950465 
   61600   -950.66746    40.280413   -910.38705    1442.6983     4004.722    2.1983991    7.2904172   0.12570287 
   61700   -949.61224    41.911422   -907.70082    1501.1151   -6783.0645    2.1696881    7.0470297   0.12805905 
   61800   -947.44617    45.107523   -902.33865    1615.5879   -7038.6926    2.1586855    5.5049742   0.12962398 
   61900   -956.00897     44.42573   -911.58324    1591.1685    7721.6061    2.2161566    6.4435983   0.12101235 
   62000   -952.41037     43.56489   -908.84548    1560.3364    9473.8629    2.2124867     7.359381   0.12565484 
   62100   -950.16371    43.580929   -906.58278    1560.9108   -8211.7368    2.1646925    6.5992897   0.13160358 
   62200   -953.51322    39.389146   -914.12407    1410.7764   -11972.023    2.1657443    7.0367299   0.12576956 
   62300   -952.31209     40.02636   -912.28573    1433.5991    2477.8087     2.198623    7.1547713   0.12243813 
   62400   -949.14161    42.323177   -906.81843    1515.8627     9448.868    2.2114317    5.8181187   0.11930572 
   62500   -953.90802    43.298426    -910.6096    1550.7926   -1969.7927     2.191399    7.2508816    0.1186653 
   62600   -955.83913     39.76776   -916.07137    1424.3369   -6613.0937    2.1838992    7.8604311   0.10393545 
   62700   -952.33594     44.33956   -907.99638    1588.0822    -4105.482    2.1798362    6.3298765   0.11602758 
   62800    -950.6517    42.473261   -908.17844    1521.2382    4747.3334    2.1999902    5.6530802   0.12055445 
   62900   -955.30299    40.603793    -914.6992    1454.2806    2194.7046    2.2042463    6.6953906   0.11255217 
   63000   -952.00102    43.144213   -908.85681    1545.2692   -1971.8226    2.1842996    7.0667933   0.12105872 
   63100   -949.57587    42.251434   -907.32444    1513.2931   -859.29394     2.182075    6.2676315      0.12277 
   63200   -953.20806    42.367654    -910.8404    1517.4557   -654.34935     2.190937    7.3700706   0.12162443 
   63300   -953.30733     39.99694   -913.31039    1432.5453    3274.0635    2.2016224    6.5081965   0.12672662 
   63400   -944.55852    40.729045   -903.82947    1458.7667    -472.0112    2.1735288    7.0880023    0.1354117 
   63500   -950.96371    42.676394   -908.28731    1528.5137    -210.5461    2.1858895    7.1744857   0.11603249 
   63600   -951.82052    40.821308   -910.99921    1462.0712    2988.3814    2.1983214    6.4198253   0.10761716 
   63700   -949.00963    43.335905   -905.67372     1552.135    1464.8605    2.1873197    5.8614883   0.11170047 
   63800   -953.13714    48.271849   -904.86529    1728.9226   -8876.0254    2.1680317    6.2887184   0.11962669 
   63900   -950.58221    39.524329   -911.05788    1415.6181   -6094.1418    2.1748786    7.0527782    0.1235939 
   64000   -948.78442    40.494762   -908.28966    1450.3755    7886.3602    2.2075289    7.6014948   0.13295516 
   64100   -946.29135    45.475779   -900.81557    1628.7775    10744.357    2.2046696     5.910155   0.12373361 
   64200   -949.44054    40.037308   -909.40323    1433.9912   -2453.1307    2.1833208    7.0970617   0.13249093 
   64300    -949.4295    39.104526   -910.32497    1400.5823   -13397.921    2.1563426    5.9821292   0.13488811 
   64400   -949.02639    43.461646   -905.56474    1556.6385   -916.67448    2.1818582    6.4905132   0.12574685 
   64500   -953.76778    43.834478    -909.9333     1569.992    8922.4742    2.2161186    7.2478868   0.11268049 
   64600   -954.19127    41.537011   -912.65426    1487.7051    877.77515    2.1994456    7.8648629   0.11351179 
   64700   -950.66038    41.930245   -908.73013    1501.7893   -8339.4289    2.1707679    6.1644528    0.1263502 
   64800    -951.1308    44.332911   -906.79789    1587.8441   -5436.7854    2.1762811    6.2767575   0.11188168 
   64900    -953.9754    38.554617   -915.42078    1380.8866    7383.5923     2.218715    6.0170586   0.11366723 
   65000    -949.9273    40.860356   -909.06694    1463.4698    3383.1254    2.1960991    7.6086558   0.11793492 
   65100   -950.74069    42.865041   -907.87565    1535.2703    -5976.005    2.1711453    5.6866574   0.12415878 
   65200   -951.36389    37.781879   -913.58202    1353.2099   -3988.4537    2.1815126    7.2429734   0.13879259 
   65300   -952.98654    40.789637    -912.1969    1460.9369    4205.5821    2.2057381    7.3816549   0.11628844 
   65400   -949.87022      43.5028   -906.36742    1558.1125    5518.9501    2.2013285    6.8510562   0.12239407 
   65500   -950.44735    39.500439   -910.94691    1414.7625   -4332.6057    2.1773722    6.6167278   0.12028299 
   65600    -952.8393    39.642416   -913.19688    1419.8476   -9409.0932    2.1663777    6.8590796   0.11240355 
   65700   -945.90606    41.256659    -904.6494    1477.6639    2836.0075    2.1825928     7.400901   0.12708004 
   65800   -951.21794    43.775406   -907.44253    1567.8763    17331.699    2.2325953    6.9802572   0.11927165 
   65900   -950.70069    39.653646   -911.04705    1420.2498    2936.2103    2.1957056    6.1179742  0.095823742 
   66000   -948.08017    43.815168   -904.26501    1569.3004   -18241.931    2.1328569    6.4873664   0.12885841 
   66100   -946.78115    41.453133   -905.32801    1484.7009   -4758.9058     2.167518    6.7182922   0.11995665 
   66200   -950.66852    41.134097   -909.53442    1473.2742    10536.081    2.2120976    6.8565272   0.11730796 
   66300   -954.74375    45.931435   -908.81232    1645.0974    1713.2793    2.1964995    7.1987726   0.11593731 
   66400   -948.04675    46.331498   -901.71525    1659.4263   -6980.2871    2.1616417     8.943748   0.12237233 
   66500   -950.57869    39.817498   -910.76119    1426.1184   -1410.4464    2.1861598    6.7522643   0.11646289 
   66600   -952.37767    42.249168    -910.1285     1513.212    311.63124    2.1917452    6.1634589   0.10922174 
   66700   -949.54585    42.399366   -907.14648    1518.5915    1255.3964     2.187175    6.0413032   0.12145094 
   66800   -946.78353    42.576175   -904.20736    1524.9242   -1233.4042    2.1775127    6.9224847   0.11583961 
   66900   -954.79945    41.097302   -913.70215    1471.9563    2216.8951    2.2008642    6.6296275   0.11603634 
   67000   -951.85678    41.021078    -910.8357    1469.2263   -322.87408    2.1885821    6.2386562   0.10613635 
   67100   -951.54552    43.420928   -908.12459    1555.1802   -5107.8628    2.1778332    6.2200141   0.11580121 
   67200   -950.80209    43.391386   -907.41071    1554.1221   -42.652947    2.1837899    9.2895433   0.11874852 
   67300   -955.83713    40.394016   -915.44311    1446.7672    8506.2717    2.2200896    7.7347893    0.1140059 
   67400   -951.77089    42.563709   -909.20718    1524.4777    10.199236    2.1913318    7.0973258   0.11804116 
   67500   -950.80972    42.488034   -908.32168    1521.7673   -11182.022    2.1584756    6.5738497   0.11994499 
   67600   -951.96654    39.373125   -912.59341    1410.2026    -5551.448    2.1815057    6.7239454   0.12749359 
   67700   -952.24773    38.586755   -913.66097    1382.0376    14803.247    2.2291099     7.070834    0.1202606 
   67800   -950.57788    43.643811   -906.93407     1563.163    5592.3791    2.2013266    7.2817633   0.12912632 
   67900    -950.3005      40.5347    -909.7658    1451.8059   -8521.8936    2.1646043    6.1872847   0.12160843 
   68000   -954.32415     39.61668   -914.70747    1418.9258   -7288.0284    2.1773374    6.5840735   0.11349968 
   68100   -956.32395    44.159758   -912.16419    1581.6424      5407.09    2.2105215    7.2901923   0.11772903 
   68200   -950.42125    43.040271   -907.38098    1541.5464    6303.6875    2.1998768    8.0790961   0.11943319 
   68300   -950.02205    40.180899   -909.84115    1439.1341   -3303.9499    2.1784867    6.8573639   0.11287708 
   68400   -953.24593    41.053302   -912.19263    1470.3804   -5666.2697    2.1766688     7.219572   0.10226735 
   68500   -959.08374    38.630049   -920.45369    1383.5883    1112.6419    2.2112121    8.4663673   0.10360599 
   68600   -950.63998     38.60603   -912.03395     1382.728    3319.1873    2.1967929    7.7547944    0.1069466 
   68700   -952.28627    42.543925   -909.74234    1523.7691   -1104.0966    2.1847079    6.2713147   0.11520202 
   68800   -949.58322    41.320294   -908.26292    1479.9431   -1840.7031    2.1807116    6.7872327   0.11746044 
   68900   -950.43794    41.554115   -908.88383    1488.3177   -1315.5849    2.1842023    6.6631882   0.13515697 
   69000   -956.87888    40.698307   -916.18057    1457.6658    5645.8209    2.2125854    6.3536698   0.11340142 
   69100   -952.80366    42.645128   -910.15853    1527.3938    1325.4093    2.1920711    6.3302368    0.1226312 
   69200   -951.11451    42.865085   -908.24942    1535.2719   -8893.3477    2.1653372    7.0038252   0.12094946 
   69300   -950.86923    41.825394   -909.04384    1498.0339     -4483.65    2.1717465    6.7217091   0.10348697 
   69400   -956.03131    40.638988   -915.39232    1455.5412    11003.424    2.2249318    6.2690705    0.1138668 
   69500   -949.02536    41.310375   -907.71499    1479.5878    10374.166    2.2074555    7.7297602   0.11386742 
   69600   -950.62801    41.931608    -908.6964    1501.8381   -9529.9551    2.1589191    7.6061277   0.11039892 
   69700   -952.44772    40.488217    -911.9595    1450.1411   -11493.623    2.1611806    7.0852699   0.10410175 
   69800   -958.73215    43.316627   -915.41553    1551.4445    5175.3397    2.2149659    5.9801742   0.10557106 
   69900   -946.95991    40.079332   -906.88058    1435.4963    9175.8067    2.2017603    7.1220823    0.1377141 
   70000   -951.16095    42.028473   -909.13248    1505.3075   -4076.3712    2.1755929    6.5704303   0.12600709 
   70100    -950.2724    37.741746   -912.53065    1351.7725   -3903.7265    2.1747328    6.7319651   0.12715391 
   70200   -955.96201    38.404304    -917.5577    1375.5029    2327.2419    2.2053198     7.293587   0.11791719 
   70300   -952.89448    44.723799   -908.17069    1601.8443    1050.8717    2.1916574     7.510257   0.12054355 
[...]
  186800   -947.98005    38.318178   -909.66187    1372.4182   -3176.9248    2.1744064    14.556094   0.12427263 
  186900    -948.6194    44.605154   -904.01425    1597.5948    11447.301    2.2089351    14.366501   0.11081213 
  187000    -953.5795    44.057117   -909.52238    1577.9662    3503.0995    2.2038298    12.777408   0.10872768 
  187100   -952.14877    40.054632   -912.09414    1434.6117   -10900.187    2.1630184    13.732744   0.11585881 
  187200   -948.87908    40.201115   -908.67797    1439.8581   -3695.5181    2.1700017    13.522295   0.11793477 
  187300    -947.8635    42.252389   -905.61111    1513.3274    7650.0814    2.2007165    11.431546   0.11336093 
  187400   -953.86416    39.393866    -914.4703    1410.9454    4426.5746    2.2061044     14.80118   0.10278778 
  187500   -952.01647    40.371105   -911.64537    1445.9466   -5844.5869    2.1757223     15.12099   0.11193587 
  187600   -949.67469    41.863601   -907.81109    1499.4024   -5105.0707    2.1767106     16.29354   0.14495022 
  187700   -951.50086    40.769866   -910.73099    1460.2288    2295.3499    2.1985067    14.029783   0.12827006 
  187800   -954.76712    39.763234   -915.00389    1424.1748    4469.6637    2.2072712    13.029241   0.11756268 
  187900   -950.33212     42.73293   -907.59919    1530.5386   -2558.9904    2.1801337    12.750441   0.12214783 
  188000   -950.49714    41.473586   -909.02356    1485.4334   -2839.8172    2.1774748    15.836642   0.11892785 
  188100   -954.37201    38.886169   -915.48584    1392.7616    1216.4533    2.2019246    14.867864   0.12587506 
  188200   -953.76876    45.611994   -908.15677    1633.6562    1756.3224    2.1996843    13.081806   0.12055924 
  188300   -948.02504    40.354573   -907.67046    1445.3545    2542.5906    2.1937366    14.661702   0.10688775 
  188400   -950.53772    38.439928   -912.09779    1376.7788   -5077.6798     2.176101    13.678218   0.12042881 
  188500   -951.01695    40.719241   -910.29771    1458.4155   -5093.4629    2.1772885     14.78679   0.12806162 
  188600   -945.86842     41.15947   -904.70895    1474.1829    8096.5783    2.2012169    13.486395   0.13580863 
  188700   -946.89876      38.3573   -908.54146    1373.8194    8575.4462     2.206297    15.347518   0.12377227 
  188800   -952.59592    40.665359   -911.93056    1456.4857   -9153.7361    2.1689729    16.233869   0.11230686 
  188900   -950.12635     46.29664   -903.82971    1658.1778   -12668.894    2.1522773     13.84382   0.12938651 
  189000   -953.46184    47.828912   -905.63293    1713.0582    7036.1512    2.2051624    13.117157   0.12914328 
  189100   -950.57382    41.091973   -909.48185    1471.7654    9716.5861    2.2109998    15.848662   0.13766371 
  189200   -949.94662    40.063652   -909.88297    1434.9347   -3190.8939     2.176035    12.685011   0.11646892 
  189300   -946.96583    45.717345   -901.24848    1637.4295   -10678.575    2.1503477    15.258855   0.11863612 
  189400   -953.86609    44.203501   -909.66259    1583.2091    1694.5104    2.1980107    15.569551   0.11802492 
  189500   -951.27784    41.524273   -909.75357    1487.2489    7521.6014    2.2068144    14.831521   0.12683384 
  189600   -948.82652    41.198199   -907.62832    1475.5701   -177.91886    2.1832386    16.100966   0.13297799 
  189700   -946.99599    46.189762   -900.80623    1654.3498   -6969.2454    2.1576073    14.269666   0.12024739 
  189800   -953.60333    42.957301   -910.64603    1538.5747    3211.3737     2.200717    15.649546   0.11688926 
  189900   -951.11103    41.389839   -909.72119    1482.4339    5047.9196    2.1971713    11.923009   0.11792373 
  190000   -950.16825    42.225264   -907.94299    1512.3558   -1609.7136    2.1815603    14.312535   0.13112026 
  190100   -948.11516    47.152561    -900.9626    1688.8337   -4027.3213     2.167093     13.80921   0.12567369 
  190200   -950.16154    43.241581   -906.91996    1548.7566    1079.5375     2.186999     15.49001   0.11608103 
  190300   -949.39307    40.074245   -909.31882    1435.3141   -780.77947    2.1847014    14.523356    0.1234685 
  190400   -951.19979    42.101383   -909.09841    1507.9189    642.11013    2.1874132     15.23573   0.11241918 
  190500   -949.07839    40.951323   -908.12707    1466.7279    2066.8802    2.1912376    13.147628   0.12420566 
  190600   -943.39544    44.816368   -898.57907    1605.1598   -2175.3358    2.1643603    15.213243   0.13337741 
  190700   -950.45936    43.449439   -907.00992    1556.2013    329.20547    2.1862536    14.038987   0.12321392 
  190800   -952.64416    43.289934   -909.35423    1550.4884     3001.124    2.1991154    12.708781   0.11980555 
  190900   -951.96232    41.468014   -910.49431    1485.2339    2183.7029    2.1934453    14.723316   0.10971682 
  191000   -945.59022    44.693075   -900.89714    1600.7439   -6923.1684    2.1566709    13.959449   0.13421762 
  191100   -947.31459    41.144208   -906.17039    1473.6363    3358.6887    2.1872861    13.874426    0.1331935 
  191200   -952.07446    42.714954    -909.3595    1529.8947    5575.4202    2.2068762    15.034618   0.12705335 
  191300   -950.02605    39.793972   -910.23208    1425.2758     592.0536    2.1905612    14.842001   0.12223678 
  191400   -945.26419     44.39665   -900.86754     1590.127   -7890.6448    2.1514516    15.341337   0.13535006 
  191500   -953.44863    45.239608   -908.20902    1620.3187   -144.78393    2.1878917      12.6972    0.1184046 
  191600   -951.94606    42.366554   -909.57951    1517.4163     7015.777    2.2070992    13.881395   0.12483985 
  191700   -950.95691    43.606359   -907.35055    1561.8216    1640.6905    2.1902801    14.706868   0.11670111 
  191800   -944.68681    44.779698   -899.90712    1603.8464   -8257.2634    2.1488434    16.808138   0.14508614 
  191900   -949.59406    40.284114   -909.30994    1442.8309    221.71632    2.1836077    17.436954   0.11733633 
  192000   -951.70204    43.793409   -907.90863    1568.5211    1261.1928    2.1933461    18.588165   0.14605275 
  192100   -949.20055    42.883783   -906.31677    1535.9416    643.98614     2.186058    17.076182   0.14082709 
  192200    -947.8994    42.065654   -905.83374    1506.6392   -1731.4432    2.1715279    16.136111   0.13113142 
  192300   -954.46611    40.438222   -914.02789    1448.3505   -1219.8337    2.1951818    18.051346   0.12796708 
  192400   -950.30839    41.015908   -909.29248    1469.0411    3318.7711    2.1912688    19.455229   0.13152033 
  192500   -944.74561    38.345993   -906.39962    1373.4144    3914.4842     2.187055    18.071028   0.14834916 
  192600    -951.8978    43.699943   -908.19786    1565.1735   -2924.6446    2.1800532    18.875041   0.14643797 
  192700    -952.8918    38.548577   -914.34322    1380.6702   -489.83092    2.1909619    21.446888   0.12417465 
  192800   -950.91969    42.849191   -908.07049    1534.7026   -1488.2613    2.1830114    14.638541   0.10611203 
  192900   -950.18652     41.59057   -908.59595    1489.6234    975.16141    2.1885991    11.889972   0.10967505 
  193000   -953.21851    37.572324   -915.64619    1345.7044    3104.0574     2.202592    14.572825   0.12012252 
  193100   -952.97542    44.801757   -908.17366    1604.6365   -5247.0193    2.1775298     13.29956   0.11802517 
  193200    -948.1508    40.266698    -907.8841    1442.2071   -173.86435    2.1851914    16.789034   0.11980231 
  193300   -953.48226    41.525575   -911.95669    1487.2955    2725.8486    2.2013695    13.892942   0.11644791 
  193400   -954.52772    40.006798   -914.52092    1432.8984    2089.5336    2.2028218    12.215146   0.11664642 
  193500   -949.08013    43.419529   -905.66061    1555.1301   -5985.0914    2.1688084     12.50324   0.12408503 
  193600   -948.62409    39.662165   -908.96193    1420.5549   -2542.7299    2.1790808    13.758441   0.11967824 
  193700   -953.30874    42.557073   -910.75167      1524.24     5498.737    2.2063032    11.494341   0.11492065 
  193800   -948.50273    44.854186   -903.64854    1606.5143    9543.9619    2.1990468    14.679543   0.11329823 
  193900   -947.11704    42.016063   -905.10097     1504.863   -3280.3656    2.1722272    14.363422    0.1337684 
  194000   -950.79283    40.314453   -910.47838    1443.9175   -8662.1918    2.1652425    15.959443   0.11539363 
  194100   -950.28693    41.474467   -908.81246     1485.465    1770.8696    2.1910711    12.509963   0.11781281 
  194200   -945.31404    44.815417   -900.49862    1605.1257    10564.361    2.2028997     13.28583    0.1407962 
  194300    -950.5364    41.791735   -908.74467    1496.8284    4244.6967     2.200649    13.389014   0.14370998 
  194400   -953.02965    42.513295   -910.51636    1522.6721   -11260.888    2.1665986    14.460871   0.13947295 
  194500   -947.75325    42.836356   -904.91689    1534.2429   -5406.2957     2.170105    10.879914    0.1296968 
  194600   -948.68628    45.207698   -903.47858    1619.1758    7343.1506    2.2016424    13.856922   0.11682609 
  194700   -952.26906    41.633642   -910.63542    1491.1661    7429.4443    2.2080168    13.202347   0.11873184 
  194800   -950.23988     41.01933   -909.22055    1469.1636    -2572.717    2.1857508    12.295724   0.13687781 
  194900   -951.41181    45.573883   -905.83792    1632.2912   -4641.4411    2.1755751    13.778474   0.12846197 
  195000   -951.76705    39.586501   -912.18055    1417.8449   -584.03827    2.1923974     14.39931   0.13306614 
  195100   -950.50797    37.657503   -912.85046    1348.7552     3199.312    2.2008285    13.056725   0.13056549 
  195200   -949.01667    40.191085   -908.82558    1439.4989    4229.7382    2.1961107    11.848793   0.13526374 
  195300   -948.31908    40.970106   -907.34897    1467.4006   -997.02162    2.1827233    12.898826   0.14590828 
  195400   -954.22292    38.113668   -916.10925    1365.0934   -2247.5959    2.1951545    12.264993   0.12596162 
  195500   -950.88049    39.662303   -911.21819    1420.5599   -2224.2497    2.1846442    14.753706   0.12580302 
  195600   -952.39067    44.891504   -907.49916    1607.8509    1960.8677    2.1920725    14.859712   0.11675576 
  195700   -953.65222    42.714319   -910.93791     1529.872    2522.3039    2.1992424    14.303029   0.11196887 
  195800   -955.62669    39.584502   -916.04219    1417.7733    449.78353    2.1973331    13.150826   0.11369028 
  195900   -949.36202    41.431842   -907.93018    1483.9383   -5557.2164    2.1706735    14.480159   0.12405008 
  196000   -953.03404    44.008335   -909.02571     1576.219   -5406.0631    2.1796966    14.962265   0.12675028 
  196100   -955.46414    41.414953   -914.04919    1483.3334    9216.4664    2.2187451    14.949504   0.12080274 
  196200   -953.56258    39.773233   -913.78935     1424.533    8523.1259    2.2147366     15.12861   0.12728276 
  196300   -949.39542    41.457558   -907.93787    1484.8594   -8545.8831    2.1630086    12.994795   0.12663098 
  196400   -948.01968    38.453918   -909.56576    1377.2799   -8919.5687    2.1612627    13.579685    0.1234022 
  196500   -949.31316    38.037973   -911.27519    1362.3822    8158.7181    2.2104221    13.032576   0.13083409 
  196600   -950.17591    46.655875   -903.52003    1671.0442    10907.867    2.2120827    15.604091   0.12384916 
  196700   -949.59063    44.897969   -904.69266    1608.0824   -613.35824     2.178819    13.540366   0.11646718 
  196800   -948.76454    39.322085   -909.44246    1408.3745   -8746.8207    2.1647064    13.963509   0.12689382 
  196900   -949.08035     39.01717   -910.06318    1397.4535    1457.9037    2.1860761    14.141978   0.11386758 
  197000   -948.62963    46.172609   -902.45702    1653.7354    7838.0206    2.1986299    15.227891   0.12497215 
  197100   -950.00159    44.512396    -905.4892    1594.2726    2103.7543    2.1897029    12.555546   0.14111577 
  197200   -951.96035    41.447979   -910.51237    1484.5163   -5279.1713    2.1739341     14.57856    0.1290515 
  197300    -951.1032    42.778184   -908.32501    1532.1594   -2936.1379    2.1777268    13.938961   0.12041599 
  197400   -946.61817    45.987076    -900.6311    1647.0903    3508.5416    2.1828503    12.967182   0.13416993 
  197500   -949.60529    40.153082   -909.45221    1438.1378    8690.4798    2.2063266    13.649075   0.10895496 
  197600   -952.45922    42.522131   -909.93709    1522.9885   -4232.0618    2.1810036    15.178178   0.12722972 
  197700   -947.16199    41.897118   -905.26487    1500.6028   -6119.6659    2.1659114    13.733352   0.12551258 
  197800   -949.13628    45.152828   -903.98345    1617.2106   -345.74912    2.1811934    13.337351   0.12084838 
  197900   -952.10865    40.768036   -911.34062    1460.1632    10239.733    2.2147066      15.9995   0.11936076 
  198000   -950.25201    41.368765   -908.88324    1481.6791    1613.7887    2.1944093    13.126286   0.11368424 
  198100   -949.88006    42.314942   -907.56512    1515.5678   -6082.0206     2.170313     13.64812   0.13792006 
  198200   -953.16262    36.744526    -916.4181    1316.0557   -1375.0443    2.1943702    13.164509   0.11874332 
  198300   -951.33015    39.873113   -911.45703    1428.1103    2330.6581    2.1962977    14.195175   0.12379193 
  198400   -951.47939    43.788198    -907.6912    1568.3345    1476.7789    2.1923419    11.234977   0.12797126 
  198500   -950.97879    40.351076   -910.62771    1445.2292   -2008.3644    2.1863461    15.545159   0.13408263 
  198600   -952.99577    36.930078    -916.0657    1322.7015   -759.40213    2.1954709    15.731877   0.12866583 
  198700   -948.34631    40.259285   -908.08703    1441.9416    220.50043    2.1860667    14.932106   0.13646518 
  198800     -953.268    44.344517   -908.92348    1588.2598   -2319.6122    2.1905958    16.731095   0.13282877 
  198900   -954.02749    39.211924   -914.81557    1404.4289    583.88839    2.1973467    14.478565   0.12782181 
  199000   -955.70051    45.135411    -910.5651    1616.5867   -1840.2098    2.1901171    15.730917    0.1293657 
  199100   -949.27539     41.78678   -907.48861    1496.6509    3947.4518     2.192394    14.013267   0.13128238 
  199200   -949.89035    39.812164   -910.07818    1425.9273   -582.31969    2.1864706    12.917226   0.13874491 
  199300   -952.36317     38.82761   -913.53556    1390.6642   -4119.0743    2.1838946    13.656088   0.11339479 
  199400   -958.38788    38.210318   -920.17756     1368.555    1624.7961    2.2093912     12.63726   0.10369838 
  199500    -949.2187    38.012155   -911.20655    1361.4575    4242.8983    2.2021863    12.900735   0.12531429 
  199600   -950.71118    41.016151   -909.69503    1469.0498   -907.96024    2.1876133    14.283976   0.12969614 
  199700   -951.64462    42.564377   -909.08024    1524.5016   -6449.4557    2.1734687    14.238105   0.13083392 
  199800   -946.33375    41.043011   -905.29074    1470.0118    681.81762     2.180605    15.433621   0.13639463 
  199900   -944.28682    44.456488   -899.83033    1592.2702    3257.2932    2.1801427    14.523888   0.13781399 
  200000    -952.4514    44.585967   -907.86543    1596.9076   -650.98849    2.1889943    14.417923   0.12091116 
  200100   -952.64318    43.102483    -909.5407    1543.7746   -4475.8094    2.1786963    12.860343   0.12721758 
  200200   -947.93384    38.669488   -909.26435    1385.0008    241.70978    2.1816872    11.892762   0.12186189 
  200300   -944.06216    44.066069   -899.99609    1578.2868     6075.682    2.1844254    12.979897   0.12450105 
  200400    -947.6011    43.263532   -904.33757    1549.5428    7672.6428     2.197111    13.125588   0.12738598 
  200500   -948.96961    40.016349   -908.95326    1433.2405   -5088.9322    2.1715817    12.979747   0.12401723 
  200600   -949.80741    39.228376   -910.57904    1405.0181   -8201.0393    2.1661442    14.523082   0.13019507 
  200700   -950.07868    44.170099   -905.90858    1582.0127    6631.0202     2.200028    13.554878   0.13293229 
  200800   -949.52473    46.301695   -903.22303    1658.3588    8032.5957    2.2015111    13.337856   0.11102341 
  200900   -952.73042    43.058615   -909.67181    1542.2035   -6744.7702    2.1753707    15.693178   0.11411664 
  201000   -953.59194    43.627176   -909.96476    1562.5672   -9506.4379    2.1654419    12.350285   0.11767546 
  201100   -951.73961     48.78899   -902.95062    1747.4447    1991.7374    2.1867459    13.921447   0.11438394 
  201200   -949.32533    43.443203   -905.88212     1555.978    7256.6584    2.2001683    12.642981   0.12859491 
  201300   -951.96839    41.571322   -910.39707     1488.934    -2897.387    2.1842303    13.340059   0.12708538 
  201400   -949.83276    40.967777   -908.86498    1467.3172   -3136.6773    2.1757143    13.271125   0.11758293 
  201500   -946.90524    44.282439   -902.62281    1586.0364    2064.8533    2.1814954    12.887811   0.12901187 
  201600   -950.69058    44.566982   -906.12359    1596.2277    514.54273    2.1848871    14.774445   0.11543089 
  201700   -952.51363    42.630733    -909.8829    1526.8783   -2687.3802    2.1810407    14.232376   0.11068741 
  201800   -949.62608    40.592453   -909.03363    1453.8745    -1299.443    2.1838171    13.237626   0.12811805 
  201900   -950.28417    44.357921   -905.92625    1588.7399    3257.6832    2.1857485    13.340815   0.10604212 
  202000    -948.4852    50.409016   -898.07619    1805.4682   -2696.1733     2.164413    13.923095   0.12806218 
  202100   -953.75674     45.93231   -907.82443    1645.1288    123.14734    2.1881459    12.145977   0.12425702 
  202200   -950.33522     41.26418   -909.07104    1477.9333    2341.6577     2.190261    12.133315   0.12423286 
  202300   -952.32437    42.000373     -910.324     1504.301   -2333.4801    2.1835077     12.31402   0.13964666 
  202400    -951.5053    41.773197    -909.7321    1496.1644   -1549.7403    2.1826668    13.670317   0.12343538 
  202500   -943.93328    41.913891   -902.01939    1501.2036    501.61731    2.1697493    13.581824   0.14136063 
  202600   -952.53672     45.62634   -906.91038      1634.17    844.99827    2.1847496    11.551591   0.10713678 
  202700   -950.24305    40.917627   -909.32542     1465.521    3159.9242    2.1946984    12.553778   0.10565847 
  202800   -951.01482    39.503427    -911.5114    1414.8695    653.74046    2.1906024    12.625214   0.11857278 
  202900   -951.24638    44.256613   -906.98977    1585.1114   -3676.8488    2.1766216    13.940711   0.11239254 
  203000   -947.51229    43.397987    -904.1143    1554.3585    216.91566     2.180122    13.925772   0.12761739 
  203100   -951.54768    43.462556   -908.08512    1556.6712    1855.6633    2.1899346    13.297162   0.11856471 
  203200   -950.84207    40.111997   -910.73007    1436.6663    302.52924    2.1916238    11.954654   0.13306885 
Loop time of 143.096 on 1 procs for 200000 steps with 217 atoms

Performance: 362.275 ns/day, 0.066 hours/ns, 1397.666 timesteps/s
100.0% CPU use with 1 MPI tasks x no OpenMP threads

MPI task timing breakdown:
Section |  min time  |  avg time  |  max time  |%varavg| %total
---------------------------------------------------------------
Pair    | 139.36     | 139.36     | 139.36     |   0.0 | 97.39
Neigh   | 0.68078    | 0.68078    | 0.68078    |   0.0 |  0.48
Comm    | 0.86179    | 0.86179    | 0.86179    |   0.0 |  0.60
Output  | 0.068369   | 0.068369   | 0.068369   |   0.0 |  0.05
Modify  | 1.82       | 1.82       | 1.82       |   0.0 |  1.27
Other   |            | 0.3026     |            |       |  0.21

Nlocal:    217 ave 217 max 217 min
Histogram: 1 0 0 0 0 0 0 0 0 0
Nghost:    957 ave 957 max 957 min
Histogram: 1 0 0 0 0 0 0 0 0 0
Neighs:    4232 ave 4232 max 4232 min
Histogram: 1 0 0 0 0 0 0 0 0 0
FullNghs:  8464 ave 8464 max 8464 min
Histogram: 1 0 0 0 0 0 0 0 0 0

Total # of neighbors = 8464
Ave neighs/atom = 39.0046
Neighbor list builds = 1152
Dangerous builds = 9
Total wall time: 0:02:25
