LAMMPS (3 Mar 2020)

# ---------- 1. Initialize simulation ----------
units metal
atom_style atomic
dimension 3
boundary p p p
read_data /home/modeler/RemLabs/Project/eval_timestep_npt/n3_T1800_timestep1.318325e-03_steps11379/20201205-223934/lammps.data
  orthogonal box = (0 0 0) to (17.469 17.469 17.469)
  1 by 1 by 1 MPI processor grid
  reading atoms ...
  217 atoms
  read_data CPU = 0.000991626 secs

pair_style meam/c
pair_coeff * * library.meam Li Si LiSi.meam Li Si
Reading potential file library.meam with DATE: 2012-06-29
Reading potential file LiSi.meam with DATE: 2020-11-07

group Li type 1
1 atoms in group Li

velocity all create 1800 3320 dist gaussian

# ---------- 2. Describe computed properties----------
compute msdli Li msd
thermo_style custom step pe ke etotal temp press density c_msdli[4]
thermo 100

# ---------- 3. Specify ensemble  ----------
fix 1 all npt temp 1800 1800 0.06591627246825894 tchain 2 iso 1.0 1.0 1.0 pchain 2
# fix 1 all nvt temp 1800 1800 0.06591627246825894
# fix 1 all nve

# ---------- 4. Run -------------
timestep 0.001318325449365179
run 11379
Neighbor list info ...
  update every 1 steps, delay 10 steps, check yes
  max neighbors/atom: 2000, page size: 100000
  master list distance cutoff = 6
  ghost atom cutoff = 6
  binsize = 3, bins = 6 6 6
  2 neighbor lists, perpetual/occasional/extra = 2 0 0
  (1) pair meam/c, perpetual
      attributes: full, newton on
      pair build: full/bin/atomonly
      stencil: full/bin/3d
      bin: standard
  (2) pair meam/c, perpetual, half/full from (1)
      attributes: half, newton on
      pair build: halffull/newton
      stencil: none
      bin: none
Per MPI rank memory allocation (min/avg/max) = 9.27 | 9.27 | 9.27 Mbytes
Step PotEng KinEng TotEng Temp Press Density c_msdli[4] 
       0   -951.04357    50.256344   -900.78722         1800   -114161.75    1.8918427            0 
     100    -952.3085    36.354609   -915.95389    1302.0903    6256.6188    2.2024527   0.22874673 
     200   -952.57286    41.988435   -910.58443    1503.8735     37197.81    2.2729874   0.71860807 
     300    -948.0737    41.479891   -906.59381    1485.6593   -27090.904    2.1085801   0.11823051 
     400   -947.59011      45.6563   -901.93381    1635.2431   -8978.1492    2.1497017  0.074496126 
     500    -948.6874    50.808989   -897.87841    1819.7937    29051.969    2.2426975   0.30723707 
     600   -942.39682    45.615681   -896.78114    1633.7883    -10223.09    2.1348316  0.043354357 
     700    -936.1285    46.734995    -889.3935     1673.878   -14406.551    2.1074793    0.3838762 
     800   -944.59376    55.696321   -888.89744    1994.8403    14501.618    2.1994385   0.28254686 
     900   -944.21616    47.882803   -896.33336    1714.9883    5029.3467     2.175842   0.13695788 
    1000   -937.48809    49.205033   -888.28305    1762.3459   -12040.367     2.120247   0.54779675 
    1100   -939.33211    51.642787   -887.68932    1849.6574    2234.0013    2.1586233    0.1415328 
    1200   -942.79028    46.704498   -896.08579    1672.7857    9794.2209    2.1856982   0.38798781 
    1300   -940.34815    47.251951    -893.0962    1692.3935     -2884.34    2.1547211    0.1116233 
    1400   -940.45146    54.329019   -886.12244    1945.8684   -5771.2225     2.140343   0.21926769 
    1500   -942.32978    48.546767   -893.78302    1738.7691    560.60763    2.1596602    1.1574859 
    1600   -940.06324    47.065131   -892.99811    1685.7023    6870.5951    2.1757459    2.6800917 
    1700   -939.37974    53.797061   -885.58267    1926.8156   -3023.4939    2.1448406    5.0385699 
    1800   -938.12423    46.700227     -891.424    1672.6328   -8162.7753    2.1338603    5.1029803 
    1900    -942.9313      52.2356    -890.6957    1870.8898    10847.422    2.1871392    4.7496096 
    2000   -933.91024    53.196026   -880.71421    1905.2887    5395.1443    2.1575303    7.3976403 
    2100   -937.28556    48.059677   -889.22589    1721.3233   -17636.049    2.1042366    4.2183002 
    2200   -941.84215    54.167823   -887.67433     1940.095    10604.843    2.1855295    4.8034284 
    2300   -948.55486    51.743429   -896.81143     1853.262    8168.5193    2.1920107    4.9879715 
    2400   -937.91227    46.035482   -891.87679     1648.824   -10878.158    2.1289848    3.7113138 
    2500   -937.95154     50.93959   -887.01195    1824.4714    989.34044    2.1554826    6.3051363 
    2600   -942.30845    48.241858   -894.06659    1727.8484    7754.7589    2.1838767    6.5318383 
    2700   -943.64899    49.935962   -893.71302    1788.5251   -2572.0901    2.1579343    5.7252487 
    2800   -937.44867    51.412489   -886.03618    1841.4089     -4648.02    2.1426697    7.8113391 
    2900   -941.11237    49.368977   -891.74339    1768.2177   -1093.4214     2.156964    6.9141323 
    3000   -944.60163    49.198288   -895.40335    1762.1043    4394.3352    2.1818387    4.8658892 
    3100   -939.07606    53.284249   -885.79181    1908.4486    3023.3944    2.1641402    5.9071249 
    3200   -940.91875    51.267058   -889.65169    1836.2001   -12448.074    2.1301216    5.5700264 
    3300   -942.44083    48.369253   -894.07158    1732.4112    2438.1089     2.174187    7.6521662 
    3400   -934.13824    50.587308   -883.55093    1811.8539    17683.195    2.1911734    6.3111449 
    3500   -938.19428    51.684535   -886.50975    1851.1526   -16251.488    2.1104385    4.7797592 
    3600   -938.30843    49.860306   -888.44813    1785.8153   -4008.0138    2.1444501    4.5457932 
    3700   -946.10786    51.734943   -894.37292    1852.9581    14981.632    2.2090719    3.6509473 
    3800   -942.45863    46.391387   -896.06725    1661.5713   -7360.9395    2.1517702    5.7424058 
    3900   -935.59371    46.297434   -889.29627    1658.2062   -6695.3232    2.1356772    5.0568554 
    4000   -943.49453    55.304051   -888.19048    1980.7906    6609.7883    2.1829613     4.758989 
    4100   -943.91513    47.830886   -896.08425    1713.1289    733.07681    2.1713589    4.9920283 
    4200   -941.22489    53.246202   -887.97869    1907.0859   -6905.4101    2.1505914    3.6345651 
    4300   -937.53836    49.358238   -888.18013    1767.8331    795.67483    2.1606884      5.82167 
    4400   -944.67338    49.502959   -895.17042    1773.0165    2287.0586      2.17492    5.8719266 
    4500   -944.35336    52.699687   -891.65368    1887.5117    1477.1936    2.1728909    4.7932535 
    4600   -939.93317    53.931893   -886.00128    1931.6448   -3374.8391    2.1491324    9.7121198 
    4700   -940.92512    49.881948   -891.04317    1786.5905   -6783.9268    2.1485403    12.524815 
    4800    -940.9578    45.739061   -895.21873    1638.2073    7596.6842    2.1863031      14.5703 
    4900    -949.7929    47.171887   -902.62101    1689.5259   -29.697423    2.1839315    14.576441 
    5000   -940.41113    48.849874   -891.56126    1749.6253    1145.4405    2.1640187    18.951254 
    5100   -941.92604    51.443197   -890.48284    1842.5088   -5357.8298    2.1559159    20.357372 
    5200   -943.00567     52.26194   -890.74373    1871.8331    2474.7467    2.1775643    24.373376 
    5300   -948.61762    48.420362   -900.19726    1734.2418   -3226.6365    2.1783362    20.779229 
    5400   -943.77601    49.832805   -893.94321    1784.8304    2056.4807    2.1764612    19.826941 
    5500   -938.19789    48.191359   -890.00653    1726.0397    2004.6722    2.1644658     19.59756 
    5600   -943.63053    52.003971   -891.62656    1862.5936   -5095.7717    2.1576561    18.689054 
    5700   -948.70217    46.606967    -902.0952    1669.2925   -1342.1888    2.1807072    19.613774 
    5800   -938.76308     43.52613   -895.23695    1558.9481    12239.779    2.1970668    22.088092 
    5900   -941.78676    50.834513   -890.95225    1820.7079   -7220.8732    2.1516091    21.057435 
    6000   -938.31885    52.297053   -886.02179    1873.0908   -5091.9846    2.1473349    21.954718 
    6100   -938.32572    48.723916    -889.6018     1745.114    4937.9947    2.1751752    20.638933 
    6200   -942.74322    48.374798   -894.36842    1732.6098    304.08783    2.1721709    21.172988 
    6300   -939.63697    50.512343   -889.12463    1809.1689    1128.4368    2.1640506    19.322465 
    6400   -938.04217     50.77559   -887.26658    1818.5975   -299.57001    2.1554575    21.338483 
    6500   -942.60081    45.739058   -896.86175    1638.2072   -855.06441    2.1695181    23.252188 
    6600   -941.96262    49.253735   -892.70888    1764.0902    8351.1297    2.1888784    20.894889 
    6700   -937.93824     49.25942   -888.67882    1764.2938   -3348.9258    2.1497278    19.573555 
    6800    -934.9109    55.155121   -879.75578    1975.4564   -3931.5482    2.1388819    22.357451 
    6900   -939.96602    52.274627    -887.6914    1872.2876    1808.9374     2.163579     18.85132 
    7000   -940.68023    48.918359   -891.76187    1752.0782    2404.4602    2.1738781    19.534654 
    7100   -943.98056    52.011228   -891.96933    1862.8536   -2532.9769    2.1633908    20.147061 
    7200   -939.07732    54.299585   -884.77774    1944.8142    751.48461    2.1593822    20.395392 
    7300   -939.22277    52.875966    -886.3468    1893.8254   -3399.7329    2.1490774    18.582359 
    7400    -941.0805    48.952242   -892.12826    1753.2918   -260.21497    2.1631773    20.836982 
    7500   -941.36361    49.287405    -892.0762    1765.2961    6142.7027    2.1831316    18.553482 
    7600   -942.62394    45.081468   -897.54248    1614.6547   -5235.7967    2.1589862    22.362005 
    7700   -944.36807    46.104488   -898.26358    1651.2955    1086.8401    2.1757725    18.925661 
    7800    -945.0482    53.928104    -891.1201    1931.5091    7978.2939    2.1911314    21.070407 
    7900   -942.16749    50.814688   -891.35281    1819.9978   -8518.1408    2.1442696    21.010784 
    8000   -932.61503     48.94284   -883.67218    1752.9551    1488.1244    2.1503746    21.237313 
    8100    -947.8603    55.163133   -892.69716    1975.7434    102.28911    2.1736305    20.693586 
    8200   -942.07958     48.51043   -893.56915    1737.4677    4199.4533      2.17603    18.496889 
    8300   -942.89484     55.41483   -887.48001    1984.7582   -2116.0825    2.1595701    16.928285 
    8400   -937.99564    49.746386   -888.24926    1781.7351    -1906.453    2.1505117    19.725267 
    8500   -941.42141    45.288758   -896.13265    1622.0791    739.43915    2.1732661    20.782211 
    8600   -942.17698    52.914099   -889.26288    1895.1911    7888.2827    2.1859864    20.106833 
    8700   -939.37882    49.114862   -890.26396    1759.1162    -8369.765    2.1412061    23.176365 
    8800   -946.68536     47.88132   -898.80404    1714.9353    -5899.346    2.1634049    20.777197 
    8900   -940.66083    49.866519   -890.79431    1786.0379    16834.985    2.2097563    20.672055 
    9000   -939.33859    45.921238   -893.41735    1644.7322   -9087.5178    2.1426493    17.344877 
    9100   -936.66896    50.034798   -886.63416     1792.065    -4401.277    2.1445342     20.06449 
    9200   -940.80177    53.484247   -887.31753    1915.6118    11283.573    2.1911471    19.608077 
    9300   -941.68991    48.344509    -893.3454     1731.525   -2759.5923     2.158416    19.483143 
    9400   -939.98741    52.437354   -887.55006    1878.1159   -6571.6229    2.1475199    22.434922 
    9500   -941.56008    54.694605   -886.86547    1958.9624    5757.3049    2.1747357    18.930482 
    9600   -944.20243    49.211016   -894.99141    1762.5601   -1848.6935    2.1676831    21.709145 
    9700   -939.08522      48.5402   -890.54501    1738.5339    2436.9797    2.1660732     20.83255 
    9800   -941.41589    53.575005   -887.84089    1918.8624   -1630.5582    2.1606649     20.48485 
    9900   -943.08325    45.554347    -897.5289    1631.5915    -3438.912    2.1611695    21.870555 
   10000   -942.53161    52.719111    -889.8125    1888.2074     8682.951    2.1850773    19.282609 
   10100   -938.56072    47.322193   -891.23852    1694.9093   -2535.1966    2.1536107    23.988784 
   10200   -943.02956    46.734584   -896.29498    1673.8633   -7670.8505    2.1482941    20.286757 
   10300   -939.93441    54.460808    -885.4736    1950.5886     14855.08    2.1945644    18.916539 
   10400   -940.75476    49.702536   -891.05223    1780.1646   -3607.3353    2.1505383    20.482947 
   10500   -936.25481     46.28202   -889.97279    1657.6541   -6313.3334    2.1371143    19.321391 
   10600   -939.08176    54.174872   -884.90688    1940.3475    11848.058     2.184108    21.840505 
   10700   -944.58436    49.365504   -895.21886    1768.0933    -2390.439     2.162977    19.499194 
   10800   -941.62838    51.618695   -890.00968    1848.7944   -3334.0355    2.1513424    21.489511 
   10900   -940.80839    53.616375   -887.19202    1920.3441    3826.7765    2.1676844    18.081054 
   11000   -944.34339    46.878565   -897.46483    1679.0202   -3360.1835    2.1642891     20.63917 
   11100   -942.22913    51.103044   -891.12609    1830.3257    3626.0783    2.1719452     19.46008 
   11200    -937.0728    48.034584   -889.03822    1720.4246    776.60225    2.1586709    20.349932 
   11300   -947.41236    49.896923   -897.51544    1787.1268    -7976.001    2.1570429    20.081888 
   11379    -938.5272    46.958622   -891.56858    1681.8876    11810.959    2.1872207    18.803689 
Loop time of 7.86165 on 1 procs for 11379 steps with 217 atoms

Performance: 164.864 ns/day, 0.146 hours/ns, 1447.406 timesteps/s
100.0% CPU use with 1 MPI tasks x no OpenMP threads

MPI task timing breakdown:
Section |  min time  |  avg time  |  max time  |%varavg| %total
---------------------------------------------------------------
Pair    | 7.5919     | 7.5919     | 7.5919     |   0.0 | 96.57
Neigh   | 0.097918   | 0.097918   | 0.097918   |   0.0 |  1.25
Comm    | 0.049947   | 0.049947   | 0.049947   |   0.0 |  0.64
Output  | 0.0032172  | 0.0032172  | 0.0032172  |   0.0 |  0.04
Modify  | 0.10187    | 0.10187    | 0.10187    |   0.0 |  1.30
Other   |            | 0.01675    |            |       |  0.21

Nlocal:    217 ave 217 max 217 min
Histogram: 1 0 0 0 0 0 0 0 0 0
Nghost:    957 ave 957 max 957 min
Histogram: 1 0 0 0 0 0 0 0 0 0
Neighs:    4181 ave 4181 max 4181 min
Histogram: 1 0 0 0 0 0 0 0 0 0
FullNghs:  8362 ave 8362 max 8362 min
Histogram: 1 0 0 0 0 0 0 0 0 0

Total # of neighbors = 8362
Ave neighs/atom = 38.5346
Neighbor list builds = 167
Dangerous builds = 0
Total wall time: 0:00:07
