LAMMPS (3 Mar 2020)

    # ---------- Initialize simulation ---------------------
    units metal
    atom_style atomic
    dimension  3
    boundary   p p p
    read_data /home/modeler/RemLabs/Lab4/Problem2A_v1_size_3/temp_2220/lammps.data
  orthogonal box = (0 0 0) to (12.27 12.27 12.27)
  1 by 1 by 1 MPI processor grid
  reading atoms ...
  108 atoms
  read_data CPU = 0.000969745 secs

    pair_style eam
    pair_coeff * * /usr/share/lammps-stable/potentials/Ag_u3.eam
Reading potential file /usr/share/lammps-stable/potentials/Ag_u3.eam with DATE: 2007-06-11

    velocity  all create 2220 87287 dist gaussian

    # ---------- Describe computed properties------------------
    compute msdall all msd
    thermo_style custom step pe ke etotal temp press density c_msdall[4]
    thermo 100

    # ---------- Specify ensemble  ---------------------
    #fix  1 all nve
    fix  1 all nvt temp 2220 2220 0.25

    # --------- Compute RDF ---------------
    compute rdfall all rdf 100 1 1
    fix 2 all ave/time 1 125000 125000 c_rdfall[*] file /home/modeler/RemLabs/Lab4/Problem2A_v1_size_3/temp_2220/lammps.rdf mode vector

    # --------- Run -------------
    timestep 0.005
    run 500000
Neighbor list info ...
  update every 1 steps, delay 10 steps, check yes
  max neighbors/atom: 2000, page size: 100000
  master list distance cutoff = 7.55
  ghost atom cutoff = 7.55
  binsize = 3.775, bins = 4 4 4
  2 neighbor lists, perpetual/occasional/extra = 1 1 0
  (1) pair eam, perpetual
      attributes: half, newton on
      pair build: half/bin/atomonly/newton
      stencil: half/bin/3d/newton
      bin: standard
  (2) compute rdf, occasional, copy from (1)
      attributes: half, newton on
      pair build: copy
      stencil: none
      bin: none
Per MPI rank memory allocation (min/avg/max) = 3.723 | 3.723 | 3.723 Mbytes
Step PotEng KinEng TotEng Temp Press Density c_msdall[4] 
       0       -307.8    30.704455   -277.09555         2220    17753.557    10.472245            0 
     100   -288.11444    22.406038    -265.7084    1620.0061    81003.712    10.472245   0.10862695 
     200   -277.17374    28.688594   -248.48514    2074.2488    117946.84    10.472245    0.1485559 
     300     -275.056    35.494074   -239.56192       2566.3    128837.61    10.472245   0.24090901 
     400   -275.52664    28.186598   -247.34004    2037.9534    121925.99    10.472245   0.18813064 
     500   -277.72746     29.13972   -248.58774    2106.8662    117186.16    10.472245   0.19609509 
     600   -275.51051    33.730688   -241.77982    2438.8034    125777.19    10.472245   0.18700553 
     700   -278.89044    30.321942    -248.5685    2192.3435    112611.98    10.472245   0.17048052 
     800   -274.15268    25.749033   -248.40364     1861.712    125740.55    10.472245   0.18248383 
     900   -276.16169    29.823692     -246.338    2156.3189    123963.46    10.472245   0.18610981 
    1000   -274.16887    31.504819   -242.66406    2277.8681    128445.65    10.472245   0.24234804 
    1100   -271.29173    30.234889   -241.05684    2186.0493    136171.45    10.472245   0.21161012 
    1200   -278.36146     30.12126    -248.2402    2177.8337     115232.6    10.472245   0.15781776 
    1300    -274.1972    30.820831   -243.37637    2228.4142    130239.53    10.472245   0.20381501 
    1400   -273.55531    29.774116   -243.78119    2152.7345    128797.19    10.472245   0.18929752 
    1500   -276.07692    28.851968   -247.22495    2086.0611    121924.35    10.472245   0.19268887 
    1600    -277.4893    35.997931   -241.49137    2602.7301    120167.29    10.472245   0.18519172 
    1700   -274.07935     32.87732   -241.20203     2377.103    128784.38    10.472245   0.24311836 
    1800   -276.19908    30.603917   -245.59517    2212.7309    123318.97    10.472245   0.23227634 
    1900   -278.25829     30.01906   -248.23923    2170.4444    113711.82    10.472245   0.20676456 
    2000   -277.64955    27.450753    -250.1988    1984.7502    117035.45    10.472245   0.19562274 
    2100   -276.79619    33.325877   -243.47032    2409.5346    119701.38    10.472245   0.21213996 
    2200   -279.22655    28.981383   -250.24517    2095.4181    111334.92    10.472245   0.15818838 
    2300   -276.10694    26.846319   -249.26062    1941.0482    121821.91    10.472245   0.18291452 
    2400   -278.13632    33.494681   -244.64164    2421.7395    117309.66    10.472245   0.17508333 
    2500   -275.62373     34.62567   -240.99806    2503.5126    125358.19    10.472245   0.20493833 
    2600   -276.27057    27.097043   -249.17352    1959.1761    119893.98    10.472245   0.21681162 
    2700   -275.98439    30.517712   -245.46668     2206.498    123205.75    10.472245   0.16357249 
    2800   -271.01613    29.836772   -241.17936    2157.2646    136489.15    10.472245   0.21077885 
    2900   -281.36287    30.560748   -250.80212    2209.6097    106608.88    10.472245    0.1444432 
    3000   -273.20841    29.289959   -243.91846    2117.7288    131628.78    10.472245    0.2503576 
    3100   -273.35655    30.179206   -243.17734    2182.0233    128815.92    10.472245   0.21608345 
    3200   -276.21232    30.347585   -245.86474    2194.1975    119007.72    10.472245   0.20315404 
    3300   -279.58917    33.420246   -246.16893    2416.3577    113013.75    10.472245    0.1410636 
    3400   -279.62038    25.985123   -253.63526    1878.7819    107004.14    10.472245   0.17414808 
    3500   -275.14176    29.335811   -245.80595     2121.044    122605.66    10.472245   0.21266177 
    3600   -276.42563    32.553962   -243.87167    2353.7234     122041.9    10.472245   0.19630707 
    3700    -276.1678    24.902037   -251.26577    1800.4723    117411.56    10.472245   0.17839087 
    3800   -276.31125    33.701456    -242.6098    2436.6898    125762.94    10.472245    0.1857605 
    3900   -278.08565    32.665674   -245.41998    2361.8005    116963.59    10.472245   0.19903245 
    4000   -278.43828    27.993552   -250.44473    2023.9957    114165.88    10.472245   0.16065299 
    4100   -273.55292     30.21487   -243.33805    2184.6019     128337.1    10.472245    0.2088116 
    4200    -274.9322    31.072841   -243.85936    2246.6352    127736.99    10.472245   0.19627324 
    4300   -279.91316    29.865914   -250.04725    2159.3716    109605.82    10.472245   0.18612889 
    4400   -275.58741    28.489773   -247.09763    2059.8736    122190.54    10.472245   0.20956393 
    4500   -274.69695    30.501474   -244.19548     2205.324    126145.88    10.472245   0.25781124 
    4600   -271.81623    35.031265   -236.78497    2532.8379    136815.17    10.472245   0.27928178 
    4700   -276.43062    30.369729   -246.06089    2195.7986    124130.12    10.472245   0.21646744 
    4800   -274.85027    27.598854   -247.25142    1995.4582    123588.66    10.472245   0.19802414 
    4900   -276.26941     35.87432   -240.39509    2593.7927    124259.57    10.472245   0.16355938 
    5000   -279.94668    32.963994   -246.98268    2383.3697    112137.01    10.472245   0.17831233 
    5100   -276.39229    29.267513   -247.12478    2116.1059    119885.72    10.472245   0.16675724 
    5200   -270.47653    30.008222    -240.4683    2169.6609    139616.38    10.472245   0.25666254 
    5300   -272.88258    36.013991   -236.86859    2603.8912    136568.45    10.472245   0.24492519 
    5400   -273.92421    28.599351   -245.32486    2067.7964    125143.52    10.472245   0.20957678 
    5500   -276.94926    28.634232   -248.31503    2070.3183    115504.28    10.472245   0.16169776 
    5600   -280.98566    35.308263    -245.6774    2552.8655    108172.92    10.472245   0.15658552 
    5700   -276.08601    35.043398   -241.04261    2533.7152    125694.42    10.472245   0.20108379 
    5800   -277.96112    27.780463   -250.18066    2008.5889    115626.33    10.472245   0.18038993 
    5900   -277.78591    32.385525   -245.40038    2341.5451    118461.24    10.472245   0.20883422 
    6000   -276.63213    34.006163   -242.62596    2458.7208    121764.53    10.472245   0.18424202 
    6100   -275.54072     29.96856   -245.57216    2166.7932    125895.49    10.472245   0.22592558 
    6200   -279.63099    28.944045   -250.68694    2092.7185    110458.76    10.472245   0.17816834 
    6300   -280.41016    32.435138   -247.97502    2345.1322    110529.91    10.472245   0.15897739 
    6400     -276.625    32.282815   -244.34218     2334.119     121737.4    10.472245   0.16993442 
    6500   -280.19047    29.085659   -251.10481    2102.9575    108725.65    10.472245   0.17005142 
    6600   -277.89691    28.675857   -249.22106    2073.3279    115615.91    10.472245   0.17832466 
    6700   -274.95678    32.283266   -242.67352    2334.1516    125402.43    10.472245   0.19092568 
    6800   -275.56731    27.170756   -248.39655    1964.5058    123973.54    10.472245   0.16541596 
    6900   -278.51026    29.654952   -248.85531    2144.1186    115678.28    10.472245   0.16221466 
    7000   -274.61496    33.361447   -241.25351    2412.1064    128161.88    10.472245   0.18888093 
    7100   -275.99377    27.630537   -248.36323     1997.749    119516.84    10.472245   0.18589682 
    7200   -279.34588     32.25793   -247.08794    2332.3197    112377.33    10.472245   0.17532561 
    7300   -275.65996    30.242103   -245.41786    2186.5709    122956.01    10.472245    0.1784106 
    7400   -274.13438    29.881329   -244.25305    2160.4862    128320.23    10.472245   0.19687852 
    7500   -273.90888    29.117889     -244.791    2105.2878    126181.78    10.472245   0.21299326 
    7600   -280.99041     29.97533   -251.01508    2167.2827    105999.05    10.472245    0.1387197 
    7700   -276.23638    32.827027   -243.40936    2373.4666    124586.76    10.472245   0.21324226 
    7800   -275.79344    30.935635    -244.8578    2236.7148    122790.75    10.472245   0.20966998 
    7900   -276.40336    27.593011   -248.81035    1995.0357    118698.07    10.472245   0.21968968 
    8000   -271.74791    32.491996   -239.25591    2349.2432    136643.85    10.472245   0.22303543 
    8100   -277.06737     29.84271   -247.22466    2157.6939     119892.8    10.472245   0.17488602 
    8200   -275.61078    29.534343   -246.07644    2135.3983     121475.7    10.472245   0.18995409 
    8300   -274.02962    36.884174   -237.14544    2666.8073    136454.97    10.472245   0.22491153 
    8400   -277.06945    32.102328   -244.96712    2321.0693    121456.73    10.472245   0.17989423 
    8500   -276.74787     30.54684   -246.20103    2208.6041    119760.06    10.472245   0.18658652 
    8600   -275.57048    30.795151   -244.77533    2226.5575    124127.96    10.472245   0.20749469 
    8700    -275.0048    32.468402    -242.5364    2347.5373    126983.65    10.472245   0.17311204 
    8800   -279.80281    30.278602   -249.52421    2189.2099    110500.03    10.472245   0.17298834 
    8900    -275.1884    33.836743   -241.35166    2446.4713    125578.98    10.472245   0.16950129 
    9000   -275.83848     33.43144   -242.40704    2417.1671    126164.86    10.472245   0.17560223 
    9100   -278.22437    30.228623   -247.99574    2185.5963    117796.95    10.472245   0.22809453 
    9200   -272.31019    32.781945   -239.52825    2370.2071    133434.75    10.472245   0.24279546 
    9300   -273.36909    31.549825   -241.81927    2281.1221    131468.23    10.472245   0.18777184 
    9400    -277.8666    29.862231   -248.00437    2159.1054    117174.57    10.472245   0.22015664 
    9500   -273.84327     30.13463   -243.70864    2178.8004    129326.19    10.472245   0.23497509 
    9600   -272.56559    29.985334   -242.58026     2168.006    131649.87    10.472245   0.23049499 
    9700    -278.6513    31.136946   -247.51435      2251.27    114413.49    10.472245   0.19269699 
    9800   -276.44942    32.105214    -244.3442     2321.278     120997.9    10.472245   0.17188569 
    9900   -271.67779    32.577278   -239.10052    2355.4093    136834.78    10.472245   0.20694926 
   10000   -278.09531    30.758267   -247.33704    2223.8908    116989.72    10.472245   0.16148694 
   10100   -276.80061    31.040421   -245.76019    2244.2911    122009.17    10.472245   0.20309788 
   10200   -270.31509    32.301787    -238.0133    2335.4906    140448.42    10.472245   0.22990715 
   10300   -271.73383    26.784455   -244.94937    1936.5753    134074.31    10.472245    0.2128396 
   10400   -277.08509    28.456207   -248.62888    2057.4467    119423.52    10.472245   0.25751412 
   10500   -268.80564    28.381596   -240.42405    2052.0522    140444.85    10.472245    0.2174294 
   10600   -276.18964    32.879862   -243.30978    2377.2867    119951.92    10.472245   0.17957315 
   10700   -279.54259     33.51396   -246.02863    2423.1334     113451.6    10.472245     0.149786 
   10800   -280.84757    28.910898   -251.93668    2090.3219    106325.34    10.472245   0.17600361 
   10900   -276.03573    28.717822   -247.31791    2076.3621    120104.38    10.472245   0.17761465 
   11000   -276.96477     31.97662   -244.98815    2311.9803    120718.75    10.472245   0.17469154 
   11100   -278.91468    27.323221   -251.59146    1975.5293    114099.96    10.472245   0.16922735 
   11200   -274.36741    27.218934   -247.14847    1967.9891    125607.57    10.472245   0.24812167 
   11300   -277.23841    35.286557   -241.95186    2551.2961     122038.4    10.472245   0.20150929 
   11400   -277.57087    28.118824   -249.45205    2033.0531    116260.54    10.472245   0.15926233 
   11500   -279.27177    33.235828   -246.03594    2403.0239    114892.05    10.472245   0.15533493 
   11600   -273.02244     31.94734    -241.0751    2309.8633    133526.11    10.472245   0.24020187 
   11700   -279.63375    31.463536   -248.17021    2274.8832    112184.65    10.472245    0.1883043 
   11800   -274.60321    28.821668   -245.78154    2083.8703    127042.84    10.472245   0.20790696 
   11900   -276.38346    31.311471   -245.07199    2263.8886    120896.81    10.472245   0.20960783 
   12000   -278.30746    29.394491   -248.91297    2125.2867    115974.93    10.472245   0.21826114 
   12100   -280.15196    28.697896   -251.45406    2074.9214    109801.01    10.472245   0.18500406 
   12200   -277.60389    34.091612   -243.51228     2464.899    121114.25    10.472245   0.16785976 
   12300    -274.7661    28.293876   -246.47223    2045.7098    122986.69    10.472245   0.19292068 
   12400   -280.39711    28.969328   -251.42778    2094.5465    106087.48    10.472245    0.1785929 
   12500   -276.44503    33.264877   -243.18016    2405.1242    122783.79    10.472245    0.2145246 
   12600   -275.11541    30.278154   -244.83726    2189.1775    127285.64    10.472245   0.20594125 
   12700   -278.34948    25.209014   -253.14046    1822.6674    110511.91    10.472245   0.17020908 
   12800   -278.72964    30.621492   -248.10815    2214.0016    113451.69    10.472245   0.17622244 
   12900   -276.14069    31.607846   -244.53285    2285.3172    122869.61    10.472245   0.23703196 
   13000   -274.73459    31.784207   -242.95038    2298.0684    126409.04    10.472245   0.25531509 
   13100    -280.4191    29.747513   -250.67159     2150.811    107260.24    10.472245    0.1571083 
   13200   -276.29164    31.696724   -244.59492    2291.7433    124717.92    10.472245   0.17172827 
   13300   -274.66525    29.157501   -245.50775    2108.1518    126197.03    10.472245   0.20979034 
   13400   -278.43011    29.529421   -248.90069    2135.0425    116593.43    10.472245   0.18634482 
   13500   -279.80818    31.638765   -248.16942    2287.5527    113376.65    10.472245   0.17739376 
   13600   -273.98444    30.906772   -243.07767     2234.628    128589.05    10.472245   0.21519555 
   13700   -276.21848    25.888865   -250.32961    1871.8222    120355.71    10.472245    0.1991326 
   13800   -278.30631    27.359794   -250.94651    1978.1736    114576.37    10.472245   0.16065956 
   13900   -276.17896    30.010131   -246.16883    2169.7988    120736.45    10.472245   0.18786362 
   14000   -273.68403    30.731123    -242.9529    2221.9282    130282.73    10.472245   0.18506066 
   14100   -276.18425    25.481957   -250.70229    1842.4019    119475.12    10.472245   0.18431621 
   14200   -272.19896    28.213535   -243.98543     2039.901     131982.6    10.472245   0.22364426 
   14300    -274.6791    30.662214   -244.01689    2216.9459    126404.55    10.472245   0.23580199 
   14400    -275.6789    30.960455   -244.71845    2238.5094    121962.99    10.472245   0.20662088 
   14500   -280.96367    28.453568   -252.51011    2057.2559    107937.33    10.472245   0.19259689 
   14600   -278.03518    33.506999   -244.52818    2422.6302    118360.95    10.472245   0.15488359 
   14700   -273.77012    27.883238   -245.88688    2016.0197    128572.01    10.472245   0.19623816 
   14800   -278.32313    26.998257   -251.32487    1952.0337    111834.79    10.472245   0.17024033 
   14900   -275.81937    29.249805   -246.56956    2114.8256    122885.48    10.472245   0.20688643 
   15000   -273.25348    31.584456   -241.66902     2283.626    131221.84    10.472245   0.28429973 
   15100    -273.3557    27.291144   -246.06456    1973.2101    126352.42    10.472245   0.22601874 
   15200   -278.12641    28.727847   -249.39856    2077.0868    114144.69    10.472245    0.1774989 
   15300   -273.13357    32.476206   -240.65737    2348.1016    133401.45    10.472245   0.24744757 
   15400   -276.16268    32.658736   -243.50394    2361.2988     123494.7    10.472245   0.17351095 
   15500   -276.59462     27.33012    -249.2645    1976.0281    118843.33    10.472245   0.20573735 
   15600   -274.47559    27.739889    -246.7357    2005.6554    126043.23    10.472245   0.21905723 
   15700   -275.89729    30.826734   -245.07056    2228.8411    121420.51    10.472245   0.21158793 
   15800   -277.82532    28.031066   -249.79425    2026.7081    115697.43    10.472245   0.16693463 
   15900   -280.15349    31.317292    -248.8362    2264.3095    110166.62    10.472245    0.1484174 
   16000   -273.13201    29.681246   -243.45076    2146.0197    133536.87    10.472245   0.20544143 
   16100    -279.0852    29.838179   -249.24703    2157.3663    114185.53    10.472245   0.14970935 
   16200   -277.12749     29.11472   -248.01277    2105.0586    119884.11    10.472245   0.16909578 
   16300    -275.2976    32.723737   -242.57386    2365.9986    124402.06    10.472245   0.17569181 
   16400   -279.24107    29.577507   -249.66357    2138.5192    112156.76    10.472245   0.16733099 
   16500   -274.77627    30.726667    -244.0496     2221.606    123952.78    10.472245    0.2207319 
   16600   -274.98865    34.792752    -240.1959    2515.5929    128387.92    10.472245   0.20976073 
   16700   -278.40116    30.388094   -248.01307    2197.1264    115394.42    10.472245   0.18113638 
   16800   -273.17323    28.149173   -245.02406    2035.2475    131011.93    10.472245    0.2248584 
   16900    -269.9818    30.260454   -239.72134    2187.8977    138472.48    10.472245   0.22352732 
   17000   -276.58186    29.677762    -246.9041    2145.7679    120434.47    10.472245   0.21927921 
   17100   -275.60653    30.398786   -245.20775    2197.8995     123615.6    10.472245    0.1764481 
   17200   -276.22342    32.431833   -243.79158    2344.8932     122569.7    10.472245   0.21483186 
   17300   -276.34884    30.610239    -245.7386     2213.188    121283.86    10.472245   0.21028933 
   17400    -273.3171    24.876811   -248.44029    1798.6485    126103.57    10.472245   0.25615881 
   17500   -274.59669     31.83168   -242.76501    2301.5009    128213.39    10.472245   0.21849325 
   17600   -274.55808    32.083389   -242.47469       2319.7    127734.41    10.472245   0.17777988 
   17700   -281.02455    34.507984   -246.51657    2495.0035    110084.52    10.472245   0.14187258 
   17800   -272.44456    26.976716   -245.46785    1950.4762    131155.78    10.472245   0.21012194 
   17900   -275.04833    31.178027   -243.87031    2254.2403    125464.44    10.472245   0.20885243 
   18000   -277.72291     28.45115   -249.27176    2057.0811    115766.16    10.472245   0.24675455 
   18100   -273.31544    30.341751   -242.97369    2193.7757    130689.88    10.472245   0.22347443 
   18200   -276.37662    33.537125    -242.8395    2424.8083    124462.39    10.472245   0.19325481 
   18300   -278.56145    30.860239   -247.70121    2231.2635    114787.78    10.472245   0.20484849 
   18400   -275.55727    30.050439   -245.50683    2172.7132    123934.68    10.472245   0.18787578 
   18500   -277.12855    31.498938   -245.62961    2277.4429    118770.25    10.472245   0.17255823 
   18600   -280.96156    27.085276   -253.87628    1958.3254    104569.57    10.472245   0.15292179 
   18700   -276.51436     29.51031   -247.00405    2133.6607    121761.35    10.472245   0.16717563 
   18800   -275.56529    31.016804   -244.54849    2242.5835    126568.72    10.472245   0.19608519 
   18900   -277.63254    29.025537     -248.607    2098.6105    115933.82    10.472245    0.1923056 
   19000   -278.17958    30.333254   -247.84633    2193.1614    115344.29    10.472245    0.1855608 
   19100   -275.79443    32.160075   -243.63436    2325.2446     125522.4    10.472245   0.17463104 
   19200   -280.47438    31.505042   -248.96933    2277.8842    109337.61    10.472245   0.15974015 
   19300   -273.31041     33.20434   -240.10607    2400.7472    129476.64    10.472245   0.19778069 
   19400   -278.87481    34.700682   -244.17413    2508.9361    115023.27    10.472245   0.18420436 
   19500   -278.52704      30.6418   -247.88524    2215.4699    115042.78    10.472245   0.14655038 
   19600   -275.67291    29.305141   -246.36777    2118.8265    123652.26    10.472245   0.22888177 
   19700   -276.72831    35.840705    -240.8876    2591.3623     123676.4    10.472245   0.21230591 
   19800   -279.39068    29.532163   -249.85852    2135.2407    112582.08    10.472245   0.14635289 
   19900   -275.83146    28.849701   -246.98176    2085.8972    120649.26    10.472245   0.24691079 
   20000    -273.0592    29.438451   -243.62075    2128.4652    128730.58    10.472245   0.28984011 
   20100   -274.48173    29.111647   -245.37008    2104.8364    126927.87    10.472245   0.21718801 
   20200   -280.94151    26.417512     -254.524    1910.0446     104556.8    10.472245   0.16035636 
   20300   -279.36005    29.776532   -249.58352    2152.9091    113258.51    10.472245   0.18255124 
   20400   -275.13167    30.738379    -244.3933    2222.4528    123998.96    10.472245   0.16174981 
   20500   -276.21854    27.765855   -248.45268    2007.5328    121958.62    10.472245    0.1607393 
   20600    -278.5879    27.902775   -250.68512    2017.4324    112417.37    10.472245   0.16923215 
   20700   -272.81341    27.413999   -245.39942    1982.0928    130772.89    10.472245   0.21432284 
   20800   -275.83346    30.038654    -245.7948    2171.8611    122865.77    10.472245   0.18423864 
   20900   -278.68577    27.770668    -250.9151    2007.8807    113947.68    10.472245   0.19883195 
   21000   -274.77907     31.21333   -243.56574    2256.7928    126453.32    10.472245   0.21581973 
   21100   -275.19517    31.223774    -243.9714    2257.5479    127189.76    10.472245   0.17715498 
   21200   -275.48291    28.072331   -247.41058    2029.6916    123972.19    10.472245   0.18796188 
   21300   -278.50208    32.084799   -246.41728    2319.8019     114823.4    10.472245   0.16249925 
   21400    -270.8397    27.192784   -243.64692    1966.0984    134478.08    10.472245   0.22480206 
   21500   -273.63971     35.48173   -238.15798    2565.4075    133124.94    10.472245   0.21771823 
   21600   -276.28606    30.042986   -246.24307    2172.1744    120301.09    10.472245   0.16499095 
   21700   -277.46377    30.717965    -246.7458    2220.9768    118136.49    10.472245     0.159351 
   21800   -271.91168    31.905019   -240.00667    2306.8034    135146.62    10.472245   0.24960181 
   21900   -275.85561    30.483773   -245.37183    2204.0442     121203.4    10.472245   0.20416193 
   22000   -278.82143     29.95675   -248.86468    2165.9393    112809.46    10.472245   0.16843759 
   22100    -273.2962     30.25079   -243.04541     2187.199    130145.79    10.472245   0.20405564 
   22200   -277.21362    36.908402   -240.30522    2668.5591    123365.08    10.472245   0.17619324 
   22300   -275.59203    26.550671   -249.04136    1919.6723    120279.85    10.472245   0.16612579 
   22400   -278.83353     32.36332   -246.47021    2339.9396    115814.31    10.472245   0.19127519 
   22500   -273.17312    31.548241   -241.62488    2281.0076    133000.86    10.472245   0.18577679 
   22600   -274.36716     28.02249   -246.34467     2026.088     126189.9    10.472245   0.18123404 
   22700   -274.51229    25.101713   -249.41058    1814.9094     125187.9    10.472245   0.20999398 
   22800   -274.58012    33.140398   -241.43972    2396.1241    127833.03    10.472245   0.21273614 
   22900   -277.16134    30.799732   -246.36161    2226.8887    118875.88    10.472245   0.18012221 
   23000   -277.79702    28.474438   -249.32258    2058.7648    115963.81    10.472245   0.18926094 
   23100   -277.90891    33.376305   -244.53261    2413.1807    117628.93    10.472245   0.14841387 
   23200   -274.45332    28.627478   -245.82584      2069.83    125771.99    10.472245   0.16941543 
   23300   -275.65577    30.473019   -245.18275    2203.2667     126617.4    10.472245   0.17767656 
   23400   -276.87036    30.272861    -246.5975    2188.7948     121155.5    10.472245   0.20459469 
   23500   -277.99008     31.18109   -246.80899    2254.4618    117798.62    10.472245   0.24074714 
   23600   -273.95247     33.86275   -240.08972    2448.3517    130898.57    10.472245      0.20708 
   23700    -279.9443     30.43519   -249.50911    2200.5316    109988.77    10.472245    0.1565597 
   23800   -279.32684    33.266712   -246.06013    2405.2568    115364.24    10.472245   0.17412194 
   23900   -274.84646    32.902986   -241.94347    2378.9586    128930.94    10.472245   0.22973995 
   24000   -278.08973    33.620675   -244.46905    2430.8492    117494.67    10.472245   0.17834966 
   24100   -275.27401    26.802246   -248.47176    1937.8617    122345.73    10.472245   0.22602516 
   24200   -271.88673    30.924631    -240.9621    2235.9192    136509.27    10.472245   0.25392197 
   24300   -278.43653    33.939752   -244.49678    2453.9192    116896.47    10.472245   0.18160645 
   24400   -279.56551    29.654829   -249.91068    2144.1097    111380.72    10.472245   0.19861615 
   24500   -281.56589      26.6649   -254.90099    1927.9313    103319.37    10.472245   0.12593488 
   24600   -279.77874    34.407156   -245.37159    2487.7135    110912.87    10.472245   0.18860054 
   24700   -274.52836    32.008818   -242.51954    2314.3084    127757.09    10.472245   0.18080995 
   24800   -281.08014    30.564102   -250.51604    2209.8522    108284.75    10.472245   0.13761074 
   24900   -274.09036    27.181349   -246.90902    1965.2717    126421.86    10.472245   0.19529399 
   25000    -275.9411     32.47903   -243.46207    2348.3057    123545.34    10.472245   0.20598115 
   25100   -278.92642    31.485084   -247.44134    2276.4412    114772.96    10.472245   0.17792617 
   25200   -280.50536    27.111811   -253.39355    1960.2439    107285.87    10.472245   0.17914727 
   25300   -276.95684    31.443765   -245.51307    2273.4538    122263.82    10.472245   0.17178715 
   25400    -274.1511    29.415742   -244.73536    2126.8232    128198.83    10.472245   0.18711939 
   25500    -280.7662    28.515527   -252.25068    2061.7357    107154.28    10.472245   0.14153795 
   25600   -274.86643      31.6054   -243.26103    2285.1403    128774.65    10.472245   0.21479293 
   25700   -277.57729    31.118917   -246.45837    2249.9665    118827.77    10.472245   0.24085993 
   25800    -271.8993    26.189673   -245.70963    1893.5713    132605.03    10.472245   0.24675618 
   25900    -273.0753    34.270837   -238.80446    2477.8573    131988.34    10.472245    0.2122895 
   26000   -277.07858    31.100655   -245.97793    2248.6462    120425.77    10.472245   0.19301373 
   26100   -279.57401    31.395492   -248.17852    2269.9635    110344.64    10.472245   0.16163884 
   26200   -277.33931     32.03368   -245.30563    2316.1059     118854.7    10.472245   0.18539737 
   26300   -271.37665     30.48853   -240.88812    2204.3882     137438.2    10.472245   0.23913313 
   26400   -278.80169     29.28517   -249.51652    2117.3826    114720.73    10.472245   0.22046671 
   26500     -275.589    30.982473   -244.60652    2240.1013    121102.16    10.472245   0.19893863 
   26600   -275.17854    30.192643    -244.9859    2182.9949    124683.57    10.472245   0.20812657 
   26700   -274.53964    28.994648   -245.54499    2096.3772    123903.71    10.472245   0.19632452 
   26800   -272.95466    27.174386   -245.78028    1964.7682    129175.07    10.472245   0.24264415 
   26900   -276.02458    28.939159   -247.08542    2092.3652    123124.19    10.472245   0.20055727 
   27000   -278.92551    36.162321   -242.76319    2614.6158    116977.72    10.472245   0.19872081 
   27100   -277.18139    33.003675   -244.17772    2386.2387    118822.73    10.472245   0.19678442 
   27200   -279.38647    29.472028   -249.91444    2130.8928    109961.45    10.472245   0.15934221 
   27300   -275.04854    31.369119   -243.67942    2268.0567    125036.86    10.472245   0.18149272 
   27400   -274.77649    30.654224   -244.12227    2216.3682    123997.63    10.472245   0.25419904 
   27500   -275.10423    30.808431    -244.2958    2227.5177     124752.9    10.472245   0.18535278 
   27600   -279.21691    26.200266   -253.01665    1894.3372    109856.98    10.472245   0.16275626 
   27700   -277.38328    31.038653   -246.34463    2244.1633    118565.65    10.472245   0.16240201 
   27800   -277.68351    32.727294   -244.95622    2366.2558    119943.28    10.472245    0.1896066 
   27900   -280.27481    30.787678   -249.48714    2226.0172    108509.69    10.472245   0.14931848 
   28000   -277.76587    29.324719   -248.44116     2120.242    116774.85    10.472245   0.17698505 
   28100   -273.47751    30.155373   -243.32213    2180.3002    129381.84    10.472245   0.23673025 
   28200   -278.57729    29.257964   -249.31932    2115.4155    114617.08    10.472245   0.16273781 
   28300   -282.17736    29.971465   -252.20589    2167.0032    102172.26    10.472245   0.13358868 
   28400   -274.09063    28.642483   -245.44814    2070.9149    126915.22    10.472245   0.18841518 
   28500   -276.13995    30.907392   -245.23255    2234.6728    124298.67    10.472245   0.23586791 
   28600   -278.33303    27.941118   -250.39191    2020.2046    113232.73    10.472245   0.18725319 
   28700   -274.85387    31.513521   -243.34035    2278.4973    126121.89    10.472245   0.22153671 
   28800   -274.59741    30.926883   -243.67053     2236.082    125715.08    10.472245   0.20179757 
   28900   -276.87582    27.389735   -249.48608    1980.3384    118002.09    10.472245   0.17040617 
   29000    -274.3099    34.889921   -239.41998    2522.6185    129214.46    10.472245   0.19467263 
   29100   -277.23229    31.054666   -246.17762     2245.321    118340.21    10.472245   0.17370167 
   29200   -281.65195    32.535207   -249.11675    2352.3674    106578.06    10.472245   0.14907206 
   29300   -274.67589    34.391742   -240.28415     2486.599    127895.75    10.472245   0.25160982 
   29400   -274.63104    30.578982   -244.05206     2210.928    126203.91    10.472245   0.20909403 
   29500   -278.70156    31.314564     -247.387    2264.1123    115937.24    10.472245    0.1960407 
   29600   -277.43244    34.114337    -243.3181     2466.542    120021.86    10.472245   0.18495915 
   29700   -271.54698    33.292406   -238.25457    2407.1146    138088.65    10.472245    0.2297182 
   29800   -278.37128    31.712508   -246.65877    2292.8845     114331.5    10.472245   0.19165034 
   29900   -276.02162    31.185787   -244.83584    2254.8014    122781.46    10.472245   0.20003332 
   30000   -272.59169    31.201763   -241.38993    2255.9565    132348.04    10.472245   0.21963842 
   30100    -279.3758    29.722709   -249.65309    2149.0176    109697.05    10.472245   0.13426783 
   30200   -274.45518    27.549977    -246.9052    1991.9243    127961.25    10.472245    0.1841722 
   30300   -273.57367     36.46066   -237.11301    2636.1863    133335.25    10.472245   0.23325034 
   30400    -272.8009    37.771301    -235.0296    2730.9486    135316.89    10.472245   0.30328021 
   30500   -276.77813     31.21478   -245.56335    2256.8976    119199.91    10.472245   0.22441654 
   30600    -276.3487    29.438126   -246.91057    2128.4416    118335.29    10.472245   0.19397442 
   30700   -272.40599    33.569925   -238.83607    2427.1798    135487.83    10.472245   0.22325837 
   30800   -279.92353    32.196006   -247.72752    2327.8425    111979.06    10.472245    0.1689323 
   30900   -276.67753    28.986262   -247.69127    2095.7708    120201.78    10.472245   0.21741546 
   31000   -277.07233    36.086403   -240.98593    2609.1268    121976.95    10.472245   0.18082031 
   31100   -282.97613    31.759516   -251.21661    2296.2832    101546.06    10.472245    0.1267181 
   31200   -279.56922    31.911256   -247.65796    2307.2544     115163.7    10.472245   0.17895331 
   31300   -275.41451    31.311395   -244.10312    2263.8831     125213.5    10.472245   0.21216983 
   31400   -277.98417     29.54368   -248.44049    2136.0734    115375.77    10.472245    0.2044783 
   31500   -282.56783    30.009654   -252.55818    2169.7644    103243.15    10.472245   0.14375179 
   31600   -278.44175    33.553109   -244.88864     2425.964    118989.42    10.472245   0.16828694 
   31700   -273.74779    27.283175   -246.46462    1972.6339    127483.69    10.472245   0.21958236 
   31800    -279.6988    27.039825   -252.65897    1955.0392     108948.9    10.472245   0.15241082 
   31900   -275.87642    31.770391   -244.10603    2297.0696    123944.23    10.472245   0.20184893 
   32000   -280.16256    33.938069   -246.22449    2453.7974    111156.72    10.472245   0.20523621 
   32100    -278.4563    31.134044   -247.32225    2251.0603    115009.44    10.472245   0.19651403 
   32200   -273.66741    33.510656   -240.15675    2422.8945    131139.99    10.472245   0.33429201 
   32300   -277.34296    28.486857    -248.8561    2059.6628    117974.24    10.472245   0.18943793 
   32400   -277.33927    29.273317   -248.06596    2116.5256    115807.44    10.472245   0.24168064 
   32500   -274.62444    32.289013   -242.33543     2334.567    127585.29    10.472245   0.18987121 
   32600   -276.32959    30.178658   -246.15094    2181.9837    121976.48    10.472245   0.18214522 
   32700   -277.06516    30.643038   -246.42212    2215.5595    116522.08    10.472245    0.1744742 
   32800   -277.86423    31.653294   -246.21094    2288.6032    117657.11    10.472245   0.16278291 
   32900   -274.69983    28.150117   -246.54972    2035.3157    122745.04    10.472245   0.21861701 
   33000   -271.39095    28.110349    -243.2806    2032.4404     134673.5    10.472245    0.2501284 
   33100   -274.61443    32.814073   -241.80035    2372.5301    129796.77    10.472245   0.18929793 
   33200   -280.39905     31.40305     -248.996      2270.51    112038.96    10.472245   0.13211641 
   33300   -276.19293    32.545587   -243.64734    2353.1179     122224.9    10.472245   0.19307351 
   33400   -270.02138    35.026511   -234.99487    2532.4942    141441.52    10.472245   0.24968559 
   33500   -276.84489    33.141877   -243.70301     2396.231    119653.88    10.472245   0.19952243 
   33600   -275.91006    28.466446   -247.44361     2058.187    121216.05    10.472245   0.24529905 
   33700   -272.94901    33.980102   -238.96891    2456.8365    132523.33    10.472245   0.36635824 
   33800   -267.80753    32.790676   -235.01685    2370.8384    146442.34    10.472245   0.35119942 
   33900   -272.46116    29.196914   -243.26425    2111.0015    131170.49    10.472245   0.21280537 
   34000   -276.76931    28.527856   -248.24145    2062.6271    119881.03    10.472245   0.21757104 
   34100   -272.66306    33.820056     -238.843    2445.2648    135269.84    10.472245   0.25325585 
   34200   -274.54252    32.511053   -242.03147     2350.621    128664.54    10.472245   0.20328935 
   34300   -275.01854    27.844034   -247.17451    2013.1853    125356.12    10.472245   0.19330565 
   34400   -277.09195     32.89889   -244.19306    2378.6626    120103.18    10.472245   0.18153524 
   34500   -271.36868    31.541188   -239.82749    2280.4977    138094.69    10.472245   0.23836476 
   34600   -276.36573    27.920736     -248.445     2018.731    117026.38    10.472245    0.1872612 
   34700   -275.74316    31.692949   -244.05021    2291.4703     124835.3    10.472245   0.22261106 
   34800   -272.02265    29.948369   -242.07428    2165.3333    132680.72    10.472245   0.23886411 
   34900   -279.51041    29.626764   -249.88365    2142.0806    110194.25    10.472245   0.14438414 
   35000   -274.30897    30.909349   -243.39962    2234.8143    126101.58    10.472245   0.18349232 
   35100   -279.57538    31.063061   -248.51232     2245.928    110261.43    10.472245   0.19850391 
   35200   -279.87642    30.819374   -249.05705    2228.3089    110696.72    10.472245   0.17143643 
   35300   -278.35545     33.81934   -244.53611    2445.2131    119764.61    10.472245   0.17180125 
   35400   -273.95885    27.930624   -246.02823    2019.4459    127722.97    10.472245   0.21749987 
   35500   -275.83238    30.645822   -245.18656    2215.7607     121236.4    10.472245   0.17492711 
   35600   -275.85553    30.143032    -245.7125    2179.4079     122440.7    10.472245    0.2253642 
   35700   -277.20867    30.759406   -246.44926    2223.9731     117570.6    10.472245   0.21847849 
   35800   -272.34295    31.311553    -241.0314    2263.8945    132671.59    10.472245   0.20094835 
   35900   -276.03342    27.211601   -248.82182     1967.459    118497.49    10.472245   0.22479636 
   36000   -273.91466    27.930356    -245.9843    2019.4265    127553.08    10.472245   0.19129957 
   36100   -273.28927    31.063761   -242.22551    2245.9786    130814.95    10.472245   0.22815237 
   36200   -274.07816    28.990657    -245.0875    2096.0886    128442.87    10.472245   0.22470711 
   36300   -278.67037    31.238875   -247.43149    2258.6397    113882.21    10.472245   0.16767964 
   36400   -276.91664    28.760634     -248.156    2079.4574     115263.8    10.472245   0.19657528 
   36500   -272.56295    32.376228   -240.18672    2340.8729    134170.81    10.472245   0.22739604 
   36600   -279.45961    33.431506    -246.0281    2417.1718    114268.95    10.472245   0.16174418 
   36700    -278.7712      31.3212      -247.45     2264.592    114938.85    10.472245   0.15823352 
   36800    -274.9768    30.081391   -244.89541    2174.9511    127366.44    10.472245   0.19813021 
   36900   -273.86914    32.945458   -240.92369    2382.0295       131277    10.472245   0.18692903 
   37000   -272.95462    25.251326    -247.7033    1825.7267    130349.64    10.472245   0.28701117 
   37100   -271.56555    27.554888   -244.01066    1992.2794    136928.74    10.472245   0.22614808 
   37200   -277.42702     26.76261   -250.66441    1934.9959    115945.65    10.472245    0.1612378 
   37300   -276.52851    28.245947   -248.28256    2042.2444    118905.21    10.472245   0.22299842 
   37400   -276.13929    31.157281   -244.98201    2252.7403    122775.84    10.472245   0.19461327 
   37500   -277.61648    29.148405   -248.46807    2107.4942    116587.65    10.472245   0.16408119 
   37600   -279.69775    28.155442   -251.54231    2035.7007    109080.41    10.472245   0.16161628 
   37700   -275.73961    32.246049   -243.49356    2331.4607    122920.07    10.472245   0.17765813 
   37800   -278.23971    31.207358   -247.03235     2256.361    115383.44    10.472245   0.22677354 
   37900   -277.40495     27.72795     -249.677    2004.7921    116411.61    10.472245   0.18081926 
   38000    -278.6194    34.609441   -244.00996    2502.3391    118056.88    10.472245   0.15169417 
   38100    -273.9386    29.108613   -244.82999    2104.6171    129861.03    10.472245    0.1785826 
   38200   -276.91159    26.252993   -250.65859    1898.1495    116620.01    10.472245   0.18403758 
   38300   -276.65337    32.833518   -243.81985     2373.936    123216.73    10.472245   0.18043695 
   38400   -276.05354    30.341617   -245.71192     2193.766    122130.25    10.472245   0.16495147 
   38500   -277.05442    24.816739   -252.23768    1794.3051    115705.66    10.472245    0.1903541 
   38600   -276.87207    31.994078   -244.87799    2313.2426     122555.6    10.472245   0.17058574 
   38700   -276.17716     28.59036    -247.5868    2067.1463     120670.2    10.472245    0.2032413 
   38800   -278.47652    26.474763   -252.00175    1914.1839    111520.12    10.472245   0.19304107 
   38900    -276.0567    33.255736   -242.80096    2404.4633    125605.88    10.472245    0.1998462 
   39000   -272.77968    25.249265   -247.53042    1825.5777    128333.38    10.472245    0.2825922 
   39100   -276.87723    31.156973   -245.72026     2252.718    120338.82    10.472245   0.24180156 
   39200   -272.07679    30.793771   -241.28302    2226.4577    135677.93    10.472245   0.22624761 
   39300   -280.34941    31.930583   -248.41883    2308.6518    111444.72    10.472245   0.14695633 
   39400   -274.32656     28.68152   -245.64504    2073.7374    123118.05    10.472245   0.22270688 
   39500   -269.71695     32.86899   -236.84796    2376.5007    140595.81    10.472245   0.26387747 
   39600   -274.01141    34.281999   -239.72941    2478.6643    132935.39    10.472245   0.23228722 
   39700   -278.32092    30.294356   -248.02656     2190.349    116654.85    10.472245   0.18662044 
   39800   -278.30004    30.736424   -247.56361    2222.3115    116886.24    10.472245   0.19059335 
   39900   -275.79143    35.593119   -240.19831    2573.4612    124197.08    10.472245   0.23017334 
   40000   -278.47658    30.064104   -248.41248    2173.7012    114769.71    10.472245   0.17604015 
   40100   -275.54678    28.129848   -247.41693    2033.8502    122292.71    10.472245   0.19839418 
   40200   -272.82303     31.47261   -241.35042    2275.5393    134917.64    10.472245   0.16973984 
   40300   -275.15061    24.305002   -250.84561    1757.3054    122091.25    10.472245   0.25089923 
   40400   -274.85845    31.216233   -243.64221    2257.0027    127427.49    10.472245    0.2014129 
   40500   -273.12108    26.860945   -246.26014    1942.1058    128779.41    10.472245   0.23615439 
   40600   -279.23603     27.20091   -252.03512     1966.686     108964.7    10.472245   0.18019041 
   40700   -278.51343    28.518025    -249.9954    2061.9163    114458.63    10.472245   0.14343148 
   40800   -277.69754     34.41155   -243.28599    2488.0312    118512.61    10.472245   0.17564156 
   40900   -274.89218     27.78724   -247.10494    2009.0789    123814.49    10.472245    0.1896933 
   41000   -275.96196    25.241748   -250.72021    1825.0342    119283.14    10.472245   0.19942576 
   41100   -278.37307    32.661543   -245.71153    2361.5018    117504.75    10.472245   0.18919839 
   41200   -275.83079    30.710952   -245.11984    2220.4698    121619.09    10.472245    0.1902481 
   41300   -279.12528    31.819502   -247.30578    2300.6204    113456.82    10.472245    0.1775291 
   41400    -278.6866    31.390019   -247.29658    2269.5678    113960.46    10.472245    0.1689566 
   41500   -270.88756     30.63196    -240.2556    2214.7585    138969.11    10.472245   0.31414776 
   41600   -277.60607    35.396225   -242.20984    2559.2253    119841.87    10.472245   0.20818969 
   41700   -272.97599    25.096902   -247.87909    1814.5615     127504.9    10.472245   0.25360784 
   41800   -272.90016    31.134722   -241.76543    2251.1093    132853.98    10.472245   0.21291943 
   41900   -280.50341     30.83775   -249.66566    2229.6376    109018.15    10.472245   0.14766476 
   42000   -279.03794    31.114537   -247.92341    2249.6499    112901.21    10.472245   0.17386884 
   42100    -275.9579    32.903378   -243.05452     2378.987    122168.93    10.472245   0.23292862 
   42200   -277.91912    33.083299   -244.83582    2391.9957    118113.58    10.472245   0.16730325 
   42300   -276.46083    29.836652   -246.62418    2157.2559    120853.95    10.472245   0.18202894 
   42400   -276.73231    34.549893   -242.18242    2498.0337    122659.93    10.472245   0.14997056 
   42500   -274.91131    31.547001   -243.36431     2280.918    124335.64    10.472245   0.22296832 
   42600   -279.55462    32.119307   -247.43532     2322.297    112749.72    10.472245    0.1534548 
   42700   -273.72809    32.956468   -240.77162    2382.8255    131538.45    10.472245   0.21846349 
   42800   -275.11132    31.513457   -243.59787    2278.4926    126291.08    10.472245    0.2175028 
   42900   -277.95878    31.625384   -246.33339    2286.5852    115190.85    10.472245   0.19187124 
   43000   -276.92843    30.342088   -246.58634    2193.8001    119539.73    10.472245   0.19119009 
   43100   -276.62248    28.402503   -248.21998    2053.5638    120234.77    10.472245   0.18368984 
   43200   -275.51303    31.423158   -244.08987    2271.9638    125039.34    10.472245   0.23787971 
   43300   -270.36617    32.043095   -238.32307    2316.7867     137800.7    10.472245    0.3418075 
   43400   -278.28038    30.019496   -248.26088     2170.476     116150.6    10.472245   0.17346827 
   43500   -272.92855    28.587629   -244.34092    2066.9488    131563.95    10.472245   0.26336524 
   43600   -273.42955    32.109487   -241.32006    2321.5869     132511.4    10.472245   0.23480145 
   43700    -278.2006    28.417737   -249.78286    2054.6653    112553.81    10.472245   0.21425554 
   43800   -273.97328    29.912857   -244.06042    2162.7658    127419.59    10.472245   0.20800497 
   43900   -275.05323    29.917401   -245.13582    2163.0943    124770.35    10.472245   0.22386487 
   44000   -276.69259    26.738753   -249.95384     1933.271    117524.95    10.472245   0.19616017 
   44100   -276.93925     33.99759   -242.94166     2458.101    121386.96    10.472245   0.17136943 
   44200   -276.26099    30.959295    -245.3017    2238.4255    121431.68    10.472245    0.2297624 
   44300   -279.60466    26.377586   -253.22707    1907.1578    110567.42    10.472245   0.16929046 
   44400   -277.18322    30.310233   -246.87299    2191.4969    117530.15    10.472245   0.21243227 
   44500   -275.28857    32.694419   -242.59415    2363.8788    125786.93    10.472245   0.22182333 
   44600   -281.11437    31.232736   -249.88164    2258.1959    106622.35    10.472245   0.15046514 
   44700   -277.06065    29.323579   -247.73707    2120.1596    119515.07    10.472245   0.15733022 
   44800   -275.62995    31.555417   -244.07453    2281.5265    123580.89    10.472245   0.18272616 
   44900   -277.71589    31.539822   -246.17607    2280.3989    117121.69    10.472245   0.21447572 
   45000   -276.54871    30.546224   -246.00248    2208.5596    121902.27    10.472245   0.19595644 
   45100    -271.4129    33.176757   -238.23615    2398.7529    134181.05    10.472245   0.27272685 
   45200   -278.15033    33.738037   -244.41229    2439.3347    119202.04    10.472245   0.17803895 
   45300   -277.18815    28.197901   -248.99025    2038.7706    117498.23    10.472245   0.16414559 
   45400   -273.55988    31.324324   -242.23555    2264.8179    130608.48    10.472245   0.19026878 
   45500   -280.25988    33.447218   -246.81267    2418.3079    111815.89    10.472245   0.15067859 
   45600   -279.16285    30.949439   -248.21341    2237.7129     110092.8    10.472245   0.16654805 
   45700   -272.96546    31.305587   -241.65987    2263.4632    132438.28    10.472245   0.21754301 
   45800   -277.20884    27.968209   -249.24063    2022.1633    117261.08    10.472245   0.20823422 
   45900   -275.32502    27.057213   -248.26781    1956.2964    128735.45    10.472245   0.18493094 
   46000    -276.1631    31.520074   -244.64302    2278.9711    125112.17    10.472245   0.15490382 
   46100   -278.92683     32.66882   -246.25801    2362.0279    112307.77    10.472245   0.22206634 
   46200   -270.20122     33.40776   -236.79346    2415.4549    140522.22    10.472245   0.33868573 
   46300   -270.51659     28.11272   -242.40387    2032.6118     138836.4    10.472245   0.23881562 
   46400   -277.39137    30.120961   -247.27041    2177.8121    116771.16    10.472245   0.20013715 
   46500   -278.20153    28.295193   -249.90634     2045.805    112887.91    10.472245   0.18769541 
   46600    -270.8728    29.224285   -241.64851    2112.9805    136009.06    10.472245   0.25123831 
   46700   -280.44818    35.072371   -245.37581      2535.81    111410.81    10.472245   0.14738634 
   46800   -275.95809    28.110408   -247.84768    2032.4447    119558.62    10.472245   0.18663445 
   46900   -271.19293    30.163823    -241.0291    2180.9112    138410.54    10.472245   0.24318196 
   47000   -274.01816    31.715251   -242.30291    2293.0828    129508.02    10.472245   0.21594076 
   47100    -277.0158    31.309237   -245.70656    2263.7271    120195.38    10.472245   0.18900508 
   47200   -275.96425    30.354155    -245.6101    2194.6725    120196.87    10.472245   0.21005195 
   47300   -270.41628    29.994833   -240.42145    2168.6928    139398.17    10.472245   0.27913802 
   47400   -277.62077    28.917235   -248.70353      2090.78    118666.03    10.472245   0.16690378 
   47500   -276.52183    29.001954   -247.51987    2096.9054    118948.57    10.472245   0.20655599 
   47600   -275.46067    33.546257   -241.91441    2425.4686    123754.99    10.472245   0.23661248 
   47700    -276.7434    30.104053   -246.63934    2176.5896    117783.25    10.472245   0.20725608 
   47800   -276.97896    30.871542   -246.10742    2232.0808    120582.55    10.472245    0.2010466 
   47900   -274.23187    39.566932   -234.66494    2860.7767    132055.96    10.472245   0.18257507 
   48000   -276.91771    32.132913    -244.7848    2323.2807     122197.4    10.472245   0.18665005 
   48100   -279.15048    30.786876    -248.3636    2225.9593    112509.15    10.472245   0.20045208 
   48200   -272.50971    32.170097   -240.33961    2325.9692    134629.77    10.472245   0.24391731 
   48300   -276.84481     31.83154   -245.01327    2301.4908    125112.81    10.472245   0.22223076 
   48400   -278.63617    31.773662    -246.8625     2297.306    114746.27    10.472245   0.17747447 
   48500   -277.40678    29.528747   -247.87803    2134.9937     116898.4    10.472245    0.1923208 
   48600   -271.85076    29.000446   -242.85031    2096.7964    136420.98    10.472245   0.22057847 
   48700   -275.39523    29.633039   -245.76219    2142.5342    125608.06    10.472245   0.21156784 
   48800   -276.13873     28.02849   -248.11024    2026.5218    119693.13    10.472245   0.19103409 
   48900   -275.53246    33.750826   -241.78163    2440.2594    124039.64    10.472245   0.19023039 
   49000   -269.71885    35.509128   -234.20973    2567.3885    142534.91    10.472245   0.24474918 
   49100   -275.24026    30.558803   -244.68145    2209.4691    125597.62    10.472245    0.2085647 
   49200   -277.69174    28.894557   -248.79718    2089.1404    115749.75    10.472245   0.14807147 
   49300   -276.09959    33.473189    -242.6264    2420.1856    123306.36    10.472245   0.20395275 
   49400   -276.50439    32.668335   -243.83606    2361.9929    123705.29    10.472245   0.18867028 
   49500   -277.29467     30.44133   -246.85334    2200.9755    118942.85    10.472245   0.20898039 
   49600   -275.27222    30.741315    -244.5309    2222.6651    125114.75    10.472245   0.21182035 
   49700   -281.36197    30.530766   -250.83121    2207.4419    106700.34    10.472245   0.16700447 
   49800   -276.84778    30.125547   -246.72224    2178.1436    118310.32    10.472245   0.17533012 
   49900   -273.83497     29.82119   -244.01378     2156.138    128186.74    10.472245   0.19169817 
   50000    -281.3076    32.381695    -248.9259    2341.2682    107792.66    10.472245   0.14507625 
   50100   -281.46516    26.983595   -254.48157    1950.9736    106109.52    10.472245     0.145394 
   50200   -279.26006    32.417808   -246.84225    2343.8793    113896.57    10.472245   0.15931676 
   50300   -275.24073    32.866274   -242.37446    2376.3043    125729.32    10.472245   0.20935379 
   50400   -271.07372    30.338999   -240.73472    2193.5767    136622.45    10.472245   0.21708864 
   50500   -276.43939    27.661343   -248.77805    1999.9763    118442.59    10.472245   0.16851757 
   50600   -275.48905    32.233951    -243.2551    2330.5859    128150.28    10.472245    0.1814813 
   50700    -276.0854     33.50527   -242.58013    2422.5051    123846.62    10.472245   0.18131067 
   50800   -277.92924    31.398743   -246.53049    2270.1986    116981.82    10.472245   0.19597686 
   50900   -275.86655    26.883491   -248.98306    1943.7358    116436.55    10.472245   0.21784842 
   51000   -277.26243    29.735096   -247.52733    2149.9132    116868.66    10.472245   0.20129722 
   51100   -275.61792     33.87377   -241.74415    2449.1485     123762.6    10.472245   0.22595309 
   51200    -277.8195    27.766657   -250.05284    2007.5907    114484.67    10.472245   0.21030328 
   51300   -277.02217     28.81215   -248.21002    2083.1822    119449.55    10.472245   0.16997745 
   51400   -273.17932    28.199846   -244.97948    2038.9112    130601.03    10.472245   0.25161911 
   51500   -273.38169    27.716911   -245.66478     2003.994     127387.7    10.472245   0.22215127 
   51600   -277.85361    32.390381   -245.46323    2341.8962    116682.74    10.472245   0.18869355 
   51700   -277.56127    33.667409   -243.89386    2434.2281    121877.84    10.472245   0.17495158 
   51800   -279.20357    29.977754   -249.22581    2167.4579     111674.8    10.472245   0.15998756 
   51900   -276.27695    26.227336   -250.04961    1896.2944    119802.71    10.472245   0.21269643 
   52000   -272.70361    29.750647   -242.95297    2151.0376    134716.91    10.472245   0.27070602 
   52100    -277.2642    31.372643   -245.89156    2268.3115    119045.75    10.472245   0.22727899 
   52200   -278.90474    29.345701   -249.55903    2121.7591    114250.68    10.472245   0.19074476 
   52300   -274.15085    32.957008   -241.19384    2382.8646    129317.34    10.472245   0.20444292 
   52400   -278.52057    30.349756   -248.17081    2194.3545    114816.81    10.472245   0.15982098 
   52500   -277.43038     30.39402   -247.03636    2197.5549    117338.78    10.472245   0.21691461 
   52600   -277.31711    33.201555   -244.11555    2400.5458    120474.13    10.472245   0.21495964 
   52700   -276.49917    28.713044   -247.78613    2076.0166    121701.44    10.472245   0.19036062 
   52800   -281.63301    25.532508    -256.1005    1846.0568    103411.55    10.472245   0.15706115 
   52900   -276.88434    28.626653   -248.25768    2069.7703     121870.5    10.472245   0.19508558 
   53000   -277.36108    34.665448   -242.69563    2506.3886    122275.69    10.472245   0.21609608 
   53100   -277.54302     31.37232    -246.1707    2268.2882     118472.3    10.472245   0.15905432 
   53200   -279.79638    29.049731   -250.74665    2100.3598    111691.65    10.472245   0.13395332 
   53300   -277.48052    32.255483   -245.22504    2332.1428     116857.5    10.472245   0.17416537 
   53400   -277.00419    31.233389    -245.7708    2258.2431    120342.61    10.472245   0.16453125 
   53500   -280.79316    27.991848   -252.80131    2023.8725    106727.88    10.472245   0.15400938 
   53600   -276.54379    29.160195    -247.3836    2108.3466    121290.79    10.472245    0.2182334 
   53700   -273.64509     31.11083   -242.53426    2249.3818    128088.55    10.472245   0.20767691 
   53800   -279.49957    29.521523   -249.97805    2134.4714    111009.47    10.472245   0.16836697 
   53900   -277.11771    30.229929   -246.88778    2185.6907    119352.56    10.472245    0.2194741 
   54000    -277.0796    31.825222   -245.25437     2301.034    119901.76    10.472245   0.17037144 
   54100    -277.1059    28.669596    -248.4363    2072.8752    117140.86    10.472245   0.17516441 
   54200   -276.23758    34.684144   -241.55343    2507.7403    126061.33    10.472245   0.19919719 
   54300   -274.94535    29.894203   -245.05114     2161.417    126963.83    10.472245   0.20925724 
   54400   -280.65919    32.472107   -248.18709    2347.8051    107197.15    10.472245   0.14432289 
   54500   -274.97695    31.620345    -243.3566    2286.2209    129043.08    10.472245   0.18663661 
   54600   -273.13349    32.942427   -240.19107    2381.8103    131382.83    10.472245   0.21896958 
   54700   -279.18936    30.001985   -249.18737    2169.2099     111379.5    10.472245   0.17733445 
   54800   -274.59572    29.936105   -244.65961    2164.4466    125707.59    10.472245   0.23930821 
   54900   -274.06266    32.697235   -241.36543    2364.0824     128800.9    10.472245   0.19932507 
   55000   -278.11303    30.160906   -247.95212    2180.7002     118304.1    10.472245   0.18600344 
   55100   -278.30034    31.147069   -247.15327     2252.002    116413.93    10.472245   0.16487193 
   55200   -270.87626    32.553709   -238.32255    2353.7051    137964.65    10.472245    0.2475831 
   55300   -277.81892    31.888724   -245.93019    2305.6253    116722.05    10.472245   0.15570279 
   55400   -276.07317    28.745059   -247.32811    2078.3313    123533.13    10.472245   0.18968934 
   55500   -276.03197    37.916436   -238.11554    2741.4422     127725.9    10.472245   0.19049513 
   55600   -272.51792    28.268374   -244.24955    2043.8659     132553.5    10.472245   0.27371572 
   55700   -273.69398    27.918284   -245.77569    2018.5537    127999.52    10.472245   0.23317777 
   55800   -279.20318     31.79854   -247.40464    2299.1048     113766.2    10.472245   0.15318421 
   55900   -279.52545    26.955785   -252.56967    1948.9629    108875.02    10.472245   0.17841877 
   56000   -273.55776    28.515338   -245.04243     2061.722    128644.04    10.472245   0.25718651 
   56100   -274.52073    31.300967   -243.21976    2263.1291    130582.41    10.472245   0.17976602 
   56200   -278.01298    28.255086    -249.7579    2042.9052    114964.82    10.472245   0.16722318 
   56300   -277.06162    30.327783   -246.73384    2192.7658    117703.37    10.472245   0.18793258 
   56400   -275.01375    30.500676   -244.51308    2205.2663    126568.26    10.472245   0.22611567 
   56500   -269.21681    27.971489   -241.24532    2022.4005    141353.98    10.472245   0.24105117 
   56600   -277.10762    30.477562   -246.63006    2203.5952     118827.7    10.472245   0.18303341 
   56700   -277.34026    28.513465   -248.82679    2061.5866    118682.94    10.472245   0.18504422 
   56800   -271.58667      31.0007   -240.58597    2241.4192    134044.01    10.472245   0.21356946 
   56900   -279.87152      33.8595   -246.01202    2448.1167    113947.55    10.472245   0.17196275 
   57000   -276.47568    28.550409   -247.92527    2064.2577    121565.81    10.472245   0.17344465 
   57100   -277.01522    34.947841   -242.06738    2526.8062    121555.54    10.472245   0.17008111 
   57200   -275.80161    29.311357   -246.49025    2119.2759     123260.3    10.472245   0.18387538 
   57300    -277.3801     29.13609   -248.24401    2106.6037     118014.9    10.472245   0.20967359 
   57400   -274.19078    30.876697   -243.31409    2232.4535    127293.47    10.472245   0.19311873 
   57500    -273.9015    29.664415   -244.23709    2144.8028    125872.66    10.472245   0.21698478 
   57600   -280.00497    30.106324   -249.89865    2176.7538    108608.53    10.472245   0.14606334 
   57700   -278.50063    29.909461   -248.59116    2162.5202     113670.6    10.472245   0.17386629 
   57800   -274.38022    31.228441   -243.15178    2257.8854    131549.03    10.472245   0.25208486 
   57900   -275.48478     28.06852   -247.41626    2029.4161    123564.77    10.472245   0.20740103 
   58000   -280.26273    29.647031    -250.6157    2143.5459    110708.83    10.472245   0.16940951 
   58100   -276.10752    35.550137   -240.55739    2570.3536    124570.92    10.472245   0.24753007 
   58200   -277.78342    30.839828    -246.9436    2229.7878    117495.45    10.472245   0.17206053 
   58300   -279.68622    31.404143   -248.28208     2270.589    112343.08    10.472245   0.15301583 
   58400   -269.89427    32.394682   -237.49959    2342.2072    141318.66    10.472245   0.24597679 
   58500   -273.93498    30.541171   -243.39381    2208.1942    127731.16    10.472245    0.2387971 
   58600   -276.68383    29.094408   -247.58942      2103.59    120834.65    10.472245   0.20572463 
   58700   -276.99037    36.345096   -240.64527    2627.8309    122613.25    10.472245   0.15722542 
   58800   -274.53118    30.117333   -244.41385    2177.5498    127808.81    10.472245   0.19633946 
   58900   -272.46453    24.850244   -247.61428    1796.7276    130345.52    10.472245   0.21143892 
   59000   -272.30969    30.120373   -242.18932    2177.7696     133595.9    10.472245   0.24133961 
   59100    -277.7124    36.604646   -241.10776    2646.5969     120246.1    10.472245   0.16257768 
   59200   -277.31214    30.720405   -246.59174    2221.1532    117726.53    10.472245   0.16561393 
   59300   -277.61011    28.343564   -249.26655    2049.3024    116203.51    10.472245   0.19015821 
   59400   -273.69155    32.639208   -241.05234     2359.887    129690.05    10.472245   0.20390174 
   59500   -277.52348    30.565996   -246.95748    2209.9891    116806.85    10.472245   0.18854522 
   59600    -277.9063    30.129306     -247.777    2178.4155     115405.1    10.472245   0.18810122 
   59700   -275.18399    30.530082   -244.65391    2207.3925    126024.09    10.472245    0.1874693 
   59800    -274.5978    29.622817   -244.97499    2141.7952    128048.56    10.472245   0.22355372 
   59900   -276.99254    28.769731   -248.22281    2080.1152    116989.95    10.472245   0.15498356 
   60000   -274.55762    30.552598   -244.00503    2209.0204    126646.62    10.472245   0.21061176 
   60100   -276.06206     32.72202   -243.34004    2365.8745    124041.22    10.472245   0.17966726 
   60200   -277.72062    29.777677   -247.94294    2152.9919    115844.86    10.472245   0.15874333 
   60300   -276.29511    31.776974   -244.51813    2297.5455    122580.96    10.472245   0.17455952 
   60400   -275.09946    36.711985   -238.38748    2654.3577    131818.07    10.472245   0.22188435 
   60500   -277.81767    29.244726   -248.57295    2114.4584     115506.9    10.472245   0.19616221 
   60600   -272.78931    29.578731   -243.21058    2138.6077    127700.75    10.472245   0.24921803 
   60700   -273.84186    32.408086   -241.43378    2343.1763    130357.97    10.472245    0.2371736 
   60800   -278.52551    27.805826   -250.71968    2010.4227    113402.27    10.472245   0.16177848 
   60900   -275.61362    31.590467   -244.02315    2284.0607    124057.09    10.472245   0.23455901 
   61000   -271.86188    29.305131   -242.55675    2118.8258    132189.38    10.472245   0.19591237 
   61100   -279.85114    30.324817   -249.52632    2192.5513    111780.62    10.472245   0.19321745 
   61200   -280.23085    35.485837   -244.74501    2565.7045    111334.21    10.472245   0.17661973 
   61300   -276.11666    31.666551   -244.45011    2289.5617    125665.31    10.472245   0.21719513 
   61400   -280.97717    29.156041   -251.82113    2108.0463    105770.22    10.472245   0.13584752 
   61500   -272.81382    30.074251   -242.73957    2174.4349    131301.96    10.472245    0.2072724 
   61600   -279.72477    34.027871    -245.6969    2460.2903     112923.3    10.472245   0.16649948 
   61700   -281.78605    31.391727   -250.39432    2269.6913       107154    10.472245   0.14798331 
   61800   -273.53983    33.240374   -240.29946    2403.3526    133016.32    10.472245   0.20314935 
   61900   -278.71966    32.941101   -245.77856    2381.7145    113841.64    10.472245   0.18510523 
   62000   -276.92733    28.658291   -248.26904    2072.0578    120820.02    10.472245   0.18955909 
   62100   -277.41804    36.033491   -241.38455    2605.3011    120208.49    10.472245   0.18487362 
   62200   -277.06324    28.932793   -248.13044    2091.9049    119144.77    10.472245   0.16074213 
   62300    -278.3817    29.881027   -248.50067    2160.4643    113245.34    10.472245   0.17861489 
   62400   -275.36315    29.622056    -245.7411    2141.7402    123996.66    10.472245   0.19922261 
   62500   -276.49076    31.115491   -245.37527    2249.7188    122581.72    10.472245   0.17261115 
   62600   -279.60105    27.113883   -252.48717    1960.3937    108347.49    10.472245    0.1688307 
   62700   -274.34668    29.386564   -244.96011    2124.7136    127397.78    10.472245   0.22064892 
   62800    -278.5351    33.581127   -244.95397    2427.9898    118250.49    10.472245   0.20530421 
   62900   -280.06488    30.453293   -249.61158    2201.8405    110420.52    10.472245   0.18277876 
   63000   -273.20793    29.191191   -244.01673    2110.5877    130637.25    10.472245   0.23895538 
   63100   -273.07196    29.350984   -243.72098    2122.1411    128616.84    10.472245   0.23272866 
   63200   -276.03042    26.934042   -249.09637    1947.3908    119487.73    10.472245   0.22198936 
   63300   -271.81681    33.273437   -238.54338    2405.7431    136359.33    10.472245   0.23394061 
   63400    -273.3817    27.333322   -246.04838    1976.2597    129917.63    10.472245    0.2586684 
   63500   -277.18158    29.206304   -247.97528    2111.6804    117418.28    10.472245   0.19201875 
   63600   -276.05696    33.225862    -242.8311    2402.3033    124639.17    10.472245   0.21771758 
   63700   -276.09085    32.462288   -243.62856    2347.0953    120893.61    10.472245   0.20400647 
   63800   -277.45157    28.433273    -249.0183    2055.7885    116418.77    10.472245   0.16632945 
   63900   -275.71367     31.78788   -243.92578    2298.3341    122182.93    10.472245   0.22755237 
   64000   -274.51198    30.955526   -243.55645     2238.153    126649.29    10.472245   0.17998654 
   64100   -278.42443    31.531345   -246.89308     2279.786    113999.17    10.472245   0.16133233 
   64200   -278.29856    27.146113   -251.15245     1962.724    114944.71    10.472245   0.21214671 
   64300   -275.19524    33.395301   -241.79994    2414.5541    124174.12    10.472245    0.2225078 
   64400   -274.28273    26.888504   -247.39422    1944.0983    125767.53    10.472245   0.19760803 
   64500    -278.3589    29.056217   -249.30269    2100.8288    113702.32    10.472245   0.16516453 
   64600   -276.07412    31.248223    -244.8259    2259.3157    121894.43    10.472245   0.19193792 
   64700   -278.46141    32.499655   -245.96176     2349.797    118442.77    10.472245    0.2074485 
   64800   -281.62269    26.981962   -254.64073    1950.8556    103290.49    10.472245   0.15458341 
   64900   -278.78196     32.87474   -245.90722    2376.9164    114130.58    10.472245   0.17806743 
   65000    -275.1285    32.364321   -242.76418     2340.012    125251.58    10.472245   0.18765678 
   65100    -282.4456    31.831051   -250.61455    2301.4554    102777.03    10.472245    0.1325942 
   65200   -278.91515    31.265669   -247.64949     2260.577    115143.37    10.472245    0.1525108 
   65300   -273.50716    30.452329   -243.05483    2201.7708    131450.39    10.472245   0.21499462 
   65400    -277.4374    30.338113   -247.09929    2193.5127    117876.19    10.472245   0.20745738 
   65500   -277.37018    33.663385    -243.7068    2433.9372    118429.46    10.472245   0.16219926 
   65600   -274.98976     31.75012   -243.23964    2295.6039    127470.03    10.472245   0.20847509 
   65700   -279.21241    31.437296   -247.77512     2272.986    111158.19    10.472245   0.14956028 
   65800   -276.41204    33.056646   -243.35539    2390.0686    122692.31    10.472245   0.16857752 
   65900   -275.58434    29.496575   -246.08776    2132.6676    125263.78    10.472245   0.20377337 
   66000   -279.87445    29.188486   -250.68596    2110.3921    109139.82    10.472245    0.1549624 
   66100   -274.56992     32.11675   -242.45317    2322.1121    126449.63    10.472245   0.23951603 
   66200   -278.75331    35.449466   -243.30384    2563.0748    116603.26    10.472245    0.1733463 
   66300   -280.08934    29.398731   -250.69061    2125.5933    107344.17    10.472245   0.14701901 
   66400   -275.87275    30.661065   -245.21169    2216.8628    122616.65    10.472245   0.21129077 
   66500   -276.94119    33.160943   -243.78025    2397.6095    120346.04    10.472245   0.20089035 
   66600   -276.72468     25.90446   -250.82022    1872.9498    117102.72    10.472245   0.20168603 
   66700    -281.4959    30.776633   -250.71926    2225.2186    104666.85    10.472245   0.19009648 
   66800   -276.69264    32.408729   -244.28391    2343.2228    120260.09    10.472245   0.17066159 
   66900   -276.94736    28.013707   -248.93366     2025.453    118465.63    10.472245   0.19975411 
   67000    -281.7563    30.870709   -250.88559    2232.0206     104738.2    10.472245   0.15902777 
   67100   -274.58461     32.26404   -242.32057    2332.7614    129042.34    10.472245   0.22512873 
   67200   -276.99071    28.671208    -248.3195    2072.9918    117945.71    10.472245    0.1763754 
   67300   -277.79477    29.534202   -248.26056    2135.3881    115557.49    10.472245   0.21362785 
   67400   -279.02102     34.69862    -244.3224     2508.787    116519.12    10.472245   0.17353223 
   67500   -276.26602    32.527259   -243.73876    2351.7928    122453.24    10.472245   0.18681284 
   67600    -276.7549    32.879705   -243.87519    2377.2754     119473.6    10.472245   0.19792162 
   67700   -278.74284    28.951591   -249.79125    2093.2641    114452.26    10.472245   0.17944379 
   67800   -271.39657    28.376139   -243.02044    2051.6576    135719.92    10.472245   0.25258751 
   67900   -274.98233    32.664174   -242.31816     2361.692    127392.84    10.472245   0.19995274 
   68000   -279.26643    31.549556   -247.71687    2281.1027     113816.3    10.472245   0.15923116 
   68100   -276.08571    30.407835   -245.67787    2198.5537    122327.56    10.472245   0.16873918 
   68200   -271.67897    34.111361   -237.56761    2466.3268    138249.58    10.472245   0.26817798 
   68300      -276.85    32.890584   -243.95941     2378.062    123203.93    10.472245   0.15845616 
   68400   -278.54778    30.787214   -247.76056    2225.9837    113372.51    10.472245   0.17481567 
   68500   -275.20486    32.309978   -242.89488    2336.0829    127496.92    10.472245   0.20630103 
   68600    -274.2611    32.569727   -241.69137    2354.8633    127361.81    10.472245   0.18540173 
   68700    -280.4085    32.098228   -248.31027    2320.7729    108585.37    10.472245   0.13570146 
   68800   -273.66425    30.316287   -243.34796    2191.9346     129218.6    10.472245   0.18762499 
   68900   -269.68106    29.195913   -240.48515    2110.9291    141199.93    10.472245   0.32486278 
   69000   -273.16713    29.713304   -243.45383    2148.3376    133525.85    10.472245    0.1962111 
   69100   -276.07796    27.563566    -248.5144    1992.9068    118860.73    10.472245   0.20835266 
   69200   -273.14641    31.528603   -241.61781    2279.5878     129790.9    10.472245    0.2441945 
   69300   -272.58017    36.012078   -236.56809    2603.7529    137107.25    10.472245   0.21729806 
   69400    -279.5613    31.803822   -247.75748    2299.4867     113453.9    10.472245   0.18425858 
   69500   -274.65591     29.13269   -245.52322    2106.3579    124845.57    10.472245   0.20389403 
   69600   -273.80006    32.853633   -240.94643    2375.3903    132029.39    10.472245   0.21160731 
   69700   -278.41472     28.15402    -250.2607    2035.5979    114317.68    10.472245   0.18690484 
   69800    -275.8236    32.365587   -243.45801    2340.1035    125185.06    10.472245   0.17234625 
   69900   -275.67065     28.93774   -246.73291    2092.2626    124351.25    10.472245   0.17676335 
   70000   -279.69825    28.923016   -250.77523     2091.198    110807.43    10.472245    0.1608431 
   70100   -277.01466    30.892712   -246.12195    2233.6114    119128.29    10.472245   0.15086832 
   70200   -275.10826    30.505486   -244.60277    2205.6141    125536.47    10.472245    0.1852737 
   70300   -274.86532    36.118335   -238.74698    2611.4355    130890.81    10.472245   0.22754788 
   70400   -278.97431    31.616964   -247.35734    2285.9764    113910.78    10.472245   0.15712935 
   70500   -275.84976     28.35881   -247.49095    2050.4047    121746.29    10.472245   0.19017204 
   70600   -274.34069    34.484786   -239.85591    2493.3263    130119.83    10.472245   0.19181491 
   70700   -278.52282     34.89831   -243.62451     2523.225    118700.36    10.472245   0.18126564 
   70800   -279.42751    30.915583   -248.51192    2235.2651     113800.3    10.472245    0.1620585 
   70900   -272.29098    31.297941   -240.99303    2262.9103     134202.6    10.472245   0.20430557 
   71000   -277.08201    29.653672   -247.42834    2144.0261    119756.42    10.472245   0.17934658 
   71100   -280.32491    31.771849   -248.55306    2297.1749    108570.23    10.472245   0.13737987 
   71200   -273.42025    30.559088   -242.86116    2209.4897    132712.61    10.472245   0.23739473 
   71300   -274.86166    29.752608   -245.10905    2151.1794     124574.8    10.472245   0.22918208 
   71400   -279.98901    29.747939   -250.24107    2150.8418    110308.66    10.472245   0.17487129 
   71500   -275.89251    31.885058   -244.00745    2305.3602    122185.33    10.472245   0.16778574 
   71600   -279.06279    33.112109   -245.95068    2394.0787    113730.03    10.472245   0.17437731 
   71700   -281.04115     31.41128   -249.62987     2271.105    107282.95    10.472245   0.14592022 
   71800   -275.70007    28.204541   -247.49553    2039.2507    120955.96    10.472245   0.19682325 
   71900   -278.78949    36.575281   -242.21421    2644.4737    116993.16    10.472245    0.1624909 
   72000   -277.64784    26.409213   -251.23862    1909.4445    114732.26    10.472245   0.20635886 
   72100   -277.15163     29.44256   -247.70907    2128.7622    118370.59    10.472245   0.19876018 
   72200   -276.01103    31.710324   -244.30071    2292.7266    124452.91    10.472245   0.20645632 
   72300   -278.29907    27.098462   -251.20061    1959.2787    112907.68    10.472245    0.1497784 
   72400   -275.26011    26.129497   -249.13061    1889.2204    121815.22    10.472245   0.21028838 
   72500   -279.75891    34.580599   -245.17831    2500.2538    112515.78    10.472245   0.13550503 
   72600   -277.83287    28.984462   -248.84841    2095.6407    113766.17    10.472245   0.20083472 
   72700   -279.40925    29.588407   -249.82084    2139.3073    111137.51    10.472245   0.17408167 
   72800   -274.66497    31.744716   -242.92026    2295.2132    127382.46    10.472245    0.2299945 
   72900   -277.97807    28.549753   -249.42832    2064.2103    115552.85    10.472245   0.18640762 
   73000   -278.21877    31.325969    -246.8928    2264.9369     117075.2    10.472245     0.168546 
   73100    -275.3948    32.554205   -242.84059     2353.741    124083.53    10.472245   0.19785097 
   73200   -276.53369    26.362645   -250.17105    1906.0776    117887.25    10.472245   0.18582986 
   73300   -277.28009    32.853005   -244.42708     2375.345    120131.95    10.472245   0.22178149 
   73400   -274.16632    30.328073   -243.83825    2192.7867    127500.67    10.472245   0.19599658 
   73500   -278.14043    28.750844   -249.38958    2078.7496    115570.66    10.472245   0.16589966 
   73600   -277.81681    32.216062   -245.60075    2329.2926    118038.36    10.472245   0.15841659 
   73700   -274.34613    32.969523   -241.37661    2383.7694    128927.74    10.472245   0.24050954 
   73800   -280.26979    30.123004   -250.14679    2177.9598    107953.58    10.472245    0.1621835 
   73900   -278.43536    31.014441   -247.42092    2242.4127    113858.66    10.472245   0.15482773 
   74000     -276.187    31.702002     -244.485    2292.1249    121982.71    10.472245   0.18765497 
   74100   -272.83211    30.079498   -242.75261    2174.8142    131745.32    10.472245   0.28643862 
   74200   -276.93215    31.317076   -245.61507    2264.2939    120210.29    10.472245   0.23666774 
   74300   -277.53283    27.290233    -250.2426    1973.1442    117506.82    10.472245   0.14796668 
   74400    -275.5446    26.644144   -248.90045    1926.4305    120029.22    10.472245   0.16661683 
   74500   -274.89121    31.173936   -243.71727    2253.9445    126748.19    10.472245   0.20841743 
   74600      -280.52    29.825079   -250.69492    2156.4192     108222.3    10.472245   0.15550529 
   74700   -275.92465    26.398492   -249.52616    1908.6694    121091.56    10.472245   0.20058805 
   74800   -274.87658    31.510975   -243.36561    2278.3132    123939.98    10.472245   0.20538765 
   74900   -278.18795    28.669013   -249.51894    2072.8331     114063.6    10.472245   0.16782853 
   75000   -274.87487    29.201392   -245.67348    2111.3252    123571.03    10.472245   0.20961386 
   75100   -276.44823    33.711033   -242.73719    2437.3823    123832.48    10.472245   0.20606492 
   75200   -278.33999    28.531716   -249.80827    2062.9061    112693.85    10.472245   0.16712159 
   75300   -280.31577    33.317506   -246.99826    2408.9294    111749.97    10.472245   0.17568662 
   75400   -275.09765    30.451721   -244.64593    2201.7268    121813.97    10.472245   0.16821782 
   75500    -278.5611    30.242534   -248.31857    2186.6021    114258.35    10.472245   0.13985136 
   75600   -276.83827    25.724393   -251.11388    1859.9305    116449.94    10.472245   0.17880645 
   75700   -274.35476    31.115714   -243.23904     2249.735    127844.14    10.472245   0.25971129 
   75800   -276.07367    36.659565    -239.4141    2650.5676    127848.19    10.472245   0.17385743 
   75900   -278.66365    29.726156    -248.9375    2149.2668    114469.66    10.472245   0.20175326 
   76000   -276.38353    31.089197   -245.29433    2247.8177    124277.67    10.472245   0.18068766 
   76100   -271.66081    32.027305    -239.6335     2315.645    137592.54    10.472245    0.2318777 
   76200   -277.95994    28.849343    -249.1106    2085.8713    112915.71    10.472245   0.16838976 
   76300   -276.86902    31.272078   -245.59694    2261.0404    120684.24    10.472245   0.15838735 
   76400   -274.12327    33.607168   -240.51611    2429.8726     128861.5    10.472245   0.19966426 
   76500   -279.81372    29.220473   -250.59324    2112.7049     111524.4    10.472245   0.16652893 
   76600   -274.72526    30.760803   -243.96446    2224.0741    126144.49    10.472245    0.2013635 
   76700   -274.30205    31.835187   -242.46686    2301.7544    127606.26    10.472245   0.22203739 
   76800   -280.38588    29.297544   -251.08833    2118.2772     107855.2    10.472245   0.15460245 
   76900   -278.39949    31.538163   -246.86132     2280.279    116127.02    10.472245   0.18690151 
   77000   -276.20031    32.807599   -243.39271     2372.062    120154.93    10.472245   0.24520603 
   77100   -275.08047    29.739423   -245.34105    2150.2261    128220.97    10.472245   0.19853773 
   77200    -281.4541    28.221611   -253.23249    2040.4849    105519.12    10.472245   0.13098229 
[...]
  481400   -274.27919    29.795726   -244.48346    2154.2969    128036.27    10.472245   0.20699944 
  481500   -271.03427    32.071194   -238.96308    2318.8182     140060.9    10.472245   0.26299733 
  481600   -278.70051    32.656843   -246.04367     2361.162    116387.54    10.472245   0.15266358 
  481700    -279.1695    29.844144   -249.32536    2157.7976    114378.42    10.472245   0.15781959 
  481800   -277.12095    36.510863   -240.61009    2639.8162    122726.76    10.472245   0.17062439 
  481900   -276.69501    31.991574   -244.70344    2313.0616    120517.67    10.472245    0.1838667 
  482000   -277.45413    31.270301   -246.18383     2260.912     115791.5    10.472245   0.17439165 
  482100   -275.77054    30.755176   -245.01537    2223.6672    122777.16    10.472245   0.21832673 
  482200   -273.27379    29.752598   -243.52119    2151.1786    130272.37    10.472245   0.22652919 
  482300   -280.50431     29.88836   -250.61595    2160.9945    107843.57    10.472245   0.14102935 
  482400   -273.21773    30.179376   -243.03835    2182.0356    132343.93    10.472245    0.1852068 
  482500   -277.89108    33.060362   -244.83072    2390.3373    122682.12    10.472245   0.17102149 
  482600   -277.94855    28.817016   -249.13153     2083.534    113674.43    10.472245   0.15462286 
  482700   -272.01951    32.621484   -239.39803    2358.6054    136859.01    10.472245   0.25927182 
  482800   -273.37611    33.182461   -240.19365    2399.1653    133091.37    10.472245   0.21380835 
  482900   -277.07689    27.884465   -249.19243    2016.1085    117531.45    10.472245   0.19041564 
  483000   -275.70739    30.717524   -244.98987    2220.9449    124123.39    10.472245   0.20052514 
  483100   -274.64613    34.285551   -240.36058    2478.9212    126462.86    10.472245   0.24023259 
  483200   -277.49717    30.393638   -247.10353    2197.5272    116555.77    10.472245   0.19763257 
  483300   -276.47515     29.18635    -247.2888    2110.2377    121109.03    10.472245   0.16620318 
  483400   -272.66992    33.073822    -239.5961    2391.3105    133421.05    10.472245    0.2176515 
  483500   -279.92243    29.542722   -250.37971    2136.0042    107395.75    10.472245   0.19668434 
  483600     -273.445    28.460915   -244.98408    2057.7871    126898.38    10.472245   0.21933151 
  483700   -276.86875    32.482567   -244.38618    2348.5615    119933.23    10.472245   0.22176638 
  483800   -283.50041    30.729578   -252.77083    2221.8165    99055.161    10.472245   0.15468272 
  483900   -271.47406    27.841108   -243.63295    2012.9737    133245.39    10.472245   0.22636294 
  484000   -274.03861     28.42198   -245.61663     2054.972    128458.37    10.472245   0.19657771 
  484100   -277.71162    27.912601   -249.79902    2018.1428    115906.52    10.472245   0.19269148 
  484200   -271.97054    31.504295   -240.46625    2277.8302    136061.98    10.472245   0.22726806 
  484300   -276.04278    29.709736   -246.33305    2148.0797    125298.98    10.472245   0.21656831 
  484400   -277.52309     29.49911   -248.02398    2132.8509    116796.64    10.472245   0.17049276 
  484500   -271.21681    32.428504   -238.78831    2344.6526    137305.88    10.472245   0.21277326 
  484600   -276.75394    30.439781   -246.31415    2200.8635     118968.2    10.472245   0.16420516 
  484700   -278.64877    31.616867   -247.03191    2285.9694    115277.68    10.472245   0.15515824 
  484800   -280.13628    37.410862   -242.72542    2704.8881     115162.9    10.472245   0.15450214 
  484900   -274.26669    33.679839   -240.58685    2435.1269     129991.3    10.472245   0.26177681 
  485000   -280.06889     31.65159    -248.4173      2288.48    111754.72    10.472245   0.16040729 
  485100   -271.71402    26.679196   -245.03482    1928.9649     132347.2    10.472245   0.22524521 
  485200   -271.95714    31.090295   -240.86684    2247.8971    133585.81    10.472245    0.2183746 
  485300   -280.50124    34.030626   -246.47062    2460.4895    111902.29    10.472245    0.1807829 
  485400   -276.49412    29.560557   -246.93357    2137.2937    119182.48    10.472245    0.1932958 
  485500   -272.03055    31.921471   -240.10908     2307.993    135694.67    10.472245   0.26008163 
  485600   -274.01927    28.389474   -245.62979    2052.6218    127313.51    10.472245   0.23225356 
  485700   -277.93034     31.64278   -246.28756     2287.843    115496.69    10.472245   0.22645844 
  485800   -277.62871     31.33942   -246.28929    2265.9094    119691.79    10.472245   0.15427165 
  485900    -276.4196    27.250507   -249.16909    1970.2719    120030.04    10.472245      0.16346 
  486000   -277.36199    34.996242   -242.36575    2530.3057    120822.41    10.472245   0.18426113 
  486100   -277.37419    34.820802   -242.55339     2517.621    119585.81    10.472245    0.1475448 
  486200   -278.07934    27.317266   -250.76207    1975.0987    115771.94    10.472245   0.19981703 
  486300   -277.39621    33.858839   -243.53738    2448.0689    120043.37    10.472245   0.20595314 
  486400   -273.62764    28.082289   -245.54536    2030.4116    130635.77    10.472245   0.21304193 
  486500   -280.40592    29.299311   -251.10661     2118.405    106363.99    10.472245   0.13635305 
  486600     -276.513    31.745043   -244.76796    2295.2369    122146.57    10.472245   0.16263602 
  486700   -277.65663    29.128415   -248.52821    2106.0488    116849.24    10.472245   0.17198777 
  486800   -277.57864    24.908744    -252.6699    1800.9573    115190.79    10.472245   0.17084096 
  486900   -277.25667    30.759856   -246.49681    2224.0056    119187.54    10.472245   0.20136831 
  487000   -273.67428    28.883504   -244.79078    2088.3412    128087.67    10.472245   0.26711908 
  487100   -276.94602    32.258109   -244.68791    2332.3326    122581.79    10.472245   0.26658421 
  487200   -271.09673    29.817531    -241.2792    2155.8735    140347.28    10.472245     0.329015 
  487300   -275.80987      32.3522   -243.45767    2339.1356    123596.05    10.472245   0.18704699 
  487400   -277.14413    29.590163   -247.55397    2139.4342    119418.28    10.472245   0.19040464 
  487500   -272.23481    29.214826   -243.01999    2112.2965    132866.13    10.472245   0.21945673 
  487600    -270.4907    31.699799    -238.7909    2291.9656    142811.32    10.472245   0.22501546 
  487700   -279.41717    30.693665    -248.7235    2219.2199    113358.84    10.472245   0.15048944 
  487800   -277.79421    33.886594   -243.90761    2450.0757     118614.7    10.472245   0.15572216 
  487900   -275.10404    29.661102   -245.44294    2144.5633    123846.13    10.472245   0.19769865 
  488000   -276.38643    26.627794   -249.75864    1925.2484    120569.02    10.472245   0.17786755 
  488100   -276.68733    32.991018   -243.69631    2385.3236    121477.09    10.472245   0.19848093 
  488200   -275.08266    29.059741   -246.02292    2101.0836    123944.82    10.472245   0.20272764 
  488300   -278.45123    27.062062   -251.38917    1956.6469    113195.36    10.472245   0.23953563 
  488400   -273.73515     29.30889   -244.42626    2119.0976    127085.61    10.472245   0.20612992 
  488500   -275.63671    29.631298   -246.00542    2142.4084    122447.47    10.472245   0.17221821 
  488600   -281.43983    28.719236    -252.7206    2076.4643    105283.53    10.472245   0.14496664 
  488700   -280.54936    35.711691   -244.83766    2582.0343     113646.2    10.472245    0.1421322 
  488800   -276.59247    29.713108   -246.87936    2148.3234    119566.01    10.472245   0.16231128 
  488900   -281.37545    30.461772   -250.91368    2202.4535    105484.47    10.472245    0.1371715 
  489000   -277.69738     32.30436   -245.39302    2335.6767    116724.92    10.472245   0.19748947 
  489100   -275.64768    31.533524   -244.11416    2279.9435    127043.25    10.472245   0.18160091 
  489200   -281.95949    30.752179   -251.20731    2223.4506    102756.62    10.472245   0.13958999 
  489300   -275.50396    34.762011   -240.74195    2513.3703    125375.07    10.472245    0.2243266 
  489400   -274.25434    27.236064   -247.01828    1969.2277    126412.69    10.472245   0.22219194 
  489500   -277.07622    27.869989   -249.20623    2015.0619    117037.87    10.472245   0.17884492 
  489600   -270.80462    29.649245   -241.15538     2143.706    137499.11    10.472245   0.24690519 
  489700   -276.02341    30.000449   -246.02296    2169.0988     122009.4    10.472245   0.23230391 
  489800   -276.66846    27.705421   -248.96304    2003.1632    118927.36    10.472245   0.18478935 
  489900   -270.82625    31.782137   -239.04411    2297.9188    140741.35    10.472245   0.22995612 
  490000   -278.53898    30.914473   -247.62451    2235.1847    115401.22    10.472245   0.17758478 
  490100   -277.74036    31.475099   -246.26526    2275.7193    114910.53    10.472245   0.18620229 
  490200   -274.21001    32.869878   -241.34013    2376.5649    131154.47    10.472245   0.22427281 
  490300   -277.25065    26.177531   -251.07311    1892.6934    117930.78    10.472245   0.17309014 
  490400   -274.08823    28.460836    -245.6274    2057.7814    129349.46    10.472245   0.21223419 
  490500   -275.15256    33.656989   -241.49558    2433.4747    128852.69    10.472245   0.21921129 
  490600   -276.58761    31.023491   -245.56412     2243.067    121712.11    10.472245   0.17568513 
  490700   -276.24952    29.516918    -246.7326    2134.1384    120264.78    10.472245   0.21045883 
  490800   -271.10898    30.942812   -240.16617    2237.2338    135983.18    10.472245   0.23830753 
  490900   -278.22413     32.05433    -246.1698     2317.599     120107.9    10.472245   0.18507475 
  491000   -280.14001    32.389678   -247.75033    2341.8454    111177.09    10.472245   0.15900511 
  491100   -272.36142    33.027945   -239.33348    2387.9934    134565.29    10.472245    0.2290242 
  491200   -272.15728    29.307591   -242.84969    2119.0037    133677.32    10.472245   0.21913036 
  491300   -277.85839    30.983176   -246.87522    2240.1522    117997.31    10.472245   0.17639921 
  491400   -273.00327    29.511016   -243.49226    2133.7117    132643.76    10.472245   0.20012786 
  491500   -276.34524    34.847274   -241.49797     2519.535     124317.6    10.472245   0.14679566 
  491600   -274.76938    27.726272    -247.0431    2004.6708    125123.13    10.472245   0.15457732 
  491700   -278.04289     30.61769    -247.4252    2213.7267    116708.67    10.472245   0.17653866 
  491800   -273.44794    34.085451   -239.36249    2464.4535    133610.54    10.472245    0.2497277 
  491900   -276.04612    31.670144   -244.37597    2289.8214    122459.25    10.472245   0.18097167 
  492000   -279.26342    32.420843   -246.84258    2344.0987    112437.29    10.472245   0.16541583 
  492100   -278.11987    35.311309   -242.80857    2553.0857    117205.54    10.472245   0.18465674 
  492200   -272.64767    29.033921   -243.61375    2099.2167    131980.37    10.472245   0.20603767 
  492300   -280.53391    31.659051   -248.87486    2289.0194    108510.61    10.472245   0.17400983 
  492400   -275.99037    34.455358   -241.53501    2491.1986    125567.65    10.472245   0.18480159 
  492500   -277.71292    29.190459   -248.52246    2110.5347    116381.49    10.472245   0.16378836 
  492600   -277.31919    28.609049   -248.71014    2068.4975    114900.07    10.472245   0.17044678 
  492700   -273.05723    30.346167   -242.71107     2194.095    130197.54    10.472245   0.27628779 
  492800   -273.56305    33.455127   -240.10793    2418.8797    129988.31    10.472245   0.22851879 
  492900    -276.3669    26.942634   -249.42426     1948.012    119876.44    10.472245   0.18604941 
  493000   -275.57714    29.712895   -245.86424     2148.308    122931.26    10.472245   0.18491633 
  493100   -271.30453    30.803954   -240.50057     2227.194    135305.02    10.472245   0.25339108 
  493200    -275.7697    31.784992   -243.98471    2298.1252    123506.27    10.472245   0.18794972 
  493300   -276.25251    26.811961   -249.44055    1938.5641    120208.35    10.472245   0.22292721 
  493400   -276.71125    35.374359   -241.33689    2557.6444    123551.36    10.472245   0.21162342 
  493500   -275.95143     31.61268   -244.33875    2285.6667    123634.33    10.472245   0.24306375 
  493600    -277.6043    30.222263   -247.38203    2185.1365    119129.78    10.472245   0.18421323 
  493700   -276.24042    32.660114    -243.5803    2361.3985    122865.62    10.472245   0.18138166 
  493800   -271.43078    28.795763   -242.63502    2081.9973    134667.35    10.472245   0.23651963 
  493900   -278.34029    29.141385    -249.1989    2106.9866    112939.43    10.472245   0.16116263 
  494000   -274.30585    32.545556   -241.76029    2353.1157    129568.56    10.472245   0.20433144 
  494100   -275.00387      31.2868   -243.71707    2262.1049    124362.52    10.472245   0.17107181 
  494200   -277.69072    30.867906   -246.82282    2231.8179    117800.76    10.472245   0.18531866 
  494300   -275.62782    34.091253   -241.53657     2464.873    124689.07    10.472245   0.20409262 
  494400   -275.01795    33.139814   -241.87813    2396.0819    124723.49    10.472245   0.20426293 
  494500   -276.41195    28.903516   -247.50843    2089.7882    124041.58    10.472245    0.2000071 
  494600    -275.9941    34.726448   -241.26765     2510.799    124469.38    10.472245   0.18939438 
  494700   -275.37491    29.739013   -245.63589    2150.1964    125202.63    10.472245   0.18813532 
  494800   -277.76892    29.144665   -248.62426    2107.2237    115587.09    10.472245    0.1667988 
  494900   -274.98062    32.853322    -242.1273    2375.3678    127709.88    10.472245   0.20003038 
  495000   -274.63195    27.454064   -247.17788    1984.9896    125508.33    10.472245   0.16700591 
  495100   -281.14747    32.570541   -248.57693    2354.9221    108607.31    10.472245   0.15514125 
  495200   -273.01367    28.883679   -244.12999    2088.3538    131536.74    10.472245   0.21041362 
  495300   -279.31596    33.588745   -245.72721    2428.5405    112558.52    10.472245   0.18990347 
  495400   -275.60814       30.626   -244.98214    2214.3275    123423.43    10.472245   0.20837639 
  495500   -276.50282    32.434394   -244.06842    2345.0784    122931.11    10.472245    0.1898039 
  495600   -276.07762    28.986124   -247.09149    2095.7608    120760.86    10.472245   0.19908689 
  495700   -278.44913    30.266194   -248.18293    2188.3128    114097.27    10.472245   0.22722169 
  495800   -273.41559    32.086318   -241.32927    2319.9118     131570.7    10.472245   0.22161616 
  495900   -279.37442    30.328529   -249.04589    2192.8198    114026.26    10.472245   0.17230724 
  496000   -278.43118    29.244496   -249.18668    2114.4417    113825.26    10.472245   0.15611893 
  496100   -276.53489    34.009166   -242.52572    2458.9379    125416.23    10.472245   0.18509794 
  496200   -278.61658    27.807857   -250.80873    2010.5696    111794.21    10.472245   0.15419146 
  496300   -278.87657    30.860837   -248.01574    2231.3068    115838.87    10.472245   0.17088109 
  496400   -272.32651      28.1866   -244.13991    2037.9535    131363.95    10.472245   0.21980176 
  496500   -278.43964    28.910068   -249.52957    2090.2619    115494.19    10.472245   0.18144229 
  496600    -274.8166    24.397614   -250.41898    1764.0015    121846.02    10.472245   0.18466526 
  496700   -280.01634     35.50839   -244.50796    2567.3351     113878.8    10.472245   0.13323381 
  496800   -277.35294    30.722074   -246.63086    2221.2739    117511.61    10.472245   0.14856614 
  496900   -280.70359    30.244456   -250.45913    2186.7411     106327.6    10.472245   0.17494046 
  497000   -276.68281    34.270399   -242.41241    2477.8256    123372.76    10.472245   0.21981434 
  497100   -275.68278    29.706828   -245.97595    2147.8694    125526.53    10.472245   0.23924841 
  497200   -275.10235    30.835051    -244.2673    2229.4424     129594.2    10.472245   0.22537583 
  497300   -272.30372    31.034461   -241.26926    2243.8602    133670.24    10.472245   0.29544347 
  497400    -277.4259    29.846691   -247.57921    2157.9817    116808.34    10.472245   0.17723808 
  497500   -278.33078    28.067379    -250.2634    2029.3336    113927.68    10.472245   0.17196616 
  497600   -274.07707    30.735518   -243.34155    2222.2459    128795.83    10.472245   0.19843304 
  497700   -274.87445    28.852005   -246.02244    2086.0638    123722.28    10.472245   0.22014161 
  497800   -278.77433    28.729949   -250.04438    2077.2389    111662.71    10.472245   0.17545901 
  497900   -276.17077    29.835355   -246.33541    2157.1621    121560.69    10.472245   0.18346797 
  498000   -274.77588    29.586163   -245.18972     2139.145     124953.3    10.472245   0.18880984 
  498100    -280.0947    28.858871   -251.23583    2086.5602    111254.07    10.472245   0.15989576 
  498200    -277.6448    30.162564   -247.48223    2180.8201     116303.5    10.472245   0.18750258 
  498300   -274.25328    29.936954   -244.31632     2164.508    126716.33    10.472245   0.17403393 
  498400   -276.25163    24.993946   -251.25768    1807.1176    117932.77    10.472245   0.14817079 
  498500   -279.60576    24.585102   -255.02066    1777.5573    108198.65    10.472245   0.18066031 
  498600   -274.13644    29.694625   -244.44182    2146.9871    126581.41    10.472245   0.24243887 
  498700   -273.57453    31.121653   -242.45287    2250.1644    128392.75    10.472245   0.19708062 
  498800   -280.15666    29.974965   -250.18169    2167.2562    109457.07    10.472245   0.15304823 
  498900   -275.84409    29.232833   -246.61126    2113.5985    123171.41    10.472245   0.22760371 
  499000   -280.21434    35.074609   -245.13973    2535.9718    112281.96    10.472245   0.15901871 
  499100   -276.11806     30.19221   -245.92585    2182.9636    121432.49    10.472245   0.16719142 
  499200   -278.19178    28.914004   -249.27778    2090.5465    115453.39    10.472245   0.18304283 
  499300   -275.21888    32.855037   -242.36385    2375.4918     125524.7    10.472245   0.20599731 
  499400   -274.29478    28.564614   -245.73016    2065.2848    123913.64    10.472245   0.22738046 
  499500   -278.95374    29.628423   -249.32532    2142.2005    112582.45    10.472245    0.1791572 
  499600   -278.73075    34.445167   -244.28559    2490.4618    117118.51    10.472245   0.17520612 
  499700   -277.94726    34.561533   -243.38572    2498.8753    119936.68    10.472245   0.17541475 
  499800      -277.45    28.321431   -249.12857    2047.7021    115570.99    10.472245   0.18445063 
  499900   -272.44519    32.447082   -239.99811    2345.9958     133416.4    10.472245   0.23972866 
  500000   -275.19248    31.650545   -243.54194    2288.4044    125738.12    10.472245   0.19118017 
Loop time of 159.126 on 1 procs for 500000 steps with 108 atoms

Performance: 1357.414 ns/day, 0.018 hours/ns, 3142.163 timesteps/s
100.0% CPU use with 1 MPI tasks x no OpenMP threads

MPI task timing breakdown:
Section |  min time  |  avg time  |  max time  |%varavg| %total
---------------------------------------------------------------
Pair    | 94.358     | 94.358     | 94.358     |   0.0 | 59.30
Neigh   | 6.7248     | 6.7248     | 6.7248     |   0.0 |  4.23
Comm    | 2.5526     | 2.5526     | 2.5526     |   0.0 |  1.60
Output  | 0.089687   | 0.089687   | 0.089687   |   0.0 |  0.06
Modify  | 54.977     | 54.977     | 54.977     |   0.0 | 34.55
Other   |            | 0.4246     |            |       |  0.27

Nlocal:    108 ave 108 max 108 min
Histogram: 1 0 0 0 0 0 0 0 0 0
Nghost:    998 ave 998 max 998 min
Histogram: 1 0 0 0 0 0 0 0 0 0
Neighs:    5553 ave 5553 max 5553 min
Histogram: 1 0 0 0 0 0 0 0 0 0

Total # of neighbors = 5553
Ave neighs/atom = 51.4167
Neighbor list builds = 28955
Dangerous builds = 25
    
Total wall time: 0:02:39
