LAMMPS (3 Mar 2020)
Reading data file ...
  orthogonal box = (0 0 0) to (17.469 17.469 17.469)
  1 by 1 by 1 MPI processor grid
  reading atoms ...
  217 atoms
  read_data CPU = 0.00103773 secs
Reading potential file library.meam with DATE: 2012-06-29
Reading potential file LiSi.meam with DATE: 2020-11-07
1 atoms in group Li
Neighbor list info ...
  update every 1 steps, delay 10 steps, check yes
  max neighbors/atom: 2000, page size: 100000
  master list distance cutoff = 6
  ghost atom cutoff = 6
  binsize = 3, bins = 6 6 6
  2 neighbor lists, perpetual/occasional/extra = 2 0 0
  (1) pair meam/c, perpetual
      attributes: full, newton on
      pair build: full/bin/atomonly
      stencil: full/bin/3d
      bin: standard
  (2) pair meam/c, perpetual, half/full from (1)
      attributes: half, newton on
      pair build: halffull/newton
      stencil: none
      bin: none
Setting up Verlet run ...
  Unit style    : metal
  Current step  : 0
  Time step     : 0.00347596
Per MPI rank memory allocation (min/avg/max) = 9.27 | 9.27 | 9.27 Mbytes
Step PotEng KinEng TotEng Temp Press Density c_msdli[4] 
       0   -951.04357    50.256344   -900.78722         1800   -114161.75    1.8918427            0 
     100   -955.23976    39.616735   -915.62303    1418.9278   -9835.7234     2.164697   0.17302183 
     200   -949.19104     39.92768   -909.26336    1430.0647    26498.398    2.2449153   0.42627632 
     300   -949.84817    46.070232   -903.77794    1650.0687    21279.559    2.2334835   0.33778409 
     400   -946.16153    46.237381   -899.92414    1656.0553   -6615.6299    2.1549869   0.11579712 
     500   -939.02868    43.956966   -895.07171    1574.3791   -18572.015    2.1077197   0.18851814 
     600   -938.03863    45.740086   -892.29855     1638.244   -7049.2092    2.1375762  0.097615361 
     700   -938.19355    50.170592   -888.02295    1796.9287    11618.673    2.1857505   0.65988117 
     800   -939.64581    51.017668   -888.62814    1827.2679    15497.492    2.2005958    0.2637929 
     900    -947.0997    48.593162   -898.50653    1740.4308    295.55322    2.1756282   0.19041432 
    1000   -938.12277    47.960318   -890.16245    1717.7646   -15184.142    2.1171896   0.08385113 
    1100   -938.43249    49.946366   -888.48613    1788.8977   -9734.9881    2.1289465   0.13203918 
    1200   -944.22212    52.273049   -891.94907     1872.231    8940.8875    2.1863172    0.5222451 
    1300   -941.84544    45.674424   -896.17102    1635.8922    19809.119    2.2161017   0.12858544 
    1400   -936.79397    50.684993   -886.10897    1815.3526   -274.23944    2.1524682   0.46681436 
    1500   -937.66184    47.956141    -889.7057    1717.6151   -14460.031    2.1200554    0.4876202 
    1600   -939.29869    45.283559   -894.01513    1621.8929    -9646.395    2.1336897   0.10856976 
    1700   -940.01321    51.191926   -888.82129    1833.5091    9667.7413    2.1800012   0.60315856 
    1800   -939.21093    55.126062   -884.08487    1974.4156    15167.757    2.1922667   0.49435102 
    1900   -941.59291      51.0906   -890.50231      1829.88   -2884.9833    2.1578515   0.25190814 
    2000   -938.83477    46.783455   -892.05131    1675.6137   -13792.004    2.1222918  0.085144147 
    2100   -933.52566    51.532536   -881.99312    1845.7086   -9808.9152    2.1206647   0.14151284 
    2200   -939.55865    51.102378   -888.45627    1830.3018    10046.051    2.1833787    0.2860506 
    2300   -939.16844    48.392117   -890.77632    1733.2301     14866.28     2.197703   0.39642058 
    2400   -939.91189    52.027351   -887.88454     1863.431    490.13456    2.1596731  0.038163496 
    2500   -937.65834    54.214932    -883.4434    1941.7823   -15446.086    2.1124428   0.44581979 
    2600   -943.01822    48.162987   -894.85523    1725.0235   -3569.7036    2.1536074   0.16293587 
    2700   -943.77614    53.465048   -890.31109    1914.9241    4890.8933    2.1805486   0.26054949 
    2800   -938.12804     52.83914    -885.2889    1892.5064    10670.154    2.1795741   0.11207881 
    2900   -941.08145    47.928278   -893.15317    1716.6171   -4315.7793    2.1565739   0.12987464 
    3000   -940.88611    46.566077   -894.32003     1667.828   -10552.387    2.1351598   0.12795948 
    3100   -937.45438    49.568124   -887.88626    1775.3504   -6496.0937    2.1427253   0.49022369 
    3200   -941.57902    51.766329   -889.81269    1854.0822    6248.1759    2.1796099   0.16006314 
    3300   -942.22665    46.024482   -896.20217      1648.43    13059.158    2.2004747     0.195304 
    3400   -938.63077    52.267761     -886.363    1872.0417   -1923.6782    2.1493669   0.39691172 
    3500   -940.09024    50.984664   -889.10558    1826.0858    -10575.36    2.1333629   0.24661793 
    3600    -941.4479    46.107568   -895.34033    1651.4059   -4362.2637    2.1541213   0.27981353 
    3700   -935.99514    47.604997   -888.39015    1705.0384    8891.8967    2.1769898  0.028764744 
    3800   -938.19631    52.447903   -885.74841    1878.4937    13186.153    2.1854223    0.1671821 
    3900   -943.04532     50.31399   -892.73133    1802.0647   -195.23891     2.165015   0.18676608 
    4000   -938.27749    50.077622   -888.19987    1793.5988   -9125.2336    2.1321844  0.063700548 
    4100   -936.44092     52.24929   -884.19163    1871.3801   -8960.3926    2.1295213  0.094222104 
    4200    -940.8799    49.066298    -891.8136    1757.3769    5480.7846    2.1699399   0.39452379 
    4300   -938.71316    48.990749   -889.72241     1754.671    11832.333    2.1885724   0.31618437 
    4316   -937.53147    49.337926   -888.19355    1767.1056    9000.6387    2.1769859  0.080344876 
Loop time of 3.07354 on 1 procs for 4316 steps with 217 atoms

Performance: 421.728 ns/day, 0.057 hours/ns, 1404.246 timesteps/s
100.0% CPU use with 1 MPI tasks x no OpenMP threads

MPI task timing breakdown:
Section |  min time  |  avg time  |  max time  |%varavg| %total
---------------------------------------------------------------
Pair    | 2.9013     | 2.9013     | 2.9013     |   0.0 | 94.40
Neigh   | 0.10357    | 0.10357    | 0.10357    |   0.0 |  3.37
Comm    | 0.021306   | 0.021306   | 0.021306   |   0.0 |  0.69
Output  | 0.0013001  | 0.0013001  | 0.0013001  |   0.0 |  0.04
Modify  | 0.039372   | 0.039372   | 0.039372   |   0.0 |  1.28
Other   |            | 0.006689   |            |       |  0.22

Nlocal:    217 ave 217 max 217 min
Histogram: 1 0 0 0 0 0 0 0 0 0
Nghost:    957 ave 957 max 957 min
Histogram: 1 0 0 0 0 0 0 0 0 0
Neighs:    4202 ave 4202 max 4202 min
Histogram: 1 0 0 0 0 0 0 0 0 0
FullNghs:  8404 ave 8404 max 8404 min
Histogram: 1 0 0 0 0 0 0 0 0 0

Total # of neighbors = 8404
Ave neighs/atom = 38.7281
Neighbor list builds = 176
Dangerous builds = 0
Total wall time: 0:00:03
