LAMMPS (3 Mar 2020)

    # ---------- Initialize simulation ---------------------
    units metal
    atom_style atomic
    dimension  3
    boundary   p p p
    read_data /home/modeler/RemLabs/Lab4/Problem2A_size_3/temp_2100/lammps.data
  orthogonal box = (0 0 0) to (12.27 12.27 12.27)
  1 by 1 by 1 MPI processor grid
  reading atoms ...
  108 atoms
  read_data CPU = 0.000944923 secs

    pair_style eam
    pair_coeff * * /usr/share/lammps-stable/potentials/Ag_u3.eam
Reading potential file /usr/share/lammps-stable/potentials/Ag_u3.eam with DATE: 2007-06-11

    velocity  all create 2100 87287 dist gaussian

    # ---------- Describe computed properties------------------
    compute msdall all msd
    thermo_style custom step pe ke etotal temp press density c_msdall[4]
    thermo 100

    # ---------- Specify ensemble  ---------------------
    #fix  1 all nve
    fix  1 all nvt temp 2100 2100 0.25

    # --------- Compute RDF ---------------
    compute rdfall all rdf 100 1 1
    fix 2 all ave/time 1 25000 25000 c_rdfall[*] file /home/modeler/RemLabs/Lab4/Problem2A_size_3/temp_2100/lammps.rdf mode vector

    # --------- Run -------------
    timestep 0.005
    run 100000
Neighbor list info ...
  update every 1 steps, delay 10 steps, check yes
  max neighbors/atom: 2000, page size: 100000
  master list distance cutoff = 7.55
  ghost atom cutoff = 7.55
  binsize = 3.775, bins = 4 4 4
  2 neighbor lists, perpetual/occasional/extra = 1 1 0
  (1) pair eam, perpetual
      attributes: half, newton on
      pair build: half/bin/atomonly/newton
      stencil: half/bin/3d/newton
      bin: standard
  (2) compute rdf, occasional, copy from (1)
      attributes: half, newton on
      pair build: copy
      stencil: none
      bin: none
Per MPI rank memory allocation (min/avg/max) = 3.723 | 3.723 | 3.723 Mbytes
Step PotEng KinEng TotEng Temp Press Density c_msdall[4] 
       0       -307.8    29.044755   -278.75525         2100    16793.902    10.472245            0 
     100   -289.21887    21.233972    -267.9849    1535.2632    76650.996    10.472245   0.10213604 
     200   -278.47991     26.78435   -251.69556    1936.5677    113713.97    10.472245    0.1382739 
     300   -276.12466    33.141161    -242.9835    2396.1792    122684.53    10.472245   0.23711484 
     400   -279.20824    29.260829   -249.94741    2115.6227    112300.08    10.472245   0.18554406 
     500   -280.68792    27.458724    -253.2292    1985.3265    104081.11    10.472245   0.17310137 
     600   -275.01226    28.589957   -246.42231    2067.1171    124243.56    10.472245   0.20397741 
     700   -280.66371    30.965444   -249.69827    2238.8701    107057.36    10.472245   0.15196155 
     800   -280.74155    28.219965   -252.52159    2040.3659    106530.49    10.472245    0.1624246 
     900   -278.53977    30.800476   -247.73929    2226.9426    112233.68    10.472245   0.16524906 
    1000   -279.70198     30.38287   -249.31911    2196.7487    111074.38    10.472245   0.14726623 
    1100   -281.52738     27.67594   -253.85143    2001.0317    103736.49    10.472245   0.13941208 
    1200   -274.18776    28.066165   -246.12159    2029.2458    127971.29    10.472245     0.214147 
    1300   -277.39338     29.43071   -247.96267    2127.9054    117640.67    10.472245   0.20150803 
    1400   -283.14685    26.532422   -256.61443    1918.3528    97963.957    10.472245   0.12579521 
    1500   -281.84277     26.09126   -255.75151    1886.4558    102588.09    10.472245   0.14947654 
    1600    -278.0992    29.672174   -248.42703    2145.3638    116033.92    10.472245   0.18514065 
    1700   -275.00454    29.579208   -245.42533    2138.6422    125156.83    10.472245   0.17634609 
    1800   -279.63068    25.748584   -253.88209    1861.6795    109102.29    10.472245   0.14812741 
    1900   -280.44343    31.930769   -248.51266    2308.6652    110898.52    10.472245   0.15499799 
    2000   -277.56454    30.252769   -247.31177    2187.3421    115946.14    10.472245   0.19248871 
    2100   -278.46606    29.687664    -248.7784    2146.4838    114829.36    10.472245   0.16944593 
    2200   -281.90619    28.182073   -253.72412    2037.6262     102869.5    10.472245    0.1833159 
    2300   -280.14164    28.323382   -251.81826    2047.8432     109115.9    10.472245   0.18721721 
    2400    -278.0339    31.967838   -246.06606    2311.3454    118299.53    10.472245   0.21012359 
    2500   -278.72881    26.363097   -252.36571    1906.1103    111050.06    10.472245   0.18626378 
    2600   -281.87054    27.503433    -254.3671     1988.559     103960.9    10.472245    0.1570844 
    2700   -281.05478    35.350568   -245.70421    2555.9243    110140.56    10.472245   0.13290648 
    2800   -277.50039    26.347767   -251.15262    1905.0018    116664.25    10.472245   0.19138781 
    2900   -277.35203    26.070565   -251.28146    1884.9595     116520.8    10.472245   0.20758998 
    3000   -275.91149    30.762064   -245.14942    2224.1653    121266.14    10.472245   0.21115135 
    3100   -280.94015    29.509079   -251.43107    2133.5717    105921.53    10.472245   0.15725603 
    3200   -278.26167    30.370212   -247.89145    2195.8335    116426.68    10.472245   0.17446458 
    3300   -277.26015    31.623231   -245.63692    2286.4296    119781.45    10.472245   0.18172606 
    3400   -280.77981    30.095173   -250.68464    2175.9476    108292.69    10.472245   0.13406899 
    3500   -276.53127    28.273238   -248.25803    2044.2176     118725.1    10.472245   0.18524511 
    3600   -273.88529    35.271261   -238.61403    2550.1902    130893.39    10.472245   0.21902613 
    3700   -277.27086    26.969264    -250.3016    1949.9374    118393.38    10.472245   0.18353968 
    3800    -278.8549    28.784136   -250.07076    2081.1567    113232.53    10.472245   0.17590524 
    3900   -280.54258     34.75016   -245.79242    2512.5134     112068.2    10.472245   0.17739213 
    4000   -281.26185    26.619274   -254.64257    1924.6324    104817.45    10.472245   0.18270136 
    4100    -276.0205    26.237314   -249.78318    1897.0159    120450.44    10.472245   0.17796533 
    4200    -276.7149    30.279297    -246.4356    2189.2601    121387.24    10.472245    0.2087951 
    4300   -276.43012    29.749575   -246.68055    2150.9601    119469.34    10.472245   0.19944156 
    4400   -284.83016    32.005648   -252.82451    2314.0791    94618.557    10.472245   0.12418194 
    4500   -276.06899    29.561916   -246.50707    2137.3919    122797.42    10.472245   0.17435833 
    4600   -280.30664    33.051435    -247.2552    2389.6919    109240.94    10.472245     0.183051 
    4700   -284.19402    28.253919    -255.9401    2042.8208    93362.749    10.472245    0.1414667 
    4800   -282.07859    27.009296    -255.0693    1952.8318    101873.85    10.472245   0.12291602 
    4900   -279.49488    31.689714   -247.80517    2291.2364    114412.54    10.472245   0.15316611 
    5000    -276.5731    31.342851   -245.23025    2266.1574    121694.11    10.472245   0.16935552 
    5100   -280.16141    26.323003   -253.83841    1903.2114    107195.24    10.472245   0.15827378 
    5200   -276.87566    26.962547   -249.91311    1949.4518    118831.31    10.472245   0.21816139 
    5300   -282.26868    35.527789   -246.74089    2568.7377    107173.21    10.472245   0.15997774 
    5400   -278.58961     27.83739   -250.75222    2012.7049    112331.02    10.472245   0.16147594 
    5500   -280.14035     28.75094   -251.38941    2078.7565    110267.69    10.472245   0.15514595 
    5600   -273.74059     27.90941   -245.83118    2017.9121    128145.88    10.472245   0.20294968 
    5700   -279.17986    26.578582   -252.60128    1921.6902    111325.13    10.472245   0.17962572 
    5800   -281.39344    30.098093   -251.29534    2176.1587    107431.66    10.472245   0.15394575 
    5900   -276.59029    27.251183   -249.33911    1970.3208    119290.25    10.472245   0.18528369 
    6000   -277.47237    27.477204   -249.99516    1986.6627    118096.64    10.472245   0.17139142 
    6100   -281.69449    24.294383   -257.40011    1756.5376    102742.66    10.472245    0.1416198 
    6200   -278.89056    29.072342   -249.81822    2101.9946    113656.42    10.472245   0.17541449 
    6300   -277.96956    29.855695   -248.11386    2158.6328    116367.65    10.472245   0.20301436 
    6400   -278.74545    27.760676   -250.98477    2007.1583    112121.38    10.472245   0.19989541 
    6500   -281.62767    30.329261   -251.29841    2192.8727    105483.32    10.472245    0.1453939 
    6600   -273.03033     28.56646   -244.46387    2065.4183    132428.58    10.472245   0.20749331 
    6700   -281.54329    28.520763   -253.02253    2062.1142    105639.16    10.472245   0.14583902 
    6800   -277.72411     28.64158   -249.08253    2070.8496    114214.78    10.472245   0.19602465 
    6900   -271.85216    25.934838   -245.91732    1875.1462    133697.11    10.472245   0.28705517 
    7000      -276.63    35.482106   -241.14789    2565.4347    122002.71    10.472245   0.17704606 
    7100   -278.34322    27.549966   -250.79326    1991.9235    114376.99    10.472245   0.18627059 
    7200   -276.68287    27.297415   -249.38545    1973.6635    117777.63    10.472245   0.17167415 
    7300   -271.45798    28.734547   -242.72343    2077.5713    133173.22    10.472245   0.20973322 
    7400   -279.12822    27.516333   -251.61188    1989.4918    110381.96    10.472245   0.20466775 
    7500   -275.42055    27.487223   -247.93333     1987.387    123692.76    10.472245   0.18758251 
    7600   -274.81878    34.656468   -240.16231    2505.7393    129438.19    10.472245   0.22072302 
    7700   -278.94059    28.964763   -249.97583    2094.2164    113210.83    10.472245   0.19586429 
    7800    -277.4861    27.516057   -249.97004    1989.4718    116790.52    10.472245   0.17644066 
    7900   -275.27283    30.729733   -244.54309    2221.8276    125455.58    10.472245   0.18896195 
    8000    -277.5058     24.41508   -253.09072    1765.2643    112044.25    10.472245   0.20011933 
    8100   -274.81614     25.45795   -249.35819    1840.6661    125597.68    10.472245   0.21932537 
    8200   -276.73612    32.021898   -244.71422    2315.2541    123276.06    10.472245   0.16745473 
    8300   -281.00607      31.1405   -249.86557    2251.5271     109288.1    10.472245   0.17801092 
    8400   -279.50971     28.10616   -251.40355    2032.1375    110397.78    10.472245   0.18734771 
    8500   -276.43962    31.148365   -245.29125    2252.0957    118980.62    10.472245   0.23705538 
    8600   -278.15708     28.26453   -249.89255     2043.588    113918.26    10.472245   0.20207319 
    8700   -279.23918    27.023801   -252.21538    1953.8806    111030.46    10.472245   0.14934405 
    8800   -277.39983    27.753536   -249.64629    2006.6421    116823.23    10.472245   0.21278205 
    8900   -276.94205    27.676542   -249.26551    2001.0752    118442.94    10.472245   0.20361735 
    9000   -278.76915    25.672216   -253.09693     1856.158    110920.67    10.472245   0.18665695 
    9100   -276.69416    29.352199   -247.34196    2122.2289    118287.77    10.472245   0.20973091 
    9200   -280.84628    33.516902   -247.32938    2423.3461    108621.71    10.472245   0.15201579 
    9300   -277.61648    26.742549   -250.87393    1933.5454    115275.92    10.472245   0.19127033 
    9400   -280.01292    32.916897   -247.09602    2379.9645    111440.79    10.472245   0.16413874 
    9500   -278.41784    25.248586   -253.16926    1825.5286    113104.34    10.472245   0.16484185 
    9600    -280.3239     27.87905   -252.44485    2015.7169    106774.93    10.472245   0.13387814 
    9700   -277.29347    29.756124   -247.53734    2151.4336    120338.43    10.472245   0.20067974 
    9800   -276.48148    25.681271   -250.80021    1856.8127     117414.5    10.472245   0.16518195 
    9900   -280.61494    27.016666   -253.59827    1953.3647    105213.14    10.472245   0.19315867 
   10000   -277.11881    28.926519   -248.19229    2091.4513    117735.47    10.472245     0.181244 
   10100   -281.44908    30.755654   -250.69343    2223.7018    106228.58    10.472245   0.12808079 
   10200   -283.17058     28.44425   -254.72633    2056.5822    101365.08    10.472245   0.13095716 
   10300   -277.57323    28.518492   -249.05474    2061.9501    117689.78    10.472245   0.18814229 
   10400   -281.34739    31.190373   -250.15701    2255.1329    106335.91    10.472245    0.1525993 
   10500   -282.27622    26.350478   -255.92575    1905.1979     100063.9    10.472245   0.13927408 
   10600   -277.67753     29.78017   -247.89736    2153.1722    116208.36    10.472245   0.16709027 
   10700   -278.75033    29.622188   -249.12814    2141.7497    115971.45    10.472245   0.18125355 
   10800   -284.43661    28.630972   -255.80564    2070.0826    94346.213    10.472245   0.11561237 
   10900    -277.3428    29.447638   -247.89516    2129.1294    117747.05    10.472245   0.19769204 
   11000   -278.27253    30.049831    -248.2227    2172.6692     116103.9    10.472245   0.19249533 
   11100   -281.09112    26.873309   -254.21781    1942.9997    107399.11    10.472245   0.14809169 
   11200   -278.80294    25.354375   -253.44856    1833.1774     111443.1    10.472245   0.21446882 
   11300   -278.32757    31.110712   -247.21686    2249.3733    114924.17    10.472245   0.19072491 
   11400   -278.00577    26.246611   -251.75916     1897.688    115391.22    10.472245   0.20941461 
   11500   -278.37266    25.435995   -252.93666    1839.0787    112059.59    10.472245   0.18433466 
   11600   -276.96225    31.154088   -245.80816    2252.5095    121278.02    10.472245   0.18364133 
   11700   -276.68984    24.083426   -252.60642     1741.285    117990.05    10.472245   0.20446244 
   11800    -279.6553    27.910041   -251.74526    2017.9577    108863.02    10.472245   0.16029147 
   11900   -278.46987    29.812758   -248.65711    2155.5284    113562.39    10.472245   0.19037487 
   12000   -274.02352    28.790271   -245.23325    2081.6003     126213.8    10.472245   0.21352249 
   12100   -276.85588    28.380935   -248.47494    2052.0044    117117.84    10.472245   0.20042437 
   12200   -280.83022    28.237148   -252.59308    2041.6082    105976.03    10.472245   0.19226183 
   12300   -272.24046    28.832755   -243.40771     2084.672    134026.18    10.472245   0.27585344 
   12400   -275.27815    28.484437   -246.79371    2059.4878    122874.38    10.472245   0.24157854 
   12500   -279.35917    28.024207   -251.33496    2026.2122    110724.91    10.472245   0.16251187 
   12600   -277.89815    28.953625   -248.94453    2093.4111    115695.32    10.472245   0.14308145 
   12700   -278.47022     29.61008   -248.86014    2140.8743    112300.58    10.472245   0.19704405 
   12800   -277.55491    28.317563   -249.23734    2047.4225    114533.87    10.472245   0.18423686 
   12900   -281.27317    27.152751   -254.12042     1963.204     105808.7    10.472245   0.13325587 
   13000   -279.05397    30.095394   -248.95858    2175.9636    113401.42    10.472245   0.14949533 
   13100   -276.63439    29.116267   -247.51812    2105.1705    121132.67    10.472245    0.1993586 
   13200   -283.49684    28.936154   -254.56069     2092.148    99573.883    10.472245   0.13223025 
   13300   -277.56804    31.571032   -245.99701    2282.6554    118977.87    10.472245   0.17913198 
   13400   -280.21723    30.827469   -249.38976    2228.8942     109053.9    10.472245   0.15627572 
   13500   -279.08617    26.886178   -252.19999    1943.9301     110626.5    10.472245   0.14151148 
   13600   -276.24762    33.190546   -243.05708    2399.7499    124883.08    10.472245   0.19157479 
   13700   -278.27688    30.411514   -247.86537    2198.8197    116626.15    10.472245   0.15418225 
   13800   -279.49326    27.729354    -251.7639    2004.8936    108127.95    10.472245   0.17354264 
   13900   -273.80234    31.980599   -241.82174     2312.268    128735.96    10.472245    0.2243383 
   14000    -275.4271    29.005202    -246.4219    2097.1402    124878.13    10.472245   0.21031318 
   14100   -278.82959    27.919858   -250.90974    2018.6675    115715.89    10.472245   0.16951279 
   14200   -281.93631    26.490181   -255.44613    1915.2987    100326.16    10.472245   0.15643392 
   14300   -278.11243    28.420931    -249.6915    2054.8962    113020.42    10.472245   0.16475651 
   14400   -278.13562    30.407774   -247.72785    2198.5493    116865.95    10.472245   0.15895295 
   14500   -282.64236    27.420109   -255.22225    1982.5345    99796.899    10.472245   0.13912728 
   14600   -277.44531    28.868512   -248.57679    2087.2573    116349.67    10.472245   0.16006929 
   14700   -277.05998    27.384105   -249.67588    1979.9314    117869.44    10.472245   0.15536645 
   14800   -280.32648    27.860156   -252.46632    2014.3509    107295.57    10.472245   0.12917836 
   14900   -278.66534    32.240872   -246.42446    2331.0863    115647.59    10.472245   0.17352582 
   15000   -280.12923    32.322804   -247.80642    2337.0102    111018.89    10.472245   0.16609025 
   15100   -278.26673    26.284953   -251.98177    1900.4603    114386.33    10.472245   0.16002542 
   15200   -276.50859    28.587886   -247.92071    2066.9674    119043.75    10.472245   0.22719535 
   15300   -276.84795    33.031458   -243.81649    2388.2475    123376.98    10.472245    0.1676815 
   15400   -282.12197    30.135365   -251.98661    2178.8535    103357.68    10.472245   0.13775716 
   15500   -279.84213    30.091709   -249.75043    2175.6972     111005.3    10.472245   0.16306212 
   15600   -276.84866     31.64174   -245.20692    2287.7678    120027.91    10.472245   0.20498086 
   15700   -278.48418    28.847216   -249.63697    2085.7175    114710.21    10.472245   0.16643369 
   15800   -279.45227    30.183281   -249.26899     2182.318    110324.44    10.472245   0.16864702 
   15900   -273.70984    31.677716   -242.03213     2290.369    128874.23    10.472245   0.18113806 
   16000   -281.36662    32.154247   -249.21238    2324.8232    106405.61    10.472245    0.1752997 
   16100   -282.23727    31.347017   -250.89026    2266.4587    101990.73    10.472245   0.16552615 
   16200   -276.77787    33.401272   -243.37659    2414.9858    120716.58    10.472245   0.15350641 
   16300   -276.59013    27.197187   -249.39294    1966.4168    119329.21    10.472245   0.17840041 
   16400   -280.83873    30.013564   -250.82516     2170.047    107013.49    10.472245   0.15258062 
   16500   -278.08542    31.468419     -246.617    2275.2363    118979.69    10.472245    0.1700008 
   16600   -277.34886    35.675714   -241.67315     2579.433    122204.64    10.472245   0.16808978 
   16700   -275.27537     26.26442   -249.01095    1898.9756    120731.08    10.472245   0.21545529 
   16800   -282.04052     30.33772    -251.7028    2193.4843    104374.16    10.472245   0.14799568 
   16900   -279.53005    29.119784   -250.41027    2105.4248    109865.09    10.472245   0.14585204 
   17000   -276.45134    31.853475   -244.59786    2303.0767    120942.78    10.472245   0.18227651 
   17100   -276.54623    23.975371   -252.57086    1733.4723    119513.11    10.472245   0.23472316 
   17200   -280.34742    30.419708   -249.92771    2199.4121    109581.97    10.472245   0.14935339 
   17300   -275.15222    30.750082   -244.40214    2223.2989    124233.33    10.472245   0.18918728 
   17400   -275.08788    31.059822   -244.02805    2245.6938    123608.22    10.472245   0.21170847 
   17500     -280.478     29.06035   -251.41765    2101.1276    107607.46    10.472245   0.15658828 
   17600   -279.89804    31.688354   -248.20968    2291.1381    110251.28    10.472245   0.15606212 
   17700   -278.22778    34.360406   -243.86737    2484.3334    115776.12    10.472245   0.17821052 
   17800   -278.13214    27.760755   -250.37139     2007.164    113927.53    10.472245   0.15469477 
   17900   -277.50234    28.309612   -249.19273    2046.8475    117612.47    10.472245   0.18887595 
   18000   -273.81988    30.150735   -243.66915    2179.9648    129373.49    10.472245   0.22773011 
   18100   -278.37954    25.503835    -252.8757    1843.9837     116204.5    10.472245   0.21221372 
   18200   -278.21144    30.195545   -248.01589    2183.2047    113751.23    10.472245   0.19247068 
   18300   -277.77947    30.119661   -247.65981    2177.7181    116461.65    10.472245   0.20031715 
   18400   -277.77169    24.258882   -253.51281    1753.9708    113454.64    10.472245   0.16243664 
   18500   -276.62382    29.398826     -247.225    2125.6002    122399.53    10.472245   0.18291976 
   18600   -279.29534    30.763551   -248.53179    2224.2727    111897.26    10.472245   0.17577506 
   18700   -276.72327    26.970899   -249.75237    1950.0557    117218.33    10.472245    0.1507439 
   18800   -280.61414    31.437711   -249.17643     2273.016    109396.69    10.472245   0.14796841 
   18900   -280.12858    30.612077    -249.5165    2213.3208     110008.5    10.472245   0.14134222 
   19000   -282.70245    28.847927   -253.85452    2085.7689    100145.93    10.472245   0.14712168 
   19100   -279.59964    29.933387   -249.66625    2164.2501    111502.71    10.472245   0.14736196 
   19200    -273.4536    25.226832   -248.22677    1823.9558    128665.03    10.472245   0.22113902 
   19300   -281.70189    27.612949   -254.08895    1996.4773    102802.93    10.472245   0.16642247 
   19400   -278.65278    25.932638   -252.72014    1874.9871    110908.53    10.472245   0.16594479 
   19500   -277.79669    30.222901   -247.57379    2185.1826    116666.44    10.472245   0.18422717 
   19600   -278.24612    28.863541   -249.38258    2086.8979    115602.25    10.472245   0.17382919 
   19700   -281.16802    26.674599   -254.49342    1928.6325    104031.26    10.472245   0.13808678 
   19800   -277.47186    30.641416   -246.83044    2215.4422    117668.19    10.472245    0.1421645 
   19900   -282.60293    32.353692   -250.24924    2339.2435    103122.35    10.472245   0.12692541 
   20000   -282.54964    24.522222   -258.02742    1773.0109    98330.513    10.472245   0.12304683 
   20100   -281.38318    28.789181   -252.59399    2081.5215    106809.45    10.472245    0.1435336 
   20200   -278.94266    31.031805   -247.91086    2243.6682    114071.45    10.472245   0.18249874 
   20300   -273.20431    25.941063   -247.26324    1875.5963    128453.18    10.472245   0.25229672 
   20400   -279.98588    25.446857   -254.53902    1839.8641    107267.58    10.472245   0.16122158 
   20500    -277.6649    29.373542   -248.29136    2123.7721    114351.97    10.472245   0.15914987 
   20600   -278.53394    29.648105   -248.88584    2143.6236    113624.91    10.472245   0.19312163 
   20700   -276.17496     26.18759   -249.98737    1893.4207    118564.92    10.472245   0.16899954 
   20800   -277.92834    24.845702   -253.08264    1796.3992    113856.09    10.472245   0.16652408 
   20900   -274.31905    28.887768   -245.43128    2088.6495    126786.64    10.472245   0.19120049 
   21000   -279.52435     30.73088   -248.79347    2221.9106    110589.27    10.472245   0.16093621 
   21100   -279.75111    21.641307    -258.1098    1564.7144    106892.91    10.472245   0.15774485 
   21200   -278.55266    28.408658     -250.144    2054.0088    113595.94    10.472245    0.1830253 
   21300   -276.87301    30.450642   -246.42237    2201.6488    120538.08    10.472245   0.19457932 
   21400   -276.45364    24.107642     -252.346    1743.0358    117273.53    10.472245   0.19645581 
   21500   -276.28278    27.370441   -248.91234    1978.9434    120337.39    10.472245    0.1987552 
   21600   -277.06089    31.313181   -245.74771    2264.0122    120948.41    10.472245   0.17884222 
   21700   -279.38586    27.724061    -251.6618     2004.511    111939.99    10.472245   0.17265905 
   21800   -275.63944    27.918066   -247.72138    2018.5379    124163.08    10.472245   0.19569319 
   21900   -279.33021    34.862978   -244.46723    2520.6704    115490.73    10.472245   0.16523694 
   22000    -280.1462    29.416871   -250.72933    2126.9048    109298.39    10.472245   0.14893361 
   22100   -279.06823    28.298373   -250.76985    2046.0349    113116.26    10.472245   0.16007505 
   22200   -274.27347    30.158043   -244.11543    2180.4932    130133.32    10.472245    0.2093141 
   22300    -281.6625    29.943117   -251.71939    2164.9536    104015.31    10.472245   0.17538742 
   22400   -279.20627    29.465243   -249.74103    2130.4023    111968.12    10.472245   0.17754991 
   22500   -274.03567    33.244905   -240.79076    2403.6802    130990.51    10.472245   0.20238237 
   22600   -275.30815     28.44571   -246.86244    2056.6877    122282.19    10.472245   0.17608214 
   22700   -279.30259    28.177567   -251.12503    2037.3004    113070.53    10.472245   0.13861431 
   22800   -277.86664    26.507255   -251.35938    1916.5332    113856.19    10.472245    0.1768382 
   22900   -274.41334    29.991175   -244.42216    2168.4283     125384.6    10.472245    0.2115575 
   23000   -281.43335    30.223159   -251.21019    2185.2013    105978.16    10.472245   0.16085301 
   23100     -279.886    29.396358   -250.48965    2125.4217    108362.58    10.472245    0.1432799 
   23200   -276.98677      31.7038   -245.28297    2292.2549    119795.68    10.472245   0.16380887 
   23300   -277.26413    29.996719   -247.26741    2168.8291    119257.17    10.472245   0.18772889 
   23400   -276.96603     25.13462   -251.83141    1817.2886     117921.6    10.472245   0.17972358 
   23500   -278.30603    32.691621    -245.6144    2363.6765    118683.57    10.472245   0.16656467 
   23600   -280.02431    27.925594   -252.09872    2019.0822    108815.08    10.472245   0.18312674 
   23700   -279.78139    29.098558   -250.68284    2103.8901     108876.2    10.472245   0.14799745 
   23800   -278.05989    31.372672   -246.68722    2268.3136    116248.83    10.472245   0.16797014 
   23900   -279.10202    30.166546   -248.93547     2181.108    111596.04    10.472245   0.21003929 
   24000    -274.1149    24.580107    -249.5348    1777.1961    125016.28    10.472245   0.19688436 
   24100   -281.89796    25.773281   -256.12468    1863.4652    102472.14    10.472245   0.14516899 
   24200   -277.38033    29.370683   -248.00964    2123.5653    117543.63    10.472245   0.16682734 
   24300   -278.94136    30.411009   -248.53035    2198.7832    112680.85    10.472245   0.17018787 
   24400   -282.19723    27.520306   -254.67692     1989.779    99325.412    10.472245   0.15071698 
   24500   -278.30499    29.134479   -249.17051    2106.4873    115180.99    10.472245   0.21633242 
   24600   -276.00695    28.433424   -247.57352    2055.7994    122405.68    10.472245   0.15126628 
   24700   -279.99509    28.479321   -251.51577    2059.1179    108991.22    10.472245   0.15526246 
   24800    -274.9443    32.702087   -242.24221    2364.4333    125617.22    10.472245   0.22586019 
   24900   -275.22896    26.955543   -248.27342    1948.9454    121549.13    10.472245    0.1937623 
   25000   -277.77063    26.720037   -251.05059    1931.9178    115468.32    10.472245   0.15901294 
   25100   -275.86758     26.48922   -249.37836    1915.2292    120029.18    10.472245   0.20789309 
   25200   -278.69483     33.02479   -245.67004    2387.7654    116078.31    10.472245   0.15360558 
   25300   -279.07744    27.561178   -251.51626    1992.7341     110444.9    10.472245   0.18527815 
   25400   -277.65737    28.788774   -248.86859     2081.492    114619.76    10.472245   0.20231219 
   25500     -278.149    27.427694    -250.7213    1983.0829    115673.82    10.472245   0.19774078 
   25600   -283.93243    27.789252   -256.14318    2009.2244     97283.43    10.472245    0.1314341 
   25700    -278.3544    29.136195   -249.21821    2106.6114    114571.69    10.472245   0.14934278 
   25800   -275.91386    28.915877   -246.99798    2090.6818    122308.32    10.472245   0.18722785 
   25900   -277.44959    28.395123   -249.05447    2053.0302    118056.44    10.472245   0.18112424 
   26000   -285.62161    33.760151   -251.86146    2440.9336     94192.93    10.472245   0.13435116 
   26100    -276.7584    31.724805   -245.03359    2293.7736    120996.51    10.472245   0.20278308 
   26200   -277.80171    29.658126   -248.14359    2144.3481    116359.01    10.472245   0.16016575 
   26300   -280.26403    29.253836    -251.0102     2115.117    108807.87    10.472245    0.1339919 
   26400   -281.03288    27.452179   -253.58071    1984.8533    105121.73    10.472245   0.14320898 
   26500   -277.56874    32.326574   -245.24216    2337.2828    118802.74    10.472245   0.18232559 
   26600   -277.38758    26.982377    -250.4052    1950.8856    115143.94    10.472245   0.15755158 
   26700   -282.38153    31.674721   -250.70681    2290.1524    103725.76    10.472245   0.14908001 
   26800   -278.92277    31.372083   -247.55068     2268.271    113302.91    10.472245   0.21006192 
   26900   -275.00942    32.798166   -242.21126      2371.38    128930.31    10.472245   0.22218512 
   27000   -276.22571     27.97114   -248.25457    2022.3753    119496.63    10.472245   0.20344718 
   27100   -280.10369    28.068721   -252.03497    2029.4306    108372.56    10.472245   0.16535839 
   27200   -282.63618    28.788238   -253.84794    2081.4533    100774.61    10.472245   0.15170182 
   27300    -274.8396    28.260442   -246.57916    2043.2925    125441.67    10.472245   0.19984603 
   27400   -277.84203    26.559175   -251.28285    1920.2871    114706.39    10.472245   0.17277814 
   27500   -281.54945    28.369646   -253.17981    2051.1882    106132.28    10.472245   0.14006958 
   27600   -278.13152    29.151916    -248.9796     2107.748    116398.26    10.472245   0.18444116 
   27700   -274.81607     29.96199   -244.85408    2166.3182    126114.18    10.472245   0.18862004 
   27800   -278.06372    29.078781   -248.98494    2102.4602     114856.4    10.472245   0.19104807 
   27900   -280.61851    28.857284   -251.76122    2086.4455    107021.78    10.472245    0.1396331 
   28000   -276.39483    33.469134    -242.9257    2419.8924    120693.62    10.472245   0.18296015 
   28100    -276.9326    29.232164   -247.70044    2113.5501    118301.99    10.472245    0.1788088 
   28200   -277.66806    29.384806   -248.28325    2124.5864    116250.75    10.472245   0.19253175 
   28300   -276.82412    27.205288   -249.61883    1967.0025    121852.17    10.472245     0.190957 
   28400   -280.57441     27.02601    -253.5484    1954.0403    105970.14    10.472245   0.17415156 
   28500   -274.31992    28.109987   -246.20994    2032.4143    125078.89    10.472245   0.27337478 
   28600   -279.75227    31.935344   -247.81692     2308.996     109450.9    10.472245   0.17850931 
   28700   -278.17496    28.398566    -249.7764    2053.2792    116927.18    10.472245   0.16637076 
   28800   -278.74272     32.30077   -246.44195    2335.4171    116724.06    10.472245   0.15923002 
   28900   -273.46347    24.468314   -248.99516    1769.1132    127081.01    10.472245   0.19676471 
   29000   -277.27463    23.587407   -253.68722    1705.4217    114347.24    10.472245   0.17504889 
   29100   -278.14833     30.85202   -247.29631    2230.6693    116997.07    10.472245   0.14968345 
   29200   -278.20928    29.697384   -248.51189    2147.1865    117608.72    10.472245   0.17499115 
   29300   -283.31598    28.911564   -254.40442      2090.37    98719.007    10.472245   0.14248608 
   29400   -278.72508    27.463479    -251.2616    1985.6703    111479.61    10.472245   0.17653152 
   29500   -275.96987    27.728572   -248.24129    2004.8371    120799.26    10.472245   0.19846211 
   29600   -280.24912     28.64853   -251.60059    2071.3521    109394.91    10.472245   0.14517738 
   29700   -282.31029     28.23949    -254.0708    2041.7776       100668    10.472245    0.1195052 
   29800   -278.53132    32.078273   -246.45305    2319.3301    115425.62    10.472245   0.17774277 
   29900   -276.61809    24.727697   -251.89039    1787.8672       117625    10.472245   0.21054872 
   30000   -276.35089    27.207984   -249.14291    1967.1975    118969.18    10.472245   0.14566477 
   30100   -277.91922    31.602181   -246.31704    2284.9076    117672.26    10.472245    0.1679063 
   30200   -279.61232    27.515558   -252.09676    1989.4357    108131.01    10.472245   0.15321025 
   30300   -278.51617    29.319851   -249.19631    2119.8901    116943.93    10.472245   0.16666812 
   30400   -279.86616    30.989389   -248.87677    2240.6013    110589.94    10.472245   0.16865252 
   30500   -282.77823    26.909661   -255.86857     1945.628    98771.632    10.472245   0.13151642 
   30600   -276.44629    28.458408   -247.98788    2057.6059    118659.49    10.472245   0.16525227 
   30700   -278.02984    28.575513   -249.45432    2066.0728    115348.69    10.472245     0.219301 
   30800    -282.3302     27.40667   -254.92353    1981.5629    101094.87    10.472245   0.13941564 
   30900   -273.33268    25.823298   -247.50939    1867.0816    126026.13    10.472245   0.21085042 
   31000   -275.98463    27.416384   -248.56824    1982.2652    120453.61    10.472245   0.29754095 
   31100   -278.74377    25.137135   -253.60664    1817.4705    115027.69    10.472245   0.17873606 
   31200    -276.7994    27.195333   -249.60407    1966.2827    118575.18    10.472245    0.1915878 
   31300   -277.46606    32.007976   -245.45808    2314.2475     117088.3    10.472245   0.19681093 
   31400   -276.30099    24.430174   -251.87081    1766.3556    118874.74    10.472245   0.19448779 
   31500   -280.26477    30.107689   -250.15708    2176.8525    109936.67    10.472245   0.18957873 
   31600   -277.13958    29.366986   -247.77259    2123.2981     116932.7    10.472245   0.20505736 
   31700   -274.43074    31.930162   -242.50057    2308.6214    126563.48    10.472245   0.21860423 
   31800   -279.57243    28.526208   -251.04623     2062.508    107891.85    10.472245   0.17627286 
   31900   -278.35921    27.142603   -251.21661    1962.4702    113702.98    10.472245   0.18068168 
   32000   -272.00503    28.323906   -243.68113     2047.881    132796.53    10.472245   0.23582862 
   32100   -277.36771    27.629594   -249.73812    1997.6807    119097.67    10.472245   0.25330531 
   32200   -280.68044    32.658554   -248.02188    2361.2857    110554.92    10.472245   0.20334923 
   32300     -271.477    28.385295    -243.0917    2052.3196    136009.18    10.472245   0.23065518 
   32400   -277.95149    30.367999   -247.58349    2195.6735    116951.89    10.472245   0.18966847 
   32500   -281.45229    29.337837   -252.11445    2121.1905    105695.94    10.472245   0.12384321 
   32600    -277.7881    31.884274   -245.90383    2305.3035     117287.1    10.472245   0.23664599 
   32700   -273.85876    30.695434   -243.16332    2219.3478    131448.06    10.472245   0.23184049 
   32800   -279.47661    30.558394   -248.91821    2209.4395    111522.31    10.472245   0.16031899 
   32900   -279.22233    28.768381   -250.45394    2080.0176    109413.03    10.472245   0.18130566 
   33000    -275.1161    30.536325   -244.57977    2207.8438    127857.46    10.472245   0.21963501 
   33100   -281.25501    31.683195   -249.57182    2290.7651     108167.3    10.472245   0.14806937 
   33200   -280.52363     28.89329   -251.63034    2089.0487    105881.34    10.472245   0.17907199 
   33300   -276.41263    28.901638     -247.511    2089.6524    120002.36    10.472245   0.19808334 
   33400   -279.19786    31.200305   -247.99756     2255.851     114399.9    10.472245   0.17444627 
   33500   -282.26632    28.945971   -253.32035    2092.8577    103184.91    10.472245   0.13324371 
   33600   -278.65367    32.081563   -246.57211     2319.568    116320.68    10.472245   0.16091063 
   33700   -277.66001    29.767109    -247.8929    2152.2278    116710.65    10.472245   0.17148536 
   33800   -280.04315    28.480531   -251.56262    2059.2054    109001.35    10.472245   0.14710043 
   33900   -278.62077    29.143838   -249.47693    2107.1639    111133.31    10.472245   0.19555261 
   34000   -275.98322    31.874423    -244.1088    2304.5913    126099.76    10.472245   0.17998044 
   34100   -282.44005    30.459964   -251.98009    2202.3228    103000.01    10.472245   0.15103256 
   34200   -276.21098    25.720192   -250.49079    1859.6268    116964.94    10.472245   0.17105156 
   34300   -279.44445    33.714068   -245.73038    2437.6017    113701.03    10.472245   0.16276223 
   34400   -277.61633    28.464463   -249.15186    2058.0436    118249.75    10.472245   0.18577008 
   34500   -279.26588    31.329028   -247.93686     2265.158    112657.23    10.472245   0.17517251 
   34600   -275.08435     31.36767   -243.71668    2267.9519    127684.04    10.472245   0.18724444 
   34700   -279.95595    28.201855    -251.7541    2039.0565    106966.66    10.472245   0.17129017 
   34800   -279.72739    29.489167   -250.23822     2132.132    109918.67    10.472245   0.16768501 
   34900   -278.52915    34.966078   -243.56307    2528.1248    116677.34    10.472245   0.18286816 
   35000   -279.42909    32.200417   -247.22867    2328.1614    111311.55    10.472245   0.15482844 
   35100   -279.01348    26.299663   -252.71382    1901.5238    110968.05    10.472245   0.15364776 
   35200   -275.94812    30.333506   -245.61461    2193.1796    124431.62    10.472245   0.16241166 
   35300   -279.04659    30.731843   -248.31475    2221.9802     113708.1    10.472245   0.16484661 
   35400   -277.94392    27.879709   -250.06421    2015.7647       115451    10.472245   0.15825655 
   35500   -281.74557    32.719567     -249.026    2365.6971    105117.15    10.472245   0.12106734 
   35600   -278.51849    28.507423   -250.01106    2061.1497    113818.83    10.472245   0.16545885 
   35700   -276.52129    27.243939   -249.27736    1969.7971    117966.52    10.472245   0.19037759 
   35800   -276.77546     34.32893   -242.44653    2482.0576    121333.38    10.472245   0.19590431 
   35900   -279.46208    30.874827   -248.58725    2232.3183    113431.75    10.472245   0.17105974 
   36000   -277.47681    27.865104   -249.61171    2014.7086    118550.27    10.472245   0.17566379 
   36100   -279.20743    32.935116   -246.27231    2381.2818    115717.64    10.472245   0.15714927 
   36200   -277.53175    25.127739   -252.40401    1816.7911    115734.11    10.472245   0.21918149 
   36300   -275.99614    29.448316   -246.54783    2129.1783    122985.63    10.472245   0.16982806 
   36400   -277.24943     32.17128   -245.07815    2326.0547     122121.2    10.472245     0.181493 
   36500   -275.89632    25.840627   -250.05569    1868.3345    120787.19    10.472245   0.17356196 
   36600   -281.32335    29.272381   -252.05097    2116.4579    104611.54    10.472245   0.13682572 
   36700   -273.46149    29.647411   -243.81408    2143.5734    128236.72    10.472245   0.18665131 
   36800   -278.18889    28.147265   -250.04162    2035.1095    114093.24    10.472245   0.15767818 
   36900   -279.61199    28.945194    -250.6668    2092.8016    109975.77    10.472245    0.1581065 
   37000   -280.03977    32.667337   -247.37243    2361.9207    111948.84    10.472245   0.13903648 
   37100    -274.9328    31.422032   -243.51076    2271.8824    126653.81    10.472245   0.21249516 
   37200   -279.00145    29.034064   -249.96739    2099.2271    112142.78    10.472245   0.22817761 
   37300   -278.80462    28.456843   -250.34778    2057.4927    112350.46    10.472245   0.16574428 
   37400   -279.48043    32.995638   -246.48479    2385.6576    112853.69    10.472245   0.16042896 
   37500   -279.74195    30.481438   -249.26052    2203.8754    110335.28    10.472245   0.16663017 
   37600   -281.19443     27.92268   -253.27175    2018.8715    102732.61    10.472245    0.1378402 
   37700   -277.68257    30.357555   -247.32502    2194.9184    118541.71    10.472245   0.17851446 
   37800   -277.47636    27.901198   -249.57517    2017.3183    116026.69    10.472245   0.19514678 
   37900   -279.49918    24.911719   -254.58746    1801.1724    111437.77    10.472245   0.18959209 
   38000   -277.34721    28.984371   -248.36284    2095.6341    118929.96    10.472245   0.14680171 
   38100   -275.78546    27.873415   -247.91204    2015.3096     124133.6    10.472245    0.1992873 
   38200   -281.93606    26.433236   -255.50283    1911.1815    101597.19    10.472245    0.1438758 
   38300   -280.97027      28.9619   -252.00837    2094.0094    106137.46    10.472245   0.16523345 
   38400   -279.28359    31.859572   -247.42402    2303.5175    112526.98    10.472245   0.15872566 
   38500   -280.28127    28.942795   -251.33848    2092.6281    110275.67    10.472245   0.19685992 
   38600   -282.23134    29.122294   -253.10905    2105.6063    100864.08    10.472245   0.14420434 
   38700   -276.69352    29.717892   -246.97562    2148.6693    119037.96    10.472245   0.17511489 
   38800   -278.46713    28.082573   -250.38455    2030.4322    113792.85    10.472245   0.16177618 
   38900   -282.24724    25.629811   -256.61743     1853.092    100686.66    10.472245   0.13978638 
   39000    -278.6934    28.293126   -250.40027    2045.6556    112490.26    10.472245   0.16228935 
   39100   -275.55995    27.102038   -248.45791    1959.5373    122031.13    10.472245   0.18527734 
   39200     -281.333    26.944028   -254.38897    1948.1128    102013.24    10.472245    0.1609232 
   39300   -279.01546    29.477992   -249.53747     2131.324    112826.94    10.472245   0.15206189 
   39400   -276.94881    29.624563   -247.32425    2141.9215    121965.05    10.472245   0.18942332 
   39500   -279.95168    26.274268   -253.67741    1899.6877    109485.24    10.472245   0.14744564 
   39600   -278.07377    28.455166    -249.6186    2057.3715    115522.68    10.472245   0.16119012 
   39700   -278.98752    33.062239   -245.92528     2390.473    114344.03    10.472245   0.16953877 
   39800   -278.05631    26.384709    -251.6716    1907.6728    115507.87    10.472245   0.16791231 
   39900   -271.66927    26.651249   -245.01802    1926.9443    133894.67    10.472245   0.23921104 
   40000   -275.47553    28.726435   -246.74909    2076.9848    123377.74    10.472245   0.17886274 
   40100   -279.47357     29.01977    -250.4538    2098.1936    111222.15    10.472245    0.1738594 
   40200   -276.81886    28.774512   -248.04435    2080.4609    117220.78    10.472245   0.19480985 
   40300   -274.51147    31.275344   -243.23612    2261.2765    125555.35    10.472245   0.20330595 
   40400   -280.24671    29.553427   -250.69328    2136.7781    109232.41    10.472245   0.13487177 
   40500   -278.75908    28.882405   -249.87668    2088.2618    112586.08    10.472245   0.16748214 
   40600   -273.25112    29.741129      -243.51    2150.3494     129726.5    10.472245    0.1940504 
   40700    -279.8835    27.870352   -252.01315    2015.0881    109344.98    10.472245   0.15207602 
   40800   -277.72974    29.672406   -248.05733    2145.3806    118990.31    10.472245   0.21897893 
   40900   -278.48775    32.932714   -245.55503    2381.1081    118062.81    10.472245    0.1866295 
   41000   -281.61604     29.00827   -252.60777    2097.3621    104643.74    10.472245   0.16227248 
   41100   -276.45287    29.144634   -247.30823    2107.2215    119736.67    10.472245   0.18445457 
   41200   -278.44604    28.913761   -249.53228    2090.5289    114243.84    10.472245   0.18727495 
   41300   -283.28714    30.153231   -253.13391    2180.1453    99437.834    10.472245   0.14679219 
   41400   -277.26991    30.470322   -246.79959    2203.0717       122382    10.472245   0.15685844 
   41500   -277.96221    28.385491   -249.57672    2052.3338    116398.52    10.472245   0.17358159 
   41600   -281.66974    29.402291   -252.26744    2125.8506     103986.5    10.472245    0.1503202 
   41700   -280.00391    27.640916     -252.363    1998.4994    108856.09    10.472245   0.15742172 
   41800   -276.83424    31.174348   -245.65989    2253.9743    121139.92    10.472245   0.17441536 
   41900   -279.89524    27.345269   -252.54997    1977.1234    107394.83    10.472245   0.18155662 
   42000   -279.48317    26.884849   -252.59832    1943.8341    111334.42    10.472245   0.20641811 
   42100   -279.22596     31.51955   -247.70641    2278.9332    112584.58    10.472245   0.18764032 
   42200   -277.42395    26.290027   -251.13392    1900.8271    118058.91    10.472245   0.18622605 
   42300   -280.78766      24.8802   -255.90746    1798.8935    105238.65    10.472245   0.15496173 
   42400   -279.33243    28.646926   -250.68551    2071.2361    111304.14    10.472245   0.16554252 
   42500   -278.43313    32.760105   -245.67303     2368.628    115672.77    10.472245   0.18606724 
   42600   -278.08132    26.919497   -251.16182    1946.3392    111580.25    10.472245   0.18569128 
   42700   -278.25551    27.115458   -251.14005    1960.5076    112557.94    10.472245   0.18160162 
   42800   -277.22591    28.876446   -248.34947    2087.8309    119543.37    10.472245   0.16540752 
   42900   -277.35052    27.504179   -249.84634     1988.613    117575.68    10.472245   0.23301884 
   43000   -273.76342    30.361768   -243.40166     2195.223    130621.12    10.472245    0.2093232 
   43100   -276.06788    26.207615   -249.86027    1894.8685    119210.89    10.472245    0.2405716 
   43200   -281.13465    30.055418   -251.07923    2173.0732    103354.23    10.472245   0.18820968 
   43300   -274.69116    31.253876   -243.43729    2259.7243    125440.15    10.472245   0.19631038 
   43400   -281.54588    31.694148   -249.85173     2291.557     106811.2    10.472245   0.13709479 
   43500   -279.03122    28.000333   -251.03089     2024.486    113901.86    10.472245   0.15960309 
   43600   -276.82839    28.644666   -248.18372    2071.0727    119931.52    10.472245   0.23637682 
   43700   -278.89041    29.284416   -249.60599    2117.3281    114019.71    10.472245    0.1684863 
   43800   -279.21051    25.785392   -253.42512    1864.3408    109716.98    10.472245   0.16379936 
   43900   -278.63286    28.076766    -250.5561    2030.0123    113847.75    10.472245   0.20291209 
   44000   -275.49071    28.227684   -247.26303     2040.924    123341.85    10.472245   0.18560226 
   44100   -280.66916    25.884131   -254.78503      1871.48    107437.23    10.472245   0.14524409 
   44200   -278.77977    26.761795   -252.01798     1934.937    110554.17    10.472245   0.17437924 
   44300   -276.44477     27.87914   -248.56563    2015.7235    119620.05    10.472245    0.1905841 
   44400   -275.58774    28.963149   -246.62459    2094.0998    123884.63    10.472245   0.21025061 
   44500   -280.77785    26.524454    -254.2534    1917.7767    106056.13    10.472245   0.14321657 
   44600   -279.45183    31.570448   -247.88138    2282.6132    112419.64    10.472245   0.17623473 
   44700   -278.90752    31.129774   -247.77775    2250.7515    113369.22    10.472245   0.16208574 
   44800   -277.75558     24.85213   -252.90345    1796.8639    113768.78    10.472245   0.19423714 
   44900   -280.42496    28.239997   -252.18497    2041.8142    106923.79    10.472245   0.15065397 
   45000    -275.7411    30.334326   -245.40678    2193.2389    123017.17    10.472245   0.20861261 
   45100   -281.33121    29.184396   -252.14681    2110.0964    104455.65    10.472245   0.14803655 
   45200   -279.04639    25.727489    -253.3189    1860.1543    109842.94    10.472245   0.20421109 
   45300   -277.05612    28.403603   -248.65252    2053.6433    119376.74    10.472245   0.18502828 
   45400   -281.02256    30.618965   -250.40359    2213.8189    106805.84    10.472245   0.19889775 
   45500   -282.48685    28.691266   -253.79558     2074.442    99982.797    10.472245   0.15642366 
   45600   -276.02176    29.686018   -246.33574    2146.3648    120267.81    10.472245   0.17898008 
   45700   -279.06736    28.761191   -250.30617    2079.4978    113383.08    10.472245   0.17799674 
   45800   -276.89677    26.676273   -250.22049    1928.7535    117939.94    10.472245   0.15491005 
   45900   -277.14007    32.732732   -244.40734    2366.6489    122292.34    10.472245   0.19304912 
   46000   -278.78504    27.213393   -251.57165    1967.5885     114148.1    10.472245   0.17759567 
   46100    -279.1414    32.226034   -246.91537    2330.0135    113508.67    10.472245   0.14951074 
   46200   -275.88005    32.062198   -243.81785    2318.1678     123749.8    10.472245   0.21530101 
   46300   -277.01839    26.360325   -250.65807    1905.9098    116165.82    10.472245   0.18818631 
   46400   -277.32655    29.405661   -247.92089    2126.0943    119163.08    10.472245   0.17539868 
   46500   -276.23511    32.657228   -243.57788    2361.1898    122473.51    10.472245   0.21072183 
   46600   -280.43212    27.833936   -252.59819    2012.4551    108529.61    10.472245   0.16728581 
   46700   -278.09219    29.242802   -248.84939    2114.3193    116160.27    10.472245   0.18263616 
   46800   -274.14255    29.971202   -244.17134    2166.9842    127731.72    10.472245   0.19141937 
   46900   -281.21276    32.192435   -249.02033    2327.5843    108571.02    10.472245   0.16318694 
   47000   -280.87569    29.623605   -251.25209    2141.8522    106726.45    10.472245   0.16716067 
   47100   -277.84426    28.416719   -249.42754    2054.5917    112976.94    10.472245   0.19688399 
   47200   -276.04605    32.103453    -243.9426    2321.1507     124031.8    10.472245   0.23926898 
   47300   -279.27665     26.12798   -253.14867    1889.1107    109914.23    10.472245   0.16830791 
   47400   -276.75136     27.50031   -249.25105    1988.3333    118407.52    10.472245   0.18615047 
   47500   -275.78508    30.827646   -244.95744     2228.907    124188.47    10.472245   0.21231837 
   47600   -279.36397    25.781932   -253.58204    1864.0907    108748.44    10.472245   0.14725281 
   47700   -280.60745    30.211359   -250.39609    2184.3481    107344.33    10.472245    0.1391042 
   47800    -276.8691     30.04552   -246.82358    2172.3576    119753.05    10.472245   0.17058869 
   47900   -280.33263    28.561662   -251.77097    2065.0713    107179.69    10.472245   0.14860261 
   48000   -280.41986    23.513856     -256.906    1700.1038    104572.38    10.472245   0.15272191 
   48100   -279.86123    30.333885   -249.52734     2193.207    108967.65    10.472245   0.17315938 
   48200   -278.27322    29.847747   -248.42547    2158.0581    117343.65    10.472245   0.18662279 
   48300   -281.23257    28.373255   -252.85931    2051.4491    105897.51    10.472245   0.15768762 
   48400   -276.93627    30.438177    -246.4981    2200.7475    119388.24    10.472245   0.18003853 
   48500   -280.37182    32.651577   -247.72024    2360.7813    109731.14    10.472245   0.15468801 
   48600    -280.0211    26.124792   -253.89631    1888.8803    108131.98    10.472245   0.17991286 
   48700   -277.09339    29.593483   -247.49991    2139.6743    118803.78    10.472245   0.21828592 
   48800   -277.63063    26.635493   -250.99514    1925.8051       114707    10.472245   0.17559481 
   48900   -281.45204    28.174726   -253.27732     2037.095     103886.2    10.472245   0.16027189 
   49000   -276.30268    28.328044   -247.97464    2048.1802    121327.02    10.472245    0.1990797 
   49100   -279.63815    30.310072   -249.32808    2191.4852    111786.36    10.472245   0.16980234 
   49200   -282.28411    25.503663   -256.78044    1843.9712    101825.46    10.472245    0.1887608 
   49300   -279.31161    29.232046   -250.07957    2113.5416    111773.42    10.472245   0.18158416 
   49400   -278.79047    30.236458   -248.55402    2186.1628    113896.05    10.472245   0.14605873 
   49500   -282.94091    26.494207   -256.44671    1915.5897    98192.009    10.472245   0.14728481 
   49600   -278.36268    26.570775    -251.7919    1921.1258    113606.43    10.472245   0.16391213 
   49700   -276.57309    28.974411   -247.59868     2094.914    118486.57    10.472245   0.21448595 
   49800   -277.04592    30.123001   -246.92292    2177.9596    119119.16    10.472245   0.16022346 
   49900   -281.52357    28.825823   -252.69774    2084.1708    104499.91    10.472245   0.14943389 
   50000   -273.85357    27.480355   -246.37321    1986.8905    126654.99    10.472245   0.16716378 
   50100   -280.10874    25.998875   -254.10986    1879.7762     106406.2    10.472245   0.16485849 
   50200   -281.09964    28.968479   -252.13116    2094.4851    106686.47    10.472245   0.13001028 
   50300   -280.63685    32.397988   -248.23886    2342.4462    108238.99    10.472245   0.13924408 
   50400   -278.73321    28.176702   -250.55651    2037.2379    111889.45    10.472245   0.15137324 
   50500   -280.21507    26.808159   -253.40691    1938.2892     108439.5    10.472245    0.1418374 
   50600   -277.81664    30.988502   -246.82814    2240.5372    117541.74    10.472245   0.16712244 
   50700   -280.45441    30.002299   -250.45211    2169.2326    108486.69    10.472245   0.17069577 
   50800   -276.56419    22.865928   -253.69826    1653.2572    116711.42    10.472245   0.22485408 
   50900   -278.93311    31.189174   -247.74394    2255.0462    113475.33    10.472245   0.18456243 
   51000   -276.36445    25.716275   -250.64818    1859.3435    118471.58    10.472245   0.16645278 
   51100   -281.23267    27.028511   -254.20416    1954.2211    105336.01    10.472245    0.1594476 
   51200   -277.84123    31.532353   -246.30888    2279.8589    118990.68    10.472245   0.16401493 
   51300    -279.6719    27.407538   -252.26436    1981.6256     110116.3    10.472245   0.16359434 
   51400   -276.84192    26.873048   -249.96887    1942.9808    116866.31    10.472245   0.20047485 
   51500   -276.67356    31.111875   -245.56169    2249.4574    120483.16    10.472245   0.19891552 
   51600    -279.5307    26.763323   -252.76738    1935.0474    109334.61    10.472245   0.16870608 
   51700   -276.65068     29.56052   -247.09016     2137.291    121545.31    10.472245    0.1865347 
   51800   -277.06217    28.672849   -248.38932    2073.1104    118571.23    10.472245   0.16686803 
   51900   -281.73546    28.428421   -253.30704    2055.4377    103273.88    10.472245   0.14835759 
   52000   -276.05746    30.548913   -245.50855     2208.754    122723.98    10.472245   0.17932655 
   52100   -277.49991    28.467271   -249.03264    2058.2467    117077.41    10.472245   0.19554947 
   52200   -277.97998    26.458704   -251.52128    1913.0228    115700.18    10.472245   0.16907741 
   52300   -282.36852    30.188558   -252.17996    2182.6995    102772.35    10.472245   0.13774745 
   52400   -274.71201    28.915981   -245.79603    2090.6894    126717.64    10.472245   0.19257774 
   52500   -280.17111    28.983872   -251.18724     2095.598    110162.94    10.472245   0.15558654 
   52600   -279.37157    26.392125   -252.97944     1908.209    111079.11    10.472245   0.14777437 
   52700   -274.94315     27.10434   -247.83881    1959.7037    123655.33    10.472245   0.19448581 
   52800   -280.39194    30.205373   -250.18657    2183.9153    105902.36    10.472245   0.17621606 
   52900   -281.93265    27.329439   -254.60321    1975.9789    103443.66    10.472245   0.12594247 
   53000   -276.67099    29.256626   -247.41436    2115.3188    118382.48    10.472245   0.22149753 
   53100   -277.28352    30.570452   -246.71307    2210.3113    115489.08    10.472245   0.15218163 
   53200   -279.08032    24.607586   -254.47273    1779.1829    108644.19    10.472245    0.1888544 
   53300   -278.11523    29.931734    -248.1835    2164.1306    117367.41    10.472245   0.16541624 
   53400   -278.66831    29.666925   -249.00139    2144.9843    112860.88    10.472245   0.19644797 
   53500    -281.7777    26.924885   -254.85281    1946.7287    101174.44    10.472245   0.15065305 
   53600   -279.84259    25.949755   -253.89283    1876.2247    109221.66    10.472245   0.15096368 
   53700   -276.66936    27.613538   -249.05583    1996.5199     118288.6    10.472245   0.18596739 
   53800    -273.9428    27.130604    -246.8122    1961.6027       125422    10.472245   0.17202509 
   53900   -281.11076     27.13185   -253.97891    1961.6928    106430.24    10.472245   0.14571786 
   54000    -279.5664    30.606007   -248.96039     2212.882    110859.12    10.472245   0.17556315 
   54100   -277.27969      30.1405   -247.13919    2179.2248    119595.08    10.472245    0.1832476 
   54200   -279.41474    27.658238    -251.7565    1999.7518    110167.43    10.472245   0.15958092 
   54300   -280.61967    31.515097   -249.10457    2278.6113    107440.67    10.472245   0.13988509 
   54400   -277.97911    32.528803    -245.4503    2351.9044    118216.65    10.472245   0.15510394 
   54500   -280.13862    27.537556   -252.60106    1991.0262    106512.07    10.472245   0.18399989 
   54600   -279.04711    29.409765   -249.63735    2126.3911    113341.83    10.472245   0.16533823 
   54700   -277.46701    28.753896   -248.71312    2078.9703    119713.69    10.472245   0.17767102 
   54800   -279.75572     30.90503   -248.85069     2234.502    111026.92    10.472245   0.15803375 
   54900   -281.83534    25.493096   -256.34224    1843.2073    100125.29    10.472245   0.15122417 
   55000   -276.61986    24.452345   -252.16751    1767.9586    118060.92    10.472245    0.1649149 
   55100   -281.08115    32.597524   -248.48363    2356.8731     108534.5    10.472245    0.1688144 
   55200   -279.10204    26.238489   -252.86355    1897.1008    110880.68    10.472245   0.14823431 
   55300   -280.98842    28.143765   -252.84465    2034.8565    104972.61    10.472245   0.17963807 
   55400   -281.24566     32.93387   -248.31179    2381.1917    107027.27    10.472245   0.15292588 
   55500    -278.0803    26.741124   -251.33917    1933.4424    114850.19    10.472245   0.17510071 
   55600   -280.08865    29.681346    -250.4073     2146.027    110494.54    10.472245   0.15801963 
   55700   -274.56426    30.416181   -244.14808    2199.1572    124098.75    10.472245   0.22253194 
   55800   -282.59796    30.784708   -251.81325    2225.8025    101249.54    10.472245   0.16747607 
   55900   -277.53289    28.840349   -248.69254     2085.221    115300.53    10.472245    0.2299802 
   56000   -278.20732    30.439118    -247.7682    2200.8155     115460.6    10.472245   0.16676255 
   56100   -281.25303    30.291322   -250.96171    2190.1296    107079.01    10.472245   0.15037184 
   56200   -280.08077    29.484641   -250.59613    2131.8047    108508.75    10.472245   0.15796793 
   56300   -280.82333    32.604672   -248.21866    2357.3899    107299.36    10.472245   0.15435813 
   56400   -277.15288    33.207827   -243.94505    2400.9993    119034.23    10.472245   0.17264079 
   56500   -279.24482    28.265775   -250.97904     2043.678     112075.2    10.472245    0.1719036 
   56600   -279.88775    30.521101   -249.36665    2206.7431    110289.74    10.472245   0.17436026 
   56700   -274.94749    30.120294   -244.82719    2177.7639    126526.11    10.472245   0.21363611 
   56800   -278.95425    29.795588   -249.15866    2154.2869    111038.57    10.472245   0.20649682 
   56900   -280.71378    26.812669   -253.90111    1938.6153    106822.58    10.472245   0.16451596 
   57000   -280.85946    28.204073   -252.65539    2039.2168    107602.88    10.472245   0.15890697 
   57100   -279.42625    33.583042   -245.84321    2428.1282    112548.71    10.472245   0.17704642 
   57200   -278.80768    27.660945   -251.14674    1999.9475    111333.85    10.472245   0.19853605 
   57300   -284.19784    26.175312   -258.02253    1892.5329    95450.997    10.472245   0.13757066 
   57400   -280.08327    29.284848   -250.79842    2117.3593    107160.81    10.472245   0.15455567 
   57500   -278.93983    31.331155   -247.60867    2265.3118    115494.71    10.472245   0.17987547 
   57600   -279.37279     27.43861   -251.93418    1983.8722    112116.61    10.472245   0.19298356 
   57700   -280.14151    28.381371   -251.76014    2052.0359    108423.73    10.472245   0.17646399 
   57800   -277.81782    31.277384   -246.54043     2261.424    117984.71    10.472245   0.14602618 
   57900   -279.72513    27.731272   -251.99385    2005.0323    109868.25    10.472245   0.15164097 
   58000   -278.12443    34.048635    -244.0758    2461.7916    118470.13    10.472245   0.17457363 
   58100   -276.43801    28.301689   -248.13632    2046.2747    119303.18    10.472245   0.20427112 
   58200   -278.00726    26.051026   -251.95624    1883.5468    114140.45    10.472245   0.19857771 
   58300   -273.64793    29.887624   -243.76031    2160.9413    130786.99    10.472245   0.19088495 
   58400   -278.89504    31.545582   -247.34946    2280.8153    111059.92    10.472245    0.1530744 
   58500   -281.80159    29.194899   -252.60669    2110.8558    101206.52    10.472245   0.12949351 
   58600   -275.96404    29.165502   -246.79854    2108.7303    120773.03    10.472245   0.18587551 
   58700   -277.61432    32.228938   -245.38538    2330.2235    119772.97    10.472245   0.21094037 
   58800   -280.70481    28.128099   -252.57671    2033.7238    106419.46    10.472245   0.17348661 
   58900   -279.10775    28.572854    -250.5349    2065.8805    111566.89    10.472245   0.18924602 
   59000   -277.68314    31.609095   -246.07404    2285.4075    117084.03    10.472245   0.16804173 
   59100   -279.27853    29.378153   -249.90037    2124.1054    112434.14    10.472245   0.15539731 
   59200   -279.17613    27.068125   -252.10801    1957.0853    110764.87    10.472245   0.18914281 
   59300   -278.03779    32.105154   -245.93263    2321.2737    115768.97    10.472245    0.1912972 
   59400   -279.17551    29.134323   -250.04118     2106.476    112613.77    10.472245   0.20662348 
   59500   -280.07379    27.288461   -252.78533    1973.0161    107293.58    10.472245     0.155454 
   59600   -276.15929    28.919703   -247.23959    2090.9585     120591.5    10.472245    0.2224759 
   59700   -279.02053    31.259386   -247.76115    2260.1227     115197.3    10.472245   0.21244027 
   59800   -280.42858    28.292189   -252.13639    2045.5878    108017.49    10.472245   0.15333346 
   59900     -277.248    28.766774   -248.48123    2079.9014    120146.76    10.472245   0.17670418 
   60000   -275.96577    29.519121   -246.44665    2134.2978    123369.51    10.472245   0.16798338 
   60100   -281.02077     27.36555   -253.65522    1978.5898    105259.67    10.472245   0.14843384 
   60200   -278.74649     31.75391   -246.99259    2295.8779    112464.89    10.472245   0.18679959 
   60300    -276.7673    29.739925   -247.02738    2150.2624    121042.37    10.472245   0.20044995 
   60400    -278.0866    27.311815   -250.77478    1974.7046     114775.3    10.472245   0.19308809 
   60500   -279.63515    29.856362   -249.77879     2158.681    113778.96    10.472245   0.20379303 
   60600   -277.44572    28.086099   -249.35962    2030.6871     117817.2    10.472245   0.19080919 
   60700   -278.97958    28.050846   -250.92873    2028.1382    111306.88    10.472245   0.18037693 
   60800   -279.36447    32.401119   -246.96335    2342.6726    113044.83    10.472245   0.16006959 
   60900   -274.86898    28.084245   -246.78474     2030.553    123814.25    10.472245   0.21918976 
   61000    -280.0521    27.035329   -253.01677    1954.7141     107489.2    10.472245   0.15539124 
   61100   -278.57738    29.991175   -248.58621    2168.4283    115477.35    10.472245   0.18398304 
   61200   -274.46285    33.275572   -241.18727    2405.8974    129214.96    10.472245    0.2539405 
   61300   -278.08133     31.10087   -246.98046    2248.6617    115722.25    10.472245   0.18790807 
   61400   -278.60224     27.59468   -251.00756    1995.1564    111943.81    10.472245    0.1811002 
   61500   -275.92289     30.08135   -245.84154    2174.9482     123453.2    10.472245   0.24496671 
   61600   -277.40327    32.085936   -245.31734    2319.8842    119664.76    10.472245   0.17232484 
   61700   -278.59023    28.848964   -249.74126    2085.8439    113374.86    10.472245   0.16305812 
   61800   -277.55716     26.76578   -250.79138    1935.2251    114396.52    10.472245    0.1717509 
   61900   -276.80402    32.331419    -244.4726    2337.6331    120200.25    10.472245   0.18239551 
   62000   -277.69347    26.247327   -251.44614    1897.7398    114176.28    10.472245   0.21221708 
   62100   -281.27543     29.68126   -251.59417    2146.0207    107897.09    10.472245   0.15708592 
   62200   -277.13275    28.428656   -248.70409    2055.4547    118059.41    10.472245   0.14083337 
   62300   -279.78386    29.222154   -250.56171    2112.8264    108742.98    10.472245    0.1631118 
   62400   -279.84637    27.061538   -252.78483     1956.609     106905.8    10.472245   0.17006348 
   62500    -279.0321    33.192591   -245.83951    2399.8977    113387.28    10.472245   0.22030339 
   62600   -279.33028    28.478106   -250.85217      2059.03    112378.23    10.472245   0.17324769 
   62700   -279.99979    27.436376   -252.56341    1983.7107    108974.13    10.472245   0.15413255 
   62800   -278.91753    31.596485   -247.32105    2284.4958    114259.71    10.472245   0.15648539 
   62900   -280.17976    31.821165    -248.3586    2300.7406     109101.5    10.472245   0.15887947 
   63000   -278.60026    29.063416   -249.53684    2101.3493    114475.03    10.472245   0.18661916 
   63100   -280.25874    30.568897   -249.68984    2210.1988    109732.16    10.472245   0.16529327 
   63200   -281.11192    29.666632   -251.44528    2144.9631    106637.09    10.472245   0.15848286 
   63300   -277.30427    24.816174   -252.48809    1794.2643       114713    10.472245   0.21130023 
   63400   -273.57385    27.523927   -246.04992    1990.0408    130385.02    10.472245   0.20251177 
   63500    -278.8432    28.146198     -250.697    2035.0324    112216.07    10.472245   0.21310088 
   63600   -283.71255    24.936818   -258.77574    1802.9871    95787.849    10.472245   0.14560257 
   63700   -280.58025    29.026751    -251.5535    2098.6983    107743.69    10.472245   0.14924949 
   63800   -274.55003    27.810965   -246.73907    2010.7943    126425.22    10.472245   0.24569959 
   63900   -272.69156     29.63992   -243.05164    2143.0318     131470.8    10.472245   0.22392023 
   64000   -280.44883    28.231672   -252.21716    2041.2123    107662.96    10.472245   0.12908113 
   64100   -275.98218    26.034253   -249.94793    1882.3341    120540.33    10.472245   0.19931924 
   64200   -274.25831    30.137644   -244.12067    2179.0183    128171.65    10.472245   0.19593468 
   64300   -276.71313    28.003183   -248.70994    2024.6921     119192.2    10.472245   0.23523243 
   64400   -276.58808    27.768849   -248.81923    2007.7492    120158.42    10.472245   0.18365275 
   64500    -282.4857    26.327608   -256.15809    1903.5443    101647.83    10.472245   0.12619538 
   64600   -280.49149    30.454114   -250.03737    2201.8998    109289.39    10.472245   0.14382384 
   64700   -277.87178     29.54076   -248.33102    2135.8623    116485.69    10.472245   0.15959926 
   64800   -276.47963    27.012647   -249.46698    1953.0742    118378.23    10.472245   0.16385379 
   64900   -279.86551    25.208542   -254.65697    1822.6333    106993.88    10.472245   0.16359149 
   65000   -277.67547     31.30614   -246.36933    2263.5032    118777.28    10.472245   0.18381069 
   65100   -278.27548    28.947976   -249.32751    2093.0027    114947.37    10.472245   0.19832064 
   65200    -282.8681    26.653072   -256.21503    1927.0761    99433.239    10.472245   0.11091839 
   65300   -281.05424     28.63202   -252.42222    2070.1584    105339.35    10.472245   0.13248655 
   65400   -275.85042    27.645385   -248.20503    1998.8225    122873.41    10.472245   0.18722822 
   65500     -277.739    27.976487   -249.76251    2022.7619    115439.49    10.472245   0.19489428 
   65600   -280.03259     26.55024   -253.48235     1919.641    107610.53    10.472245   0.14837555 
   65700   -272.53859    26.671214   -245.86738    1928.3878    129573.83    10.472245   0.25305534 
   65800   -276.42479    27.539936   -248.88486    1991.1983    119329.31    10.472245   0.17563826 
   65900   -276.87102      24.2197   -252.65132    1751.1379    113228.01    10.472245   0.18579759 
   66000   -278.29174     31.71019   -246.58155    2292.7169    116802.08    10.472245   0.16492873 
   66100    -278.8788    25.952233   -252.92657    1876.4039    109545.65    10.472245   0.20734187 
   66200   -280.97371    28.070139   -252.90357    2029.5331    104680.58    10.472245   0.13835862 
   66300   -278.30339    29.438481   -248.86491    2128.4673    113347.05    10.472245   0.18120618 
   66400   -278.90825    28.048471   -250.85978    2027.9665    112650.38    10.472245   0.18253099 
   66500   -283.20907    28.027946   -255.18113    2026.4825     98281.59    10.472245   0.14232839 
   66600   -276.85385    28.611262   -248.24259    2068.6576    118083.11    10.472245   0.21643541 
   66700   -277.85866    30.658392   -247.20027    2216.6695    116346.77    10.472245   0.17368657 
   66800   -281.10495    27.782887   -253.32206    2008.7642    105162.14    10.472245   0.14874749 
   66900   -278.63586    28.566777   -250.06908    2065.4412     113465.1    10.472245   0.15341077 
   67000   -275.53408    28.184512   -247.34957    2037.8025    120895.32    10.472245   0.19292825 
   67100   -276.96311    26.261825   -250.70129     1898.788    118004.35    10.472245   0.19437598 
   67200   -277.55204    34.008981   -243.54306    2458.9246    119614.07    10.472245   0.15926471 
   67300   -279.67219    31.689211   -247.98298       2291.2    112699.62    10.472245   0.16381148 
   67400   -280.92888    29.346103   -251.58278    2121.7882    109273.45    10.472245   0.18142591 
   67500    -276.0035    29.456368   -246.54713    2129.7606    122726.93    10.472245   0.22730166 
   67600   -281.91517    29.055561   -252.85961    2100.7813    103410.57    10.472245   0.15982967 
   67700   -279.15296    26.445575   -252.70739    1912.0736    108924.65    10.472245   0.14688739 
   67800    -274.5805    28.221426   -246.35908    2040.4715    125654.98    10.472245   0.19644584 
   67900    -281.6337    31.302152   -250.33155    2263.2149     105279.7    10.472245   0.16416413 
   68000   -281.79121    27.823652   -253.96755    2011.7116    104658.84    10.472245    0.1344069 
   68100   -279.26472    30.684014   -248.58071    2218.5221    114561.34    10.472245   0.13887793 
   68200   -281.21325    31.996729   -249.21652    2313.4343    105554.66    10.472245   0.15234699 
   68300   -277.29872    31.158496   -246.14023    2252.8282    119280.04    10.472245   0.19142847 
   68400   -278.59149    30.072999   -248.51849    2174.3443    113560.53    10.472245   0.16438592 
   68500   -282.31534    30.922124   -251.39321     2235.738    104127.38    10.472245    0.1500766 
   68600   -277.57197    30.011485   -247.56048    2169.8967    115847.36    10.472245   0.15867156 
   68700   -278.15411    29.121512   -249.03259    2105.5498    115094.08    10.472245   0.18981756 
   68800   -280.61249    31.146208   -249.46628    2251.9397    109750.21    10.472245   0.18882654 
   68900   -280.22211    31.217377   -249.00473    2257.0854    109273.13    10.472245    0.1940267 
   69000   -276.68868    29.832682   -246.85599    2156.9689    121463.53    10.472245   0.19083449 
   69100   -281.58413    28.465876   -253.11826    2058.1458    103122.05    10.472245   0.14071741 
   69200   -277.98767    31.146706   -246.84097    2251.9757    115669.02    10.472245    0.1607022 
   69300   -278.73767    30.181704   -248.55597     2182.204    110963.15    10.472245   0.19511242 
   69400    -277.9516    26.644309   -251.30729    1926.4424    116874.08    10.472245   0.18144622 
   69500   -278.20475     29.34582   -248.85893    2121.7677    115909.96    10.472245   0.15370756 
   69600   -280.28588    30.126144   -250.15974    2178.1868    107969.58    10.472245   0.15525481 
   69700   -279.01753    26.542058   -252.47547    1919.0495    111224.08    10.472245   0.15838831 
   69800   -278.22481    31.606017   -246.61879    2285.1849    117809.87    10.472245   0.17695022 
   69900   -278.30674    29.244581   -249.06216    2114.4479    114135.73    10.472245   0.16821779 
   70000    -278.9776    26.531933   -252.44566    1918.3175    109944.03    10.472245   0.16388366 
   70100   -280.15294    32.624439    -247.5285    2358.8191    111614.77    10.472245   0.14187191 
   70200   -283.89556    30.206398   -253.68916    2183.9894    96897.342    10.472245   0.12898572 
   70300   -280.59675    26.312868   -254.28388    1902.4786     105868.5    10.472245   0.19006995 
   70400   -280.25451    32.019493   -248.23502    2315.0802    110589.19    10.472245   0.19598043 
   70500   -274.97884    28.803328   -246.17552    2082.5443    125210.66    10.472245   0.25543234 
   70600   -278.36383    27.484754   -250.87908    1987.2085    111509.01    10.472245   0.19263883 
   70700   -280.32011    28.140815    -252.1793    2034.6432    108183.28    10.472245    0.1436113 
   70800   -275.77904    30.483483   -245.29556    2204.0232    124087.16    10.472245   0.21340872 
   70900   -280.70346    27.836432   -252.86702    2012.6356    105865.64    10.472245   0.15944564 
   71000   -277.08133    25.320953   -251.76038    1830.7609    116032.28    10.472245   0.15686924 
   71100   -276.30372    29.990025    -246.3137    2168.3452    122915.82    10.472245   0.19309216 
   71200   -277.67482     28.96023   -248.71459    2093.8887    116847.76    10.472245   0.19345861 
   71300   -279.86501    27.607616    -252.2574    1996.0917    108631.98    10.472245   0.18025045 
   71400   -277.11864    31.205715   -245.91292    2256.2422    118391.34    10.472245   0.22007669 
   71500    -280.7874    27.765631   -253.02177    2007.5165    104871.53    10.472245   0.19031466 
   71600   -279.73735    27.861359   -251.87599    2014.4379    109891.54    10.472245   0.16292338 
   71700   -276.44743     29.79975   -246.64768    2154.5878    118904.01    10.472245   0.17028704 
   71800   -278.91866    25.105079   -253.81358    1815.1528    109847.08    10.472245   0.14635212 
   71900   -282.62395    27.842649    -254.7813    2013.0851    100559.63    10.472245   0.13823746 
   72000   -281.77421    32.569493   -249.20472    2354.8464    106174.93    10.472245   0.14303457 
   72100   -275.18696    28.541818   -246.64514    2063.6366    124209.14    10.472245   0.20575697 
   72200   -280.27911    28.358049   -251.92106    2050.3497    108167.69    10.472245   0.16901072 
   72300    -279.7033    28.669445   -251.03385    2072.8643    111597.21    10.472245   0.15664386 
   72400   -274.56265    29.037943   -245.52471    2099.5075    124222.51    10.472245   0.23248476 
   72500   -277.05793    27.292187   -249.76575    1973.2855    116693.94    10.472245   0.19788478 
   72600   -279.54959    29.545328   -250.00427    2136.1926    111789.17    10.472245   0.14490866 
   72700   -276.15598    27.862859   -248.29313    2014.5463    119232.42    10.472245   0.17843794 
   72800   -275.21973    30.467778   -244.75196    2202.8877    123025.45    10.472245   0.21345425 
   72900    -277.8983    26.057699    -251.8406    1884.0293    111940.64    10.472245   0.15842024 
   73000   -278.49088    29.881372   -248.60951    2160.4893    114827.91    10.472245   0.15306743 
   73100   -274.38243    32.123455   -242.25897    2322.5969    129799.03    10.472245   0.19780132 
   73200   -282.06452    32.080883   -249.98364    2319.5188    105475.48    10.472245   0.15105131 
   73300   -279.09657    27.294468    -251.8021    1973.4504    113527.59    10.472245    0.1672613 
   73400   -272.60626    29.128449   -243.47781    2106.0513    132989.78    10.472245   0.21309614 
   73500   -278.65833    29.257837   -249.40049    2115.4063    113257.06    10.472245   0.18366654 
   73600   -281.78475    31.871422   -249.91333    2304.3743    105040.64    10.472245   0.15161136 
   73700   -272.85772     30.42445   -242.43327    2199.7551    131291.55    10.472245   0.19736096 
   73800    -275.0167     26.95926   -248.05744    1949.2141    124334.95    10.472245   0.18080814 
   73900   -277.33787    26.043117   -251.29476    1882.9749    115491.64    10.472245   0.16989852 
   74000    -276.5688    27.771183   -248.79762     2007.918    118766.75    10.472245   0.16777413 
   74100   -276.49548    30.602287   -245.89319     2212.613    121603.64    10.472245   0.19814311 
   74200   -281.31767    28.097209   -253.22046    2031.4904    103842.79    10.472245   0.17716416 
   74300   -278.37224    29.290987   -249.08125    2117.8031    115610.65    10.472245    0.1644317 
   74400   -279.03494    30.524292   -248.51065    2206.9738    112168.24    10.472245   0.18802827 
   74500    -280.7103    23.862051   -256.84825     1725.279    105760.45    10.472245   0.17186258 
   74600   -281.31153    31.949395   -249.36213     2310.012     108530.3    10.472245   0.12593064 
   74700   -275.40729    26.816949   -248.59034    1938.9247    123054.31    10.472245   0.19546223 
   74800   -282.80269    27.087876   -255.71481    1958.5133    99133.371    10.472245   0.13610739 
   74900   -281.87772    33.285152   -248.59257    2406.5901    106328.78    10.472245   0.16160348 
   75000   -275.08958    25.972883   -249.11669    1877.8969    122107.71    10.472245    0.2028819 
   75100   -280.87642    28.006333   -252.87008    2024.9199    104040.13    10.472245   0.17677556 
   75200   -279.17372    29.083299   -250.09042    2102.7869    111099.06    10.472245   0.17213028 
   75300   -276.95875     30.80972   -246.14903    2227.6109    118250.88    10.472245   0.17920684 
   75400   -281.35418    29.801124   -251.55306    2154.6872    104561.58    10.472245   0.14261083 
   75500   -277.39698    27.001862   -250.39511    1952.2943    115843.39    10.472245   0.15519108 
   75600   -280.03096    32.088497   -247.94246    2320.0693    113948.59    10.472245   0.15199732 
   75700   -275.82792    33.607732   -242.22019    2429.9133    124892.14    10.472245   0.17587455 
   75800   -280.76987    29.359217   -251.41065    2122.7364    105510.02    10.472245   0.18615297 
   75900   -280.39915    32.722564   -247.67659    2365.9138    110300.73    10.472245   0.16751492 
   76000   -273.60644    30.176694   -243.42974    2181.8417    129251.11    10.472245   0.26891564 
   76100   -277.37721    25.567633   -251.80958    1848.5964     116555.1    10.472245   0.16621114 
   76200   -279.06813    28.368538    -250.6996     2051.108    111279.45    10.472245   0.17841079 
   76300   -274.85208    28.991855   -245.86023    2096.1752    124943.34    10.472245   0.18166901 
   76400   -278.64766    29.061047   -249.58661     2101.178    114839.35    10.472245   0.15573125 
   76500   -277.35972    27.344673   -250.01505    1977.0803    117966.97    10.472245    0.1647639 
   76600   -278.06233    31.083156   -246.97918     2247.381    115514.93    10.472245   0.18744101 
   76700   -280.69041     32.12409   -248.56632    2322.6427    110083.86    10.472245   0.14821826 
   76800   -279.91644     26.98575   -252.93069    1951.1294    108919.24    10.472245   0.17342384 
   76900   -276.72407    32.764398   -243.95968    2368.9384    123031.16    10.472245   0.18464899 
   77000   -279.37156    29.548582   -249.82298    2136.4278    108607.32    10.472245   0.12857007 
   77100    -279.6784    27.517146   -252.16125    1989.5505     111107.6    10.472245   0.17354689 
   77200   -272.35442    29.316143   -243.03828     2119.622     132141.2    10.472245   0.27976639 
[...]
   81400   -280.42078    26.526496   -253.89428    1917.9243    105392.41    10.472245   0.17776271 
   81500   -275.57625    30.131924   -245.44432    2178.6048    122100.43    10.472245   0.17095911 
   81600   -277.03339    28.281319   -248.75207    2044.8019    119546.66    10.472245   0.18643681 
   81700   -279.60603    26.873898   -252.73214    1943.0422    109998.06    10.472245   0.18464226 
   81800   -276.56996    32.064986   -244.50498    2318.3694    120131.41    10.472245   0.18442297 
   81900   -282.26333    31.807068   -250.45626    2299.7214    103720.14    10.472245   0.15271652 
   82000   -279.42681     27.81977   -251.60704    2011.4309    112416.19    10.472245   0.15695653 
   82100   -279.34932    30.881376   -248.46794    2232.7918    111680.77    10.472245   0.15794698 
   82200   -278.37409    29.448847   -248.92524    2129.2168    115640.59    10.472245   0.17744366 
   82300   -279.34986    28.298185   -251.05167    2046.0213    108075.55    10.472245   0.16499788 
   82400   -281.56361    28.313999   -253.24961    2047.1647    104611.91    10.472245    0.1555538 
   82500   -276.27015    30.853865   -245.41629    2230.8027    122359.63    10.472245   0.19111559 
   82600   -277.50866    26.717975   -250.79069    1931.7687    116585.36    10.472245   0.20640333 
   82700   -279.40564    29.419468   -249.98617    2127.0926    108946.91    10.472245   0.15616552 
   82800   -275.22204     26.61484   -248.60721    1924.3118    123487.89    10.472245   0.18397468 
   82900   -276.59167    30.511787   -246.07989    2206.0697    120002.56    10.472245   0.16906664 
   83000   -280.81263     28.25089   -252.56174    2042.6018     104858.3    10.472245   0.15161205 
   83100   -274.25323    29.141614   -245.11162    2107.0032    125652.81    10.472245   0.20483121 
   83200    -276.0882    30.142588   -245.94561    2179.3758       122304    10.472245   0.19687515 
   83300   -282.42537    30.989912   -251.43546    2240.6392    102268.55    10.472245   0.11480207 
   83400   -275.76479    25.738569   -250.02622    1860.9555    120918.93    10.472245   0.17249376 
   83500   -276.00091    26.848514    -249.1524     1941.207    118283.82    10.472245   0.21690266 
   83600   -280.31439    30.632545   -249.68185    2214.8008    110422.04    10.472245   0.17636207 
   83700   -281.92346    25.693176   -256.23028    1857.6735    102010.14    10.472245   0.13460306 
   83800   -277.33354    27.532603   -249.80093    1990.6681    115921.61    10.472245   0.18203572 
   83900   -280.12329    31.538828   -248.58446     2280.327    112311.59    10.472245   0.16265221 
   84000   -281.90126    26.545024   -255.35624    1919.2639    100545.67    10.472245   0.13203554 
   84100   -276.51472    25.680953   -250.83376    1856.7897    119223.04    10.472245   0.18227406 
   84200   -279.41294     32.18932   -247.22363     2327.359    115412.56    10.472245   0.16884307 
   84300   -281.89109    28.028181   -253.86291    2026.4995     101908.8    10.472245   0.15523265 
   84400   -276.41116    30.079025   -246.33214      2174.78    121352.89    10.472245   0.15286543 
   84500   -277.21609    29.625509   -247.59058    2141.9899    120337.02    10.472245   0.17778938 
   84600   -279.66275    26.675038   -252.98771    1928.6643    109212.13    10.472245   0.17433563 
   84700   -274.57886    32.071623   -242.50723    2318.8493    125639.37    10.472245   0.19224846 
   84800   -276.91161     27.24573   -249.66588    1969.9266    119922.78    10.472245   0.16781838 
   84900   -279.48603    27.795907   -251.69013    2009.7055    110831.79    10.472245   0.14997814 
   85000   -273.19253    29.842625    -243.3499    2157.6878    128954.68    10.472245   0.23959329 
   85100   -280.51038    30.885074    -249.6253    2233.0591    109195.03    10.472245     0.166734 
   85200   -279.01342    28.444539   -250.56888    2056.6031    112391.85    10.472245   0.18560077 
   85300   -277.39111    32.128494   -245.26262    2322.9612    120230.68    10.472245   0.17575657 
   85400     -272.952    27.302238   -245.64976    1974.0122     131265.1    10.472245   0.20297928 
   85500   -280.67035    28.386147   -252.28421    2052.3812    107441.03    10.472245   0.14479177 
   85600   -276.69271    30.892678   -245.80003     2233.609    119901.11    10.472245   0.19309141 
   85700   -273.62081    26.167012   -247.45379    1891.9329    124589.24    10.472245   0.18974492 
   85800   -280.40659    30.385438   -250.02115    2196.9344    107465.51    10.472245   0.16957734 
   85900   -280.01336    30.242654    -249.7707    2186.6108    110806.88    10.472245   0.13388039 
   86000   -275.37204    30.263632    -245.1084    2188.1275    125792.65    10.472245   0.16619642 
   86100   -280.02648     27.89024   -252.13624    2016.5261    109462.28    10.472245   0.13702072 
   86200   -278.51354    27.102496   -251.41104    1959.5704    113901.89    10.472245    0.1811429 
   86300    -276.8919     28.60342   -248.28848    2068.0906    119763.04    10.472245   0.15646306 
   86400   -277.80361    26.450826   -251.35278    1912.4533    114069.81    10.472245   0.18356807 
   86500   -278.18195    26.892883   -251.28906     1944.415    112931.82    10.472245   0.17517885 
   86600   -277.78004    32.982169   -244.79787    2384.6838     116507.7    10.472245   0.16450046 
   86700   -281.05773    28.783535   -252.27419    2081.1133    106433.61    10.472245   0.15905668 
   86800     -278.315     27.78517   -250.52983    2008.9292    114029.67    10.472245   0.20001308 
   86900   -276.56548    29.224208   -247.34127    2112.9749    120241.47    10.472245   0.18788702 
   87000    -280.7061     26.91084   -253.79526    1945.7133    104949.68    10.472245   0.12990058 
   87100   -281.24933     29.82813    -251.4212    2156.6398    104964.34    10.472245   0.17277774 
   87200   -277.07721    28.629511    -248.4477    2069.9769     118013.6    10.472245   0.19387851 
   87300   -280.07462    28.194657   -251.87996     2038.536    109165.47    10.472245   0.18077342 
   87400   -278.98437    27.020767    -251.9636    1953.6612    110165.09    10.472245    0.2032632 
   87500   -275.54249    29.119857   -246.42264    2105.4301     122134.8    10.472245   0.21164267 
   87600   -280.27694    25.686463   -254.59047    1857.1881    108189.43    10.472245   0.13851588 
   87700   -279.19723    27.382871   -251.81436    1979.8421    109358.15    10.472245   0.17357431 
   87800   -275.18554     27.29551   -247.89002    1973.5258    120236.66    10.472245   0.19549309 
   87900   -279.66638     27.70592   -251.96046    2003.1993    109956.87    10.472245   0.16420521 
   88000   -282.18276    27.723729   -254.45903     2004.487    102143.68    10.472245    0.1302142 
   88100    -278.0533    28.977653   -249.07564    2095.1484     114319.5    10.472245   0.18880185 
   88200   -275.49349    29.993574   -245.49992    2168.6018    122358.18    10.472245   0.18825529 
   88300   -281.57469    29.846205   -251.72849    2157.9467    105180.62    10.472245   0.18391854 
   88400   -277.82844    27.643861   -250.18458    1998.7123    114539.25    10.472245   0.20075579 
   88500   -276.27094    32.310278   -243.96066    2336.1045    121979.72    10.472245   0.21004579 
   88600   -280.37314    30.405769   -249.96738    2198.4043    109157.52    10.472245   0.16844369 
   88700   -280.75771     31.33681    -249.4209    2265.7207    108898.94    10.472245   0.14145422 
   88800   -277.13345    30.158753    -246.9747    2180.5445    117896.39    10.472245   0.19407799 
   88900   -275.29208    29.343188   -245.94889    2121.5774    124474.79    10.472245   0.19499102 
   89000   -280.36439    27.732077   -252.63232    2005.0905    106515.29    10.472245    0.1578953 
   89100   -279.18188    31.040979    -248.1409    2244.3314    112976.83    10.472245   0.16361104 
   89200   -276.51302    28.503609   -248.00942     2060.874     118793.9    10.472245   0.16153491 
   89300   -279.61147    28.475364   -251.13611    2058.8318    111795.75    10.472245   0.16659631 
   89400    -282.7435     28.45658   -254.28692    2057.4737    100499.34    10.472245   0.14488006 
   89500   -279.03256    32.074503   -246.95806    2319.0575    113852.42    10.472245   0.20619977 
   89600   -277.02626    28.860399   -248.16586    2086.6707    117555.03    10.472245   0.20907547 
   89700   -282.74024    26.502077   -256.23817    1916.1588    100037.43    10.472245   0.13808179 
   89800   -279.84212    28.734714   -251.10741    2077.5834    109492.75    10.472245    0.1685759 
   89900   -276.09183    27.708556   -248.38328    2003.3899    121193.12    10.472245     0.220455 
   90000   -273.00081    32.439963   -240.56084    2345.4811    135000.05    10.472245   0.22565581 
   90100   -278.09826     29.25009   -248.84817    2114.8462    115455.02    10.472245   0.18455547 
   90200     -280.319    30.194738   -250.12426    2183.1464    107156.14    10.472245   0.19361285 
   90300   -275.09128    29.111314   -245.97997    2104.8124    125980.76    10.472245    0.2213207 
   90400   -275.94177    30.584784   -245.35699    2211.3475    121411.77    10.472245   0.25691845 
   90500   -280.66566    27.947942   -252.71772     2020.698     108179.7    10.472245   0.17055481 
   90600   -274.69393    26.251242   -248.44269    1898.0228    123263.33    10.472245   0.18479596 
   90700   -272.67489    34.280119   -238.39477    2478.5284     136733.3    10.472245   0.21025945 
   90800   -276.27694       29.739   -246.53794    2150.1955     122722.9    10.472245   0.17722256 
   90900   -279.90612     28.92012     -250.986    2090.9887    108819.28    10.472245   0.17504415 
   91000   -276.82191    29.946191   -246.87571    2165.1759    120678.47    10.472245   0.17445245 
   91100   -272.39576    27.555592   -244.84017    1992.3303    131447.95    10.472245   0.21796013 
   91200    -280.0328    27.836618   -252.19618     2012.649       108135    10.472245   0.20683218 
   91300   -281.15945    33.852958   -247.30649    2447.6438     109479.3    10.472245   0.13465426 
   91400   -281.18581    28.494535   -252.69127    2060.2179    105915.99    10.472245   0.15073939 
   91500   -280.57712    29.284763   -251.29236    2117.3531    109256.04    10.472245   0.15708419 
   91600   -278.24185    30.737076   -247.50478    2222.3586     115540.1    10.472245   0.16224793 
   91700   -278.15282    27.115351   -251.03747    1960.4998    113374.42    10.472245   0.16519505 
   91800   -281.25675    24.901082   -256.35567    1800.4033    104180.43    10.472245   0.15341917 
   91900   -280.26952      31.9531   -248.31642    2310.2798    108145.35    10.472245   0.20297162 
   92000    -276.1775    27.713824   -248.46367    2003.7707    120920.61    10.472245   0.20024585 
   92100   -282.71977    26.126612   -256.59316    1889.0118    98987.246    10.472245   0.14506536 
   92200   -279.76813    31.953425   -247.81471    2310.3033    111807.87    10.472245   0.17209546 
   92300    -277.7187    30.974215   -246.74448    2239.5042    118788.83    10.472245    0.1790549 
   92400   -278.86145    26.240207   -252.62125     1897.225    111546.89    10.472245    0.1631117 
   92500   -273.11819     28.66373   -244.45445    2072.4511    127608.49    10.472245   0.20587278 
   92600   -278.39783     30.17778   -248.22005    2181.9202    114186.57    10.472245   0.16469894 
   92700   -277.76439    27.087874   -250.67652    1958.5132    115855.07    10.472245   0.19235038 
   92800   -273.56544    30.414696   -243.15074    2199.0498    128344.83    10.472245    0.2532042 
   92900    -271.7526    30.600579   -241.15202    2212.4895    135337.82    10.472245     0.290208 
   93000   -279.47691    29.910252   -249.56666    2162.5773    110158.77    10.472245   0.16272088 
   93100   -280.27509      27.8627   -252.41239    2014.5349    108493.38    10.472245   0.17699237 
   93200   -275.60733     31.36695   -244.24038    2267.8999     123243.6    10.472245   0.19603181 
   93300   -275.52051    26.996241   -248.52427     1951.888    121722.91    10.472245   0.17557357 
   93400   -277.61886    27.299535   -250.31933    1973.8168     114638.9    10.472245   0.15486912 
   93500   -279.20238    28.266929   -250.93545    2043.7615    111701.39    10.472245   0.15899148 
   93600   -273.77781    28.458256   -245.31956    2057.5949    129720.38    10.472245   0.22943873 
   93700   -277.60239    26.036402   -251.56599    1882.4894    117497.73    10.472245   0.15343841 
   93800   -277.55703     26.72665   -250.83038    1932.3959    117135.26    10.472245   0.17652422 
   93900    -278.4009    30.781425   -247.61947    2225.5651    115182.27    10.472245   0.16451142 
   94000   -282.47991    30.294235   -252.18568    2190.3402    102959.78    10.472245   0.13900247 
   94100   -281.57431    26.764463   -254.80985    1935.1299    105040.45    10.472245   0.13824167 
   94200   -278.88961    30.771222   -248.11839    2224.8274    115839.38    10.472245   0.17850913 
   94300   -278.04918    28.253612   -249.79557    2042.7987     115783.2    10.472245   0.17565101 
   94400   -280.55037    25.766429   -254.78394    1862.9698    104293.92    10.472245   0.15505765 
   94500   -277.94813    31.366197   -246.58193    2267.8455    115408.04    10.472245   0.20386448 
   94600   -281.29809    29.886046   -251.41204    2160.8272    107982.06    10.472245   0.14457221 
   94700   -280.02558    29.311684    -250.7139    2119.2996    107155.65    10.472245   0.16602088 
   94800   -272.84765     27.42825    -245.4194    1983.1231    131582.85    10.472245   0.21105643 
   94900   -278.81504    26.392749   -252.42229    1908.2541     110610.1    10.472245   0.16695011 
   95000   -279.24107    29.724367   -249.51671    2149.1375    112973.16    10.472245   0.15008508 
   95100   -275.60125    29.057599   -246.54365    2100.9287    122459.32    10.472245    0.2011743 
   95200   -276.69139    31.053736   -245.63765    2245.2538    118922.84    10.472245   0.16913942 
   95300   -276.14796    23.869237   -252.27872    1725.7986    117592.97    10.472245   0.20283496 
   95400   -273.58087    28.230353   -245.35051     2041.117    128043.01    10.472245   0.25731483 
   95500   -273.48184    28.309346    -245.1725    2046.8283    130554.04    10.472245   0.21910628 
   95600   -278.39275    27.362936   -251.02981    1978.4008       112148    10.472245   0.17341774 
   95700   -282.28581     31.25643   -251.02937     2259.909    101448.17    10.472245   0.13858009 
   95800   -277.52613      33.1047   -244.42143    2393.5431    117895.98    10.472245   0.21674374 
   95900   -277.88135    26.978581   -250.90277     1950.611    114889.76    10.472245   0.16203101 
   96000   -278.27166     28.06992   -250.20174    2029.5173    114243.62    10.472245    0.2022937 
   96100   -280.20159    33.028243   -247.17334     2388.015    110846.55    10.472245   0.18201824 
   96200   -279.88625    26.338743   -253.54751    1904.3494    107956.78    10.472245   0.18308628 
   96300   -279.21667    29.713814   -249.50285    2148.3745    113206.73    10.472245   0.15521757 
   96400   -276.67298     30.71601   -245.95697    2220.8354    121146.29    10.472245    0.2470632 
   96500   -281.69121    27.708866   -253.98234    2003.4123    104733.31    10.472245    0.1666957 
   96600   -278.59403    28.242427   -250.35161    2041.9899     113685.6    10.472245   0.15502637 
   96700   -277.74491    30.903467   -246.84144     2234.389    118888.51    10.472245   0.15791703 
   96800   -279.79249    23.467142   -256.32534    1696.7263    108737.46    10.472245   0.18994194 
   96900   -280.69582    29.171515   -251.52431    2109.1651    106927.48    10.472245    0.1879496 
   97000   -277.23528    29.469917   -247.76536    2130.7402     117505.3    10.472245   0.17914101 
   97100   -282.27826    29.506455   -252.77181     2133.382    102318.88    10.472245   0.16393997 
   97200   -278.74268     27.05816   -251.68452    1956.3648    112646.26    10.472245   0.20425537 
   97300   -278.04456    30.490924   -247.55364    2204.5612    114843.79    10.472245   0.20939597 
   97400   -281.37973    30.864182   -250.51554    2231.5487    105159.87    10.472245   0.15067296 
   97500   -280.74383    26.151838   -254.59199    1890.8357    106400.75    10.472245    0.1588699 
   97600   -278.48288     31.45662   -247.02626    2274.3832       117694    10.472245   0.17652309 
   97700   -279.35483    27.942965   -251.41187    2020.3382    109603.92    10.472245   0.15565376 
   97800   -279.70122    27.942007   -251.75921    2020.2689    108810.96    10.472245   0.15273733 
   97900   -276.97434    31.298165   -245.67618    2262.9265    120528.48    10.472245   0.17713136 
   98000   -280.69185    28.250313   -252.44154    2042.5601     105142.4    10.472245   0.16098464 
   98100   -277.59729    32.478836   -245.11846    2348.2917    119295.67    10.472245   0.18247398 
   98200   -277.50037    30.736886   -246.76348    2222.3449    118679.74    10.472245   0.15613267 
   98300   -280.04515    28.116933   -251.92821    2032.9164     110696.9    10.472245   0.15194435 
   98400   -276.29262    31.343497   -244.94912    2266.2042    121318.11    10.472245   0.15907732 
   98500   -274.70007    31.543841   -243.15622    2280.6895    127020.51    10.472245   0.17369572 
   98600     -279.941     27.82043   -252.12057    2011.4786    108579.19    10.472245   0.13809964 
   98700   -279.71201    31.289855   -248.42215    2262.3257    112048.96    10.472245   0.16722905 
   98800   -275.61499    29.308454   -246.30653    2119.0661     126056.5    10.472245    0.1887781 
   98900   -276.94615     26.86777   -250.07838    1942.5992     117159.5    10.472245   0.19957891 
   99000    -280.1186    30.482273   -249.63633    2203.9358    109795.67    10.472245   0.15663643 
   99100   -279.10318    27.821342   -251.28184    2011.5445    112623.59    10.472245   0.20496055 
   99200   -276.86001    31.130486   -245.72953     2250.803    120088.21    10.472245   0.17262123 
   99300   -279.79284    28.854798   -250.93805    2086.2657    109356.98    10.472245   0.20074211 
   99400   -281.20343    28.730103   -252.47333      2077.25     104667.1    10.472245   0.17161802 
   99500   -277.72907    30.826027   -246.90305      2228.79    116918.14    10.472245   0.16989484 
   99600   -274.10924    25.010122   -249.09912    1808.2871    125015.13    10.472245   0.19839839 
   99700   -279.18058    28.116923   -251.06366    2032.9158    111482.24    10.472245   0.16827637 
   99800   -278.60762    28.682981   -249.92464     2073.843    114892.99    10.472245   0.14861245 
   99900   -275.89177    30.462708   -245.42906    2202.5212    123388.75    10.472245   0.21450375 
  100000   -280.13547    28.739956   -251.39551    2077.9624    107595.23    10.472245   0.15236025 
Loop time of 31.9986 on 1 procs for 100000 steps with 108 atoms

Performance: 1350.058 ns/day, 0.018 hours/ns, 3125.134 timesteps/s
99.1% CPU use with 1 MPI tasks x no OpenMP threads

MPI task timing breakdown:
Section |  min time  |  avg time  |  max time  |%varavg| %total
---------------------------------------------------------------
Pair    | 18.981     | 18.981     | 18.981     |   0.0 | 59.32
Neigh   | 1.3001     | 1.3001     | 1.3001     |   0.0 |  4.06
Comm    | 0.51794    | 0.51794    | 0.51794    |   0.0 |  1.62
Output  | 0.018519   | 0.018519   | 0.018519   |   0.0 |  0.06
Modify  | 11.096     | 11.096     | 11.096     |   0.0 | 34.68
Other   |            | 0.08502    |            |       |  0.27

Nlocal:    108 ave 108 max 108 min
Histogram: 1 0 0 0 0 0 0 0 0 0
Nghost:    990 ave 990 max 990 min
Histogram: 1 0 0 0 0 0 0 0 0 0
Neighs:    5536 ave 5536 max 5536 min
Histogram: 1 0 0 0 0 0 0 0 0 0

Total # of neighbors = 5536
Ave neighs/atom = 51.2593
Neighbor list builds = 5535
Dangerous builds = 0
    
Total wall time: 0:00:32
