LAMMPS (3 Mar 2020)

# ---------- 1. Initialize simulation ----------
units metal
atom_style atomic
dimension 3
boundary p p p
read_data /home/modeler/RemLabs/Project/eval_timestep_nve_fluc/n3_T1800_timestep1.167861e-03_steps17126/20201206-084743/lammps.data
  orthogonal box = (0 0 0) to (17.469 17.469 17.469)
  1 by 1 by 1 MPI processor grid
  reading atoms ...
  217 atoms
  read_data CPU = 0.000974573 secs

pair_style meam/c
pair_coeff * * library.meam Li Si LiSi.meam Li Si
Reading potential file library.meam with DATE: 2012-06-29
Reading potential file LiSi.meam with DATE: 2020-11-07

group Li type 1
1 atoms in group Li

velocity all create 1800 3320 dist gaussian

# ---------- 2. Describe computed properties----------
compute msdli Li msd
thermo_style custom step pe ke etotal temp press density c_msdli[4]
thermo 100

# ---------- 3. Specify ensemble  ----------
#fix 1 all npt temp 1800 1800 0.05839303672725303 tchain 2 iso 1.0 1.0 1.0 pchain 2
# fix 1 all nvt temp 1800 1800 0.05839303672725303
fix 1 all nve

# ---------- 4. Run -------------
timestep 0.0011678607345450606
run 17126
Neighbor list info ...
  update every 1 steps, delay 10 steps, check yes
  max neighbors/atom: 2000, page size: 100000
  master list distance cutoff = 6
  ghost atom cutoff = 6
  binsize = 3, bins = 6 6 6
  2 neighbor lists, perpetual/occasional/extra = 2 0 0
  (1) pair meam/c, perpetual
      attributes: full, newton on
      pair build: full/bin/atomonly
      stencil: full/bin/3d
      bin: standard
  (2) pair meam/c, perpetual, half/full from (1)
      attributes: half, newton on
      pair build: halffull/newton
      stencil: none
      bin: none
Per MPI rank memory allocation (min/avg/max) = 9.27 | 9.27 | 9.27 Mbytes
Step PotEng KinEng TotEng Temp Press Density c_msdli[4] 
       0   -951.04357    50.256344   -900.78722         1800   -114161.75    1.8918427            0 
     100   -926.56724     25.81901   -900.74823    924.74331   -89791.336    1.8918427  0.021906593 
     200   -927.52887    26.768233   -900.76064    958.74103   -92737.559    1.8918427  0.087458086 
     300   -923.60208     22.85255   -900.74953    818.49547   -89588.233    1.8918427   0.10959024 
     400   -925.23741    24.485253   -900.75216    876.97296   -92973.959    1.8918427  0.072497913 
     500   -926.02493    25.272983   -900.75195    905.18658   -92525.703    1.8918427  0.028626544 
     600   -927.54902    26.798151   -900.75087    959.81258   -91309.828    1.8918427  0.084038124 
     700   -928.64557    27.887813   -900.75776    998.84032   -94303.873    1.8918427 0.0075718723 
     800   -928.51505    27.763259   -900.75179    994.37926   -93552.193    1.8918427   0.12434107 
     900   -926.52647    25.773902   -900.75257    923.12771   -92493.491    1.8918427  0.036866757 
    1000   -927.75861    27.005861   -900.75275      967.252   -92960.506    1.8918427  0.070129565 
    1100   -928.24522    27.491661   -900.75356    984.65159   -93547.055    1.8918427  0.025663677 
    1200   -927.14227    26.391333   -900.75093    945.24183    -92696.97    1.8918427  0.018381602 
    1300   -929.13463    28.383766   -900.75086    1016.6036   -93629.569    1.8918427   0.15089291 
    1400   -928.70787    27.954118   -900.75375    1001.2151   -94279.764    1.8918427  0.091352778 
    1500   -925.49812    24.747283   -900.75084    886.35792   -92233.417    1.8918427 0.0021954953 
    1600    -924.4782    23.729815   -900.74838     849.9159    -92175.28    1.8918427 0.0054557486 
    1700   -925.68532    24.935462   -900.74986    893.09781   -91964.003    1.8918427   0.24906315 
    1800   -925.85052    25.097456   -900.75306    898.89985   -91617.924    1.8918427  0.008205499 
    1900   -928.02984    27.277665   -900.75217    976.98702   -92719.153    1.8918427 0.0094019781 
    2000   -927.62303    26.872739   -900.75029    962.48405   -91639.776    1.8918427 0.0039730639 
    2100   -927.67048    26.922593   -900.74789    964.26964   -92309.923    1.8918427  0.005717376 
    2200    -926.2763    25.525076   -900.75122    914.21567   -91609.207    1.8918427  0.012651047 
    2300    -927.6692    26.917038   -900.75216    964.07069   -91754.864    1.8918427   0.10952548 
    2400   -924.25483    23.509198   -900.74563     842.0142   -89251.766    1.8918427  0.024148878 
    2500   -927.98065    27.226717   -900.75393    975.16226   -93630.991    1.8918427  0.030527744 
    2600   -926.72008      25.9681   -900.75198    930.08317   -92548.475    1.8918427  0.019237909 
    2700   -926.89421    26.142991   -900.75122    936.34713   -92470.145    1.8918427   0.06643105 
    2800   -928.25662     27.50077   -900.75585    984.97784   -94097.693    1.8918427   0.19236697 
    2900   -926.08585     25.33519   -900.75066    907.41464    -92711.69    1.8918427   0.16712168 
    3000   -925.75661    25.007825   -900.74878    895.68961   -93540.573    1.8918427  0.051856772 
    3100     -926.323    25.572219   -900.75078    915.90416   -91551.988    1.8918427  0.057682844 
    3200   -926.42686    25.677018   -900.74984    919.65765   -92165.629    1.8918427  0.046875093 
    3300   -926.93712    26.189202   -900.74792    938.00223   -90143.296    1.8918427  0.012189928 
    3400   -927.92387    27.174664   -900.74921    973.29793   -92964.338    1.8918427  0.083028462 
    3500   -926.45594    25.702613   -900.75333    920.57439   -92223.388    1.8918427    0.3183923 
    3600   -926.97926    26.226733   -900.75253    939.34646    -93231.66    1.8918427   0.14919265 
    3700   -925.81792    25.064637   -900.75328    897.72441   -92984.384    1.8918427  0.071567254 
    3800   -925.63338    24.879713   -900.75367    891.10108   -91936.092    1.8918427   0.01914967 
    3900    -928.0709    27.317134   -900.75376    978.40069   -94105.465    1.8918427   0.14543206 
    4000   -926.91629    26.164376   -900.75191    937.11306   -92606.173    1.8918427  0.069498647 
    4100   -927.59073    26.840778   -900.74995    961.33932   -92637.405    1.8918427  0.018857042 
    4200   -926.50097    25.749865    -900.7511    922.26677   -91318.027    1.8918427 0.0095842606 
    4300   -927.91126    27.159262     -900.752    972.74627   -93177.739    1.8918427   0.08114825 
    4400    -927.7336    26.987663   -900.74594    966.60021    -93062.64    1.8918427  0.023416573 
    4500   -928.92532    28.166347   -900.75897    1008.8164   -94404.199    1.8918427  0.080006365 
    4600   -927.36761    26.611526   -900.75608    953.12834   -93109.006    1.8918427  0.010915478 
    4700   -926.08002      25.3289   -900.75112    907.18935   -92869.167    1.8918427  0.079268686 
    4800   -927.07105    26.319283   -900.75177    942.66127   -93581.525    1.8918427  0.080736836 
    4900   -925.97861    25.228079   -900.75053    903.57831   -91904.011    1.8918427   0.15048067 
    5000   -925.20165     24.45284   -900.74881    875.81206   -91522.002    1.8918427   0.11016936 
    5100   -927.90161    27.149323   -900.75229    972.39028   -94792.052    1.8918427   0.14766332 
    5200   -926.53321    25.782591   -900.75062    923.43889   -91289.305    1.8918427  0.056821156 
    5300   -928.15659    27.405459   -900.75113    981.56415   -94565.362    1.8918427   0.10290609 
    5400   -925.03037    24.283739   -900.74663    869.75547   -91610.844    1.8918427   0.18585461 
    5500   -924.98947    24.246524   -900.74295    868.42257   -91766.185    1.8918427  0.061411023 
    5600   -926.93452    26.183189   -900.75133    937.78687   -93237.996    1.8918427  0.026072841 
    5700   -927.68305    26.929344   -900.75371    964.51145   -92580.475    1.8918427 0.0038294037 
    5800   -926.29652    25.548927   -900.74759     915.0699    -91508.94    1.8918427  0.057298973 
    5900   -925.39376    24.645576   -900.74818    882.71514   -93407.832    1.8918427  0.010989675 
    6000   -926.47739    25.726576   -900.75082    921.43266   -93089.115    1.8918427    0.1075323 
    6100   -925.10145    24.352749    -900.7487    872.22716   -92450.394    1.8918427  0.043482245 
    6200   -928.25302     27.49563   -900.75739    984.79374   -93947.081    1.8918427  0.023777166 
    6300   -927.20597    26.455425   -900.75054    947.53737   -92598.161    1.8918427  0.030225777 
    6400   -927.02372    26.271809   -900.75192    940.96091   -92222.516    1.8918427  0.041898961 
    6500   -926.83744    26.085526   -900.75192    934.28893   -91534.432    1.8918427   0.02669911 
    6600   -928.55714    27.800918   -900.75622    995.72807   -93676.968    1.8918427  0.070434675 
    6700   -929.59057    28.833741   -900.75683      1032.72   -96021.919    1.8918427  0.065351391 
    6800   -927.09165    26.340739   -900.75092    943.42974   -92710.715    1.8918427  0.032318048 
    6900   -926.39289    25.640899   -900.75199    918.36402   -93580.766    1.8918427  0.044615074 
    7000   -926.16751    25.416017   -900.75149    910.30954   -92905.198    1.8918427  0.091714707 
    7100   -926.08708    25.335379    -900.7517     907.4214   -93388.282    1.8918427  0.056371277 
    7200   -927.43254    26.681935    -900.7506    955.65014   -93182.106    1.8918427  0.036104305 
    7300    -928.6924    27.937508   -900.75489    1000.6202    -94459.29    1.8918427  0.050821053 
    7400   -926.28937    25.538103   -900.75127    914.68224   -92650.012    1.8918427   0.01915264 
    7500   -928.96493    28.208224    -900.7567    1010.3163   -94127.953    1.8918427    0.0933088 
    7600   -927.47953    26.723501   -900.75603     957.1389   -92462.711    1.8918427  0.020861115 
    7700   -926.45714     25.70488   -900.75226     920.6556   -92825.352    1.8918427  0.068714458 
    7800   -924.41915    23.672747    -900.7464    847.87196   -90240.278    1.8918427  0.052402119 
    7900   -927.62832    26.875315   -900.75301    962.57633   -93999.052    1.8918427  0.050412994 
    8000    -926.4028    25.653613   -900.74918     918.8194   -92489.628    1.8918427  0.044453421 
    8100   -927.38266    26.627175   -900.75549    953.68885    -94688.51    1.8918427  0.061679374 
    8200   -926.12076    25.373592   -900.74717    908.79006   -92992.533    1.8918427  0.038812366 
    8300   -926.26096    25.508529   -900.75243      913.623   -93051.762    1.8918427  0.061754321 
    8400   -926.17498    25.425895   -900.74909    910.66336   -91493.403    1.8918427  0.026550772 
    8500   -926.06994    25.322401   -900.74754    906.95658   -91457.756    1.8918427  0.062417045 
    8600   -927.63172    26.880575   -900.75115    962.76472   -92991.579    1.8918427   0.05454502 
    8700   -926.08747    25.339454   -900.74802    907.56734    -91575.94    1.8918427   0.11467921 
    8800    -926.2074     25.45732   -900.75008     911.7889   -92405.835    1.8918427  0.046248362 
    8900   -924.56736    23.819788   -900.74757    853.13842   -91257.891    1.8918427    0.1732262 
    9000   -926.43796    25.688477   -900.74948     920.0681   -92834.192    1.8918427  0.098421401 
    9100   -926.65741    25.906351   -900.75106    927.87155   -93353.312    1.8918427  0.020093114 
    9200   -928.69613    27.940689   -900.75544    1000.7342   -94614.953    1.8918427 0.0096333993 
    9300   -925.84051    25.096015    -900.7445    898.84826   -91983.894    1.8918427  0.040957598 
    9400   -925.90527    25.154791   -900.75048     900.9534       -92460    1.8918427  0.043873906 
    9500   -925.93113    25.178848   -900.75228    901.81504   -92902.008    1.8918427  0.056323271 
    9600   -928.00763    27.254331    -900.7533    976.15129   -94229.565    1.8918427  0.052674835 
    9700   -926.29684    25.544505   -900.75233    914.91154   -93876.377    1.8918427  0.066528793 
    9800   -926.30293    25.556558   -900.74638    915.34322   -93216.461    1.8918427  0.032054585 
    9900   -928.09856    27.346222   -900.75234    979.44249   -94407.337    1.8918427  0.042885386 
   10000   -927.52216    26.772676   -900.74949    958.90016   -93816.069    1.8918427 0.0075485671 
   10100   -926.66754    25.920361   -900.74718    928.37332   -93109.118    1.8918427  0.020998706 
   10200   -929.08738    28.330701   -900.75668     1014.703   -95610.735    1.8918427 0.0045387806 
   10300   -925.44754    24.696657   -900.75088    884.54471   -91716.139    1.8918427   0.15657258 
   10400   -925.22582    24.480182   -900.74563    876.79135   -92620.415    1.8918427    0.1040869 
   10500   -925.39306    24.643205   -900.74986    882.63024   -91788.571    1.8918427  0.040127586 
   10600   -927.40824    26.652348   -900.75589    954.59046   -95242.068    1.8918427  0.070423127 
   10700   -925.93124    25.182995   -900.74825    901.96354   -93791.548    1.8918427   0.10404729 
   10800   -926.08935    25.339752    -900.7496    907.57801   -92399.672    1.8918427 0.0068120079 
   10900   -928.28582    27.533014   -900.75281    986.13271   -94956.156    1.8918427 0.0059743139 
   11000   -926.89324    26.141957   -900.75128     936.3101   -92273.576    1.8918427   0.17800609 
   11100   -926.61487     25.86631   -900.74856    926.43742   -91935.425    1.8918427    0.1524292 
   11200   -926.00338    25.255482    -900.7479    904.55976   -92230.459    1.8918427  0.022929235 
   11300   -926.77641    26.027135   -900.74927    932.19759   -93218.032    1.8918427   0.20834887 
   11400    -927.2977    26.545311   -900.75239    950.75677   -93784.776    1.8918427  0.030058308 
   11500   -926.84777    26.097167   -900.75061    934.70589   -94035.794    1.8918427  0.012041655 
   11600   -925.21892    24.467469   -900.75145    876.33602    -92847.85    1.8918427    0.1130301 
   11700   -927.62463    26.872179   -900.75245    962.46399   -94120.654    1.8918427  0.010863606 
   11800   -925.72759    24.982048   -900.74554    894.76636   -92194.675    1.8918427   0.22844287 
   11900   -927.63604    26.882408   -900.75363    962.83037   -92167.975    1.8918427  0.010575712 
   12000   -927.30121    26.548146   -900.75306    950.85832   -92871.911    1.8918427  0.086538799 
   12100    -925.9756    25.223921   -900.75168    903.42939   -92832.348    1.8918427  0.039235417 
   12200   -925.94275    25.195684   -900.74707    902.41803   -92504.084    1.8918427   0.04907039 
   12300   -926.91793    26.166587   -900.75134    937.19224   -92862.588    1.8918427   0.14738334 
   12400   -928.01535     27.26006   -900.75529    976.35649   -95282.963    1.8918427   0.06867044 
   12500   -926.91147    26.161296   -900.75017    937.00274   -92984.857    1.8918427  0.020357367 
   12600   -926.17594    25.426962   -900.74898    910.70159    -93514.82    1.8918427  0.087403307 
   12700   -926.07314    25.323435   -900.74971    906.99361   -92407.558    1.8918427   0.14544979 
   12800   -927.34855    26.597547     -900.751    952.62766   -94342.834    1.8918427   0.12681246 
   12900   -926.93826    26.187535   -900.75072    937.94254   -94795.684    1.8918427  0.026189578 
   13000   -927.37989    26.626769   -900.75312    953.67432   -94284.796    1.8918427   0.14549837 
   13100   -926.02891    25.278905      -900.75    905.39869   -92757.331    1.8918427  0.018955188 
   13200   -928.52756    27.776477   -900.75108    994.85268   -95555.812    1.8918427  0.089445396 
   13300   -927.35217    26.603927   -900.74824     952.8562   -94768.634    1.8918427 0.0021588783 
   13400   -926.66054    25.913868   -900.74667    928.14079   -95288.296    1.8918427  0.041118785 
   13500    -928.4681    27.710967   -900.75713    992.50633   -96058.654    1.8918427  0.041162045 
   13600    -926.1682    25.416885   -900.75131    910.34064   -93166.624    1.8918427  0.099377258 
   13700    -927.0227    26.270997    -900.7517    940.93183   -94007.142    1.8918427  0.032875509 
   13800   -928.09604    27.344741    -900.7513    979.38946    -95783.98    1.8918427  0.043251102 
   13900    -926.5485    25.797968   -900.75053    923.98966   -94540.093    1.8918427   0.11618917 
   14000   -928.28677    27.534518   -900.75226    986.18657   -95164.833    1.8918427   0.13066215 
   14100   -926.33768    25.590514   -900.74717    916.55942   -93470.339    1.8918427  0.073220384 
   14200   -925.83801    25.089091   -900.74892    898.60024   -92340.699    1.8918427  0.028975329 
   14300   -927.89059    27.141001   -900.74959    972.09224   -94667.151    1.8918427  0.055286761 
   14400   -925.30589    24.558157   -900.74773    879.58414   -93160.465    1.8918427  0.021637849 
   14500   -927.27746    26.520997   -900.75647    949.88595   -94885.411    1.8918427 0.0090385432 
   14600   -926.44445    25.693731   -900.75072    920.25627   -93609.445    1.8918427  0.082377877 
   14700   -926.01302    25.261204   -900.75182     904.7647   -93995.396    1.8918427   0.10089489 
   14800   -927.69849    26.948553   -900.74993    965.19945   -93755.012    1.8918427   0.23233465 
   14900   -928.72048    27.967785   -900.75269    1001.7046   -95561.394    1.8918427   0.11626388 
   15000   -927.21693    26.466625   -900.75031    947.93852   -94707.081    1.8918427   0.23525949 
   15100   -927.65278    26.901809   -900.75097    963.52525   -94916.042    1.8918427   0.10386401 
   15200   -927.01987    26.267795   -900.75208    940.81715   -93871.778    1.8918427 0.0023894029 
   15300   -927.02863    26.275323   -900.75331     941.0868   -94586.174    1.8918427  0.012757354 
   15400   -926.65871    25.908127   -900.75058    927.93517   -93609.503    1.8918427  0.044303711 
   15500   -927.28612    26.530978   -900.75515    950.24343   -94348.819    1.8918427  0.063979497 
   15600    -927.1518     26.40256   -900.74924    945.64393   -93801.111    1.8918427 0.00066677418 
   15700   -926.15067    25.401979   -900.74869    909.80678   -93498.346    1.8918427   0.11697153 
   15800   -927.19756    26.444576   -900.75298    947.14881   -94132.922    1.8918427   0.12497245 
   15900   -925.89511    25.143684   -900.75143    900.55558   -93316.205    1.8918427   0.12937282 
   16000   -926.41412    25.661642   -900.75247    919.10696   -94572.483    1.8918427  0.018000186 
   16100   -927.48756    26.733698   -900.75386    957.50412   -94441.315    1.8918427  0.019084428 
   16200   -926.20378    25.453208   -900.75057     911.6416   -93370.005    1.8918427   0.14480971 
   16300   -927.58537    26.832531   -900.75284    961.04397   -95160.107    1.8918427  0.075144013 
   16400   -925.19011    24.444068   -900.74604    875.49789   -93530.799    1.8918427  0.041033599 
   16500   -927.37372    26.622347   -900.75138    953.51593   -93449.914    1.8918427  0.030284091 
   16600   -926.95435    26.205737   -900.74861    938.59446   -94569.244    1.8918427  0.033471004 
   16700   -927.17671    26.425278   -900.75143    946.45761   -93449.656    1.8918427  0.030382901 
   16800   -926.11355    25.362142   -900.75141    908.37994   -93809.126    1.8918427  0.095827835 
   16900   -925.22424     24.47833   -900.74591    876.72501   -91197.217    1.8918427  0.028052429 
   17000   -926.58365     25.83299   -900.75066    925.24401   -92595.621    1.8918427  0.032850599 
   17100   -927.87982    27.126859   -900.75296     971.5857   -93762.741    1.8918427 0.0064416094 
   17126   -924.70236    23.954186   -900.74817    857.95206   -90172.816    1.8918427  0.016499385 
Loop time of 8.99028 on 1 procs for 17126 steps with 217 atoms

Performance: 192.215 ns/day, 0.125 hours/ns, 1904.947 timesteps/s
100.0% CPU use with 1 MPI tasks x no OpenMP threads

MPI task timing breakdown:
Section |  min time  |  avg time  |  max time  |%varavg| %total
---------------------------------------------------------------
Pair    | 8.8492     | 8.8492     | 8.8492     |   0.0 | 98.43
Neigh   | 0.004368   | 0.004368   | 0.004368   |   0.0 |  0.05
Comm    | 0.07022    | 0.07022    | 0.07022    |   0.0 |  0.78
Output  | 0.0048153  | 0.0048153  | 0.0048153  |   0.0 |  0.05
Modify  | 0.037906   | 0.037906   | 0.037906   |   0.0 |  0.42
Other   |            | 0.02382    |            |       |  0.26

Nlocal:    217 ave 217 max 217 min
Histogram: 1 0 0 0 0 0 0 0 0 0
Nghost:    925 ave 925 max 925 min
Histogram: 1 0 0 0 0 0 0 0 0 0
Neighs:    3605 ave 3605 max 3605 min
Histogram: 1 0 0 0 0 0 0 0 0 0
FullNghs:  7210 ave 7210 max 7210 min
Histogram: 1 0 0 0 0 0 0 0 0 0

Total # of neighbors = 7210
Ave neighs/atom = 33.2258
Neighbor list builds = 8
Dangerous builds = 0
Total wall time: 0:00:08
