LAMMPS (3 Mar 2020)

# ---------- 1. Initialize simulation ----------
units metal
atom_style atomic
dimension 3
boundary p p p
read_data /home/modeler/RemLabs/Project/eval_timestep_nvt_fluc/n3_T1800_timestep6.371375e-04_steps31391/20201206-212349/lammps.data
  orthogonal box = (0 0 0) to (17.469 17.469 17.469)
  1 by 1 by 1 MPI processor grid
  reading atoms ...
  217 atoms
  read_data CPU = 0.000933136 secs

pair_style meam/c
pair_coeff * * library.meam Li Si LiSi.meam Li Si
Reading potential file library.meam with DATE: 2012-06-29
Reading potential file LiSi.meam with DATE: 2020-11-07

group Li type 1
1 atoms in group Li

velocity all create 1800 3320 dist gaussian

# ---------- 2. Describe computed properties----------
compute msdli Li msd
thermo_style custom step pe ke etotal temp press density c_msdli[4]
thermo 100

# ---------- 3. Specify ensemble  ----------
# fix 1 all npt temp 1800 1800 0.03185687464257833 tchain 2 iso 1.0 1.0 1.0 pchain 2
fix 1 all nvt temp 1800 1800 0.03185687464257833
# fix 1 all nve

# ---------- 4. Run -------------
timestep 0.0006371374928515666
run 31391
Neighbor list info ...
  update every 1 steps, delay 10 steps, check yes
  max neighbors/atom: 2000, page size: 100000
  master list distance cutoff = 6
  ghost atom cutoff = 6
  binsize = 3, bins = 6 6 6
  2 neighbor lists, perpetual/occasional/extra = 2 0 0
  (1) pair meam/c, perpetual
      attributes: full, newton on
      pair build: full/bin/atomonly
      stencil: full/bin/3d
      bin: standard
  (2) pair meam/c, perpetual, half/full from (1)
      attributes: half, newton on
      pair build: halffull/newton
      stencil: none
      bin: none
Per MPI rank memory allocation (min/avg/max) = 9.27 | 9.27 | 9.27 Mbytes
Step PotEng KinEng TotEng Temp Press Density c_msdli[4] 
       0   -951.04357    50.256344   -900.78722         1800   -114161.75    1.8918427            0 
     100   -919.51301    32.821953   -886.69106    1175.5633   -86726.981    1.8918427   0.16437663 
     200   -909.53594     48.53446   -861.00148    1738.3283   -71047.115    1.8918427    0.1050301 
     300   -903.67274    59.952725   -843.72001    2147.2892    -62929.87    1.8918427   0.25564201 
     400    -906.3547    49.843395    -856.5113    1785.2097   -68520.158    1.8918427   0.29851091 
     500   -909.21633    53.074745   -856.14159    1900.9449   -67615.383    1.8918427   0.64192927 
     600   -902.04616    50.911877   -851.13429    1823.4788   -63754.464    1.8918427   0.37551439 
     700    -906.8102    54.070963   -852.73924    1936.6258   -66049.055    1.8918427   0.71230329 
     800     -906.328    52.102611   -854.22539    1866.1266   -64763.524    1.8918427 0.0091951495 
     900    -906.5948    53.529475   -853.06532    1917.2317   -67203.915    1.8918427  0.012776225 
    1000   -910.41217    53.771344   -856.64083    1925.8945   -70231.502    1.8918427   0.13161604 
    1100   -905.79598    58.412463   -847.38351    2092.1226   -65415.131    1.8918427   0.36245081 
    1200   -903.05834    49.096838    -853.9615    1758.4707    -64716.52    1.8918427   0.11043135 
    1300   -908.70014    53.949083   -854.75106    1932.2605   -68769.466    1.8918427  0.048019085 
    1400    -904.7038    49.306196   -855.39761    1765.9691   -64145.817    1.8918427   0.49275696 
    1500   -904.11995     53.77888   -850.34107    1926.1645   -63913.718    1.8918427   0.12331013 
    1600   -904.34097     48.59845   -855.74253    1740.6202   -64208.368    1.8918427   0.12554457 
    1700   -902.98612    48.882897   -854.10323    1750.8081   -65073.933    1.8918427   0.16876896 
    1800   -902.51325    56.609765   -845.90349    2027.5565   -62025.517    1.8918427   0.14210777 
    1900   -902.87062     47.74885   -855.12177    1710.1906   -63631.986    1.8918427  0.012545859 
    2000   -900.69666    44.609112   -856.08755    1597.7366   -63876.533    1.8918427   0.75328137 
    2100   -902.00488    52.572125   -849.43275    1882.9429   -64153.307    1.8918427   0.15869383 
    2200   -903.89825    50.421332   -853.47691    1805.9093    -65202.42    1.8918427   0.24984988 
    2300   -903.41007    47.651045   -855.75902    1706.6876   -64292.682    1.8918427    0.8971096 
    2400   -901.45523     52.04239   -849.41284    1863.9697   -63818.773    1.8918427    1.1580781 
    2500   -908.43997    50.704076    -857.7359    1816.0361   -70212.695    1.8918427   0.35338616 
    2600   -905.82912    49.575082   -856.25404    1775.5997   -70295.226    1.8918427   0.25791365 
    2700   -900.26741    50.404051   -849.86336    1805.2903   -61000.868    1.8918427   0.40072287 
    2800   -903.03658    47.943749   -855.09283    1717.1712   -67390.846    1.8918427   0.41004527 
    2900   -910.93564    48.188794   -862.74684    1725.9478   -74083.922    1.8918427   0.19420325 
    3000   -902.29445    49.862341   -852.43211    1785.8882   -66428.351    1.8918427   0.14950717 
    3100   -901.51769    50.861978   -850.65572    1821.6916   -64235.161    1.8918427   0.51039755 
    3200   -900.87977    47.861844   -853.01793    1714.2377   -63623.882    1.8918427   0.21195339 
    3300    -907.2489    49.013227   -858.23568    1755.4761   -70408.164    1.8918427   0.77352562 
    3400   -903.03167    52.414125   -850.61755    1877.2839   -66656.397    1.8918427    1.0318525 
    3500   -899.55787    48.485296   -851.07258    1736.5675   -67721.548    1.8918427    4.3207762 
    3600   -904.21424    49.634486   -854.57975    1777.7273   -69084.433    1.8918427    6.7845085 
    3700   -906.48852    50.041729   -856.44679    1792.3133   -67174.844    1.8918427    7.5003446 
    3800   -899.18086    53.201315   -845.97955    1905.4782   -60665.587    1.8918427    6.1736305 
    3900   -902.31815    50.587663   -851.73048    1811.8666   -67645.234    1.8918427    5.2975821 
    4000   -901.10761    45.242361   -855.86525    1620.4173   -67550.705    1.8918427    6.1218673 
    4100   -905.58027    49.440228   -856.14004    1770.7697   -68634.342    1.8918427     4.863605 
    4200   -896.89169     49.24542   -847.64627    1763.7924   -60681.212    1.8918427    5.0354714 
    4300   -901.62021    48.687386   -852.93282    1743.8056   -65220.096    1.8918427    4.4126498 
    4400     -900.761    46.105324   -854.65567    1651.3255   -64574.844    1.8918427    4.2472586 
    4500   -897.56649    48.394349   -849.17215    1733.3101   -61488.274    1.8918427    4.8502702 
    4600   -904.21702    48.351468   -855.86555    1731.7742    -66544.08    1.8918427    7.3217246 
    4700   -904.47669    47.391689   -857.08501    1697.3984   -68025.579    1.8918427    6.0049156 
    4800   -898.08823    50.212316   -847.87592    1798.4231   -63779.591    1.8918427    5.1600911 
    4900   -904.53402    50.986254   -853.54776    1826.1427   -68750.775    1.8918427     6.068909 
    5000   -905.21447    47.318363   -857.89611    1694.7722   -68788.973    1.8918427     5.138205 
    5100   -901.29711    49.995648   -851.30146    1790.6628   -65912.671    1.8918427    7.3318311 
    5200   -902.69862    51.291618     -851.407    1837.0797    -67683.13    1.8918427    6.3475816 
    5300   -903.40219    48.087919   -855.31427    1722.3349   -66073.299    1.8918427    6.2573716 
    5400   -902.99597    48.847653   -854.14832    1749.5458   -66970.243    1.8918427    4.2402267 
    5500   -902.03025    56.399527   -845.63073    2020.0265    -63252.29    1.8918427    5.8387949 
    5600   -899.00031    46.559741   -852.44057    1667.6011   -63321.815    1.8918427    8.2575611 
    5700   -904.08522     51.46565   -852.61957    1843.3129   -68744.277    1.8918427    9.1367361 
    5800   -902.01824    50.187033   -851.83121    1797.5175   -66079.707    1.8918427    12.903437 
    5900   -906.13501    53.992889   -852.14212    1933.8295   -69886.039    1.8918427    12.485989 
    6000   -905.23787    54.752834   -850.48503    1961.0479   -66943.535    1.8918427    6.5262856 
    6100   -904.94333    53.254935    -851.6884    1907.3987   -68610.443    1.8918427    4.7443975 
    6200   -908.63682    50.719693   -857.91713    1816.5955   -72374.115    1.8918427     5.573522 
    6300    -902.3399    53.994795    -848.3451    1933.8977   -64632.735    1.8918427    4.3353415 
    6400   -901.96322    46.429486   -855.53374    1662.9358   -67979.969    1.8918427    4.8203273 
    6500   -903.03137    50.927189   -852.10418    1824.0272   -66667.106    1.8918427    7.1866237 
    6600   -896.72161    54.854996   -841.86662     1964.707   -58667.474    1.8918427    6.3827476 
    6700   -902.85053    51.450714   -851.39982     1842.778   -66855.163    1.8918427    4.4400048 
    6800   -906.90792    53.278573   -853.62935    1908.2453    -68352.52    1.8918427    5.1606139 
    6900   -906.05297    45.854105   -860.19886    1642.3278   -71393.798    1.8918427    7.2848231 
    7000   -902.01184    51.142327   -850.86951    1831.7327   -65962.849    1.8918427    4.1301627 
    7100   -904.53373    54.328274   -850.20545    1945.8418   -68651.876    1.8918427    3.4814559 
    7200   -902.00909    50.090013   -851.91908    1794.0426    -66484.49    1.8918427    6.1208662 
    7300   -907.01869    48.458614   -858.56007    1735.6118   -70245.911    1.8918427    6.5558568 
    7400   -904.88979    52.679655   -852.21013    1886.7942   -66589.758    1.8918427    4.0726718 
    7500   -902.83166    52.841619   -849.99004    1892.5952   -64977.042    1.8918427    4.6266718 
    7600   -902.01294    44.921723   -857.09121    1608.9332   -67174.045    1.8918427    6.2888972 
    7700   -905.42152    50.221426   -855.20009    1798.7493   -70087.254    1.8918427    9.5394821 
    7800   -901.78579     49.42276   -852.36302     1770.144   -65025.952    1.8918427    7.9199683 
    7900   -904.63202    52.914888   -851.71713    1895.2194   -66444.895    1.8918427    6.2555438 
    8000   -905.57371    45.983778   -859.58993    1646.9722   -69510.431    1.8918427    6.5583594 
    8100   -902.02549    53.231929   -848.79356    1906.5746   -65383.102    1.8918427    6.5848184 
    8200   -905.36678    51.584911   -853.78187    1847.5844   -66019.505    1.8918427    8.4961453 
    8300   -904.25114    47.762844    -856.4883    1710.6919    -69435.67    1.8918427    13.792354 
    8400   -899.69341    49.238411     -850.455    1763.5413   -63139.194    1.8918427    11.426635 
    8500   -904.26962    49.605671   -854.66395    1776.6952   -70452.322    1.8918427    14.625319 
    8600   -907.25558    48.429312   -858.82627    1734.5623   -69751.156    1.8918427    7.6730436 
    8700   -903.48816    51.339478   -852.14868    1838.7939   -68446.595    1.8918427    7.6645658 
    8800   -904.02207    47.721311   -856.30076    1709.2043   -69391.536    1.8918427    6.0605516 
    8900    -899.7334    51.520572   -848.21282      1845.28   -63164.287    1.8918427    8.0837955 
    9000   -902.89762    49.683776   -853.21384    1779.4927   -66366.464    1.8918427    7.8505479 
    9100   -906.33995    48.478253    -857.8617    1736.3152   -70592.098    1.8918427    6.9468638 
    9200   -901.76121    50.786518   -850.97469    1818.9889   -65788.249    1.8918427    6.9884098 
    9300    -902.8275    52.243965   -850.58353    1871.1894   -64134.753    1.8918427    3.0959898 
    9400   -903.77174    48.424265   -855.34747    1734.3816    -68774.91    1.8918427    6.3263032 
    9500   -898.75232    48.646035   -850.10629    1742.3246   -63750.264    1.8918427    6.7424588 
    9600   -895.97643    50.685218   -845.29121    1815.3607   -61046.557    1.8918427    5.6695529 
    9700   -903.40674    50.624918   -852.78182     1813.201   -66588.393    1.8918427     6.727038 
    9800   -904.23626     48.94322   -855.29304    1752.9686   -69281.652    1.8918427    5.3573952 
    9900    -896.0839    49.844098    -846.2398    1785.2348   -62979.788    1.8918427     3.390533 
   10000   -899.22738    53.387715   -845.83966    1912.1543     -62820.5    1.8918427    6.9316752 
   10100   -904.91181    52.274076   -852.63774    1872.2678   -69416.388    1.8918427    7.3322323 
   10200   -904.33759    48.020191   -856.31739    1719.9091   -70251.795    1.8918427    9.3209715 
   10300   -904.47563    45.836106   -858.63952    1641.6831   -70648.729    1.8918427    7.1130462 
   10400   -898.21961    48.744889   -849.47472    1745.8652    -65264.49    1.8918427    3.3164133 
   10500   -900.33744    49.464625   -850.87282    1771.6435   -62689.001    1.8918427    7.2020847 
   10600   -904.19474    47.366092   -856.82865    1696.4816   -69221.266    1.8918427    5.0442395 
   10700   -900.25634    47.032972   -853.22336    1684.5505   -66734.201    1.8918427    5.4271858 
   10800   -905.02718    55.576372   -849.45081    1990.5441   -68404.898    1.8918427    5.1611501 
   10900   -903.15084    50.403453   -852.74738    1805.2689   -67003.524    1.8918427    6.8814606 
   11000    -905.7237    47.398205   -858.32549    1697.6318   -72757.935    1.8918427    5.0604705 
   11100   -901.49826    50.310455    -851.1878     1801.938   -63681.913    1.8918427    5.2525655 
   11200   -905.16352    55.110828    -850.0527      1973.87   -67709.852    1.8918427    3.9910612 
   11300    -902.8419    48.994306   -853.84759    1754.7984   -66372.617    1.8918427    3.7612538 
   11400   -900.68747    46.659671    -854.0278    1671.1802   -67944.805    1.8918427    2.7307956 
   11500   -899.27568      52.6622   -846.61348     1886.169   -62535.079    1.8918427    2.1019077 
   11600   -900.38379    47.394142   -852.98965    1697.4863    -66685.74    1.8918427     5.884974 
   11700   -910.70939    48.378139   -862.33125    1732.7295   -74667.113    1.8918427    6.5482812 
   11800   -900.51702    48.262239   -852.25478    1728.5784   -63665.186    1.8918427    8.5408852 
   11900   -899.69168    51.898469   -847.79321    1858.8149   -63665.478    1.8918427    6.1311985 
   12000   -908.31563    49.643045   -858.67259    1778.0338   -73293.869    1.8918427    3.1310619 
   12100   -903.43158    50.144104   -853.28747      1795.98   -67799.972    1.8918427    6.9358885 
   12200   -903.64172    52.590061   -851.05166    1883.5853   -67918.229    1.8918427    4.8192393 
   12300   -905.75531    49.191566   -856.56375    1761.8635   -70435.604    1.8918427    5.9899385 
   12400   -905.94874    48.158565   -857.79017    1724.8651   -70565.601    1.8918427    4.6652259 
   12500   -900.61079     50.48016   -850.13063    1808.0163   -66261.758    1.8918427    6.7596234 
   12600   -902.47505    51.856693   -850.61835    1857.3187   -66253.921    1.8918427    6.3593336 
   12700   -903.74379    48.770551   -854.97324    1746.7843   -67915.619    1.8918427    5.6371951 
   12800    -900.1401    46.014904   -854.12519     1648.087   -66812.054    1.8918427    4.2930177 
   12900   -901.09454    55.438551   -845.65599    1985.6079   -66024.441    1.8918427    6.7678335 
   13000   -904.49042    51.306583   -853.18383    1837.6157   -68996.934    1.8918427    3.7885459 
   13100   -907.69924    43.726549   -863.97269    1566.1264   -73979.518    1.8918427    7.4327705 
   13200   -906.92466    49.786987   -857.13768    1783.1893   -70540.597    1.8918427    4.0376861 
   13300   -899.44386    51.276175   -848.16768    1836.5266   -63809.345    1.8918427     6.693055 
   13400   -901.23943    48.912491   -852.32694     1751.868   -65317.636    1.8918427    7.7726249 
   13500   -902.98775    49.177883   -853.80986    1761.3734   -69239.332    1.8918427    7.0592705 
   13600   -904.56809    56.017564   -848.55053     2006.346   -69638.651    1.8918427    9.4860431 
   13700   -896.81884    50.048613   -846.77023    1792.5598   -63567.498    1.8918427    7.8719773 
   13800    -908.1949    52.111419   -856.08348    1866.4421   -71831.768    1.8918427    7.6518019 
   13900   -902.88231    47.730547   -855.15176    1709.5351   -66851.592    1.8918427     5.019811 
   14000   -899.66213    51.972321   -847.68981      1861.46    -64918.84    1.8918427    5.5540065 
   14100   -903.15537     49.14874   -854.00663    1760.3296   -67995.986    1.8918427    6.3943803 
   14200   -904.59015    42.179281   -862.41087    1510.7089    -70431.42    1.8918427    5.8383067 
   14300   -904.88634    49.936205   -854.95013    1788.5338   -70011.916    1.8918427     6.840816 
   14400    -897.9345    48.183314   -849.75119    1725.7516   -61921.149    1.8918427     6.420795 
   14500   -901.89296    47.126136   -854.76682    1687.8873   -68098.636    1.8918427    5.9474297 
   14600   -906.19205    52.433774   -853.75828    1877.9876   -70200.687    1.8918427    3.4625252 
   14700   -900.50584    53.940099   -846.56574    1931.9387   -63687.447    1.8918427    8.9276516 
   14800   -901.53116    52.059215   -849.47195    1864.5723    -66393.34    1.8918427    5.5503256 
   14900    -901.8649    49.871302    -851.9936    1786.2092   -65517.576    1.8918427    7.9706914 
   15000    -903.2832    48.051026   -855.23217    1721.0135   -67642.288    1.8918427    5.4404638 
   15100   -905.37971    49.360388   -856.01933    1767.9101   -70717.381    1.8918427    4.8295505 
   15200   -896.83211    48.914451   -847.91766    1751.9382   -60691.744    1.8918427    8.2616466 
   15300   -904.64927    49.529047   -855.12022    1773.9509   -67099.854    1.8918427    18.042571 
   15400   -903.79319     50.56858   -853.22461    1811.1831    -68385.71    1.8918427    17.886131 
   15500   -901.84997    51.554055   -850.29592    1846.4793   -67263.494    1.8918427    15.705508 
   15600    -901.4756    44.118974   -857.35662    1580.1816   -66529.827    1.8918427    8.8256223 
   15700   -904.15694    50.190043    -853.9669    1797.6253   -68494.201    1.8918427    8.9270459 
   15800   -900.79559    55.282841   -845.51275    1980.0309    -63499.69    1.8918427    11.966492 
   15900     -901.889    50.779519   -851.10948    1818.7382   -66470.397    1.8918427     12.76983 
   16000   -907.46328    50.813871   -856.64941    1819.9686   -72560.042    1.8918427    12.886057 
   16100   -899.89026    49.631996   -850.25827    1777.6381   -64207.749    1.8918427    18.168595 
   16200    -900.9742    55.074114   -845.90009     1972.555   -66520.939    1.8918427    16.972665 
   16300   -905.75774    50.645958   -855.11178    1813.9545    -69445.41    1.8918427    20.738249 
   16400   -904.53651    49.310087   -855.22643    1766.1085   -67483.431    1.8918427    19.320718 
   16500   -901.38778    57.172152   -844.21562    2047.6992   -66194.283    1.8918427    15.556056 
   16600   -904.13805    52.641192   -851.49686    1885.4166   -65855.681    1.8918427    16.645184 
   16700    -902.2641    46.009492   -856.25461    1647.8931   -67955.665    1.8918427    19.741794 
   16800   -903.88247    51.979803   -851.90267     1861.728   -66369.423    1.8918427    16.932405 
   16900   -902.52416    46.932806   -855.59135    1680.9629   -67972.811    1.8918427    18.414312 
   17000   -895.50534    47.802186   -847.70316    1712.1009   -60689.785    1.8918427    16.597663 
   17100   -905.27786    48.423248   -856.85462    1734.3451   -67388.014    1.8918427    16.299599 
   17200   -902.93335    48.513992   -854.41936    1737.5953   -67984.727    1.8918427    16.250133 
   17300   -904.10913    53.338705   -850.77043     1910.399   -67602.776    1.8918427    18.543704 
   17400   -903.21696    49.141453   -854.07551    1760.0686   -66038.738    1.8918427    19.100136 
   17500   -907.55768    47.687666   -859.87001    1707.9993    -73162.45    1.8918427    24.470539 
   17600   -902.50131    51.459952   -851.04136    1843.1089   -65309.036    1.8918427    22.002586 
   17700   -897.42049    45.869836   -851.55066    1642.8912   -61789.827    1.8918427    24.655884 
   17800   -906.86958     45.68451   -861.18507    1636.2535   -71950.621    1.8918427     19.25466 
   17900   -902.94717    51.933872    -851.0133     1860.083   -67322.466    1.8918427    33.936175 
   18000   -898.97522     52.32047   -846.65475    1873.9295   -61419.942    1.8918427    30.085725 
   18100   -903.50855    50.173845   -853.33471    1797.0452   -69659.792    1.8918427    39.934294 
   18200   -904.47348    47.431155   -857.04233     1698.812   -68278.736    1.8918427    40.962579 
   18300   -902.90805    51.941381   -850.96667    1860.3519   -63840.534    1.8918427    42.587514 
   18400   -897.81038    45.168279   -852.64211    1617.7639   -64026.491    1.8918427    34.354913 
   18500   -901.69464    51.649996   -850.04464    1849.9156   -65049.935    1.8918427    40.463993 
   18600   -904.02779    48.364314   -855.66347    1732.2343   -68924.863    1.8918427    33.739215 
   18700   -897.66926    51.015909   -846.65336    1827.2048     -60877.2    1.8918427     48.31959 
   18800   -902.04816    51.388514   -850.65965    1840.5502   -64646.134    1.8918427    39.345971 
   18900   -902.47193    47.458386   -855.01354    1699.7873   -66397.274    1.8918427    46.137997 
   19000    -900.1389    49.216903     -850.922     1762.771   -64758.488    1.8918427    35.794292 
   19100   -894.18108    47.640657   -846.54042    1706.3156   -60679.417    1.8918427     50.67778 
   19200   -905.50869    51.308409   -854.20028    1837.6812   -69144.489    1.8918427    40.646487 
   19300   -901.56921    47.715119   -853.85409    1708.9825   -65631.308    1.8918427    27.049801 
   19400   -900.50604    48.481379   -852.02466    1736.4272   -65906.212    1.8918427    26.099967 
   19500   -904.63674    52.723785   -851.91295    1888.3748   -68709.857    1.8918427    25.559799 
   19600   -901.60018    47.060602   -854.53958    1685.5401   -65957.325    1.8918427    23.856343 
   19700   -907.24307    48.139344   -859.10372    1724.1767    -71981.65    1.8918427    21.122317 
   19800    -899.2369    49.070666   -850.16623    1757.5333   -64028.939    1.8918427    21.200277 
   19900   -900.15079    52.538837   -847.61195    1881.7506   -60845.661    1.8918427     23.13169 
   20000   -905.11106    45.929053   -859.18201    1645.0121   -66874.691    1.8918427    28.155145 
   20100   -900.54758    50.428555   -850.11903     1806.168   -64578.369    1.8918427    29.963226 
   20200   -898.76102    48.684065   -850.07695    1743.6867    -63055.94    1.8918427    24.354074 
   20300   -908.17728    47.250209   -860.92707    1692.3311   -71549.349    1.8918427    18.893703 
   20400   -903.67923    51.086427    -852.5928    1829.7305    -67234.69    1.8918427    20.850428 
   20500   -901.94369     51.31723   -850.62646    1837.9971   -66322.636    1.8918427    22.592669 
   20600   -904.46293    48.948516   -855.51441    1753.1583   -66670.757    1.8918427    15.757408 
   20700   -904.59494    46.719727   -857.87521    1673.3312   -66611.253    1.8918427     12.99033 
   20800   -901.74588    50.450103   -851.29578    1806.9397   -65496.135    1.8918427     20.52788 
   20900   -902.96276    48.592915   -854.36984     1740.422   -67796.585    1.8918427    19.635865 
   21000   -907.81847    51.383568    -856.4349    1840.3731   -71953.707    1.8918427    17.015981 
   21100   -902.76911    52.849757   -849.91935    1892.8866   -65391.586    1.8918427    13.882626 
   21200   -900.44586    56.251716   -844.19415    2014.7325   -62397.282    1.8918427    16.334265 
   21300   -903.85236    50.266477   -853.58588    1800.3629   -68345.059    1.8918427    18.666267 
   21400   -904.82139    46.254629   -858.56677    1656.6731   -69991.657    1.8918427    17.111918 
   21500   -900.16825    50.620635   -849.54762    1813.0476   -63632.747    1.8918427    17.436255 
   21600    -902.0386    48.347138   -853.69146    1731.6192   -66705.998    1.8918427    17.155436 
   21700   -906.17221    46.392501   -859.77971    1661.6111   -72248.749    1.8918427    17.431033 
   21800   -902.03456    49.777733   -852.25683    1782.8579    -66335.63    1.8918427      17.2274 
   21900   -903.88017    50.907537   -852.97264    1823.3234   -68225.805    1.8918427     18.88217 
   22000   -904.04802    48.536112   -855.51191    1738.3875   -66950.577    1.8918427    17.539357 
   22100   -900.38841    54.210602   -846.17781    1941.6272   -64208.417    1.8918427    18.544774 
   22200   -905.26853    50.153292   -855.11524    1796.3091   -69809.523    1.8918427    20.370361 
   22300   -905.15254    49.454498   -855.69805    1771.2808   -69477.323    1.8918427     16.04361 
   22400   -899.66034    53.509059   -846.15128    1916.5004   -61121.535    1.8918427    15.227958 
   22500   -906.97377    51.163805   -855.80997     1832.502   -71131.084    1.8918427     16.50609 
   22600   -904.27068     53.33447   -850.93621    1910.2473   -66449.854    1.8918427    15.580253 
   22700   -902.74169    46.064513   -856.67718    1649.8638   -67088.096    1.8918427    13.234258 
   22800    -907.8573    41.098975   -866.75832    1472.0162   -73538.374    1.8918427    14.668682 
   22900    -905.8784    49.085963   -856.79243    1758.0812   -68643.094    1.8918427    20.884486 
   23000   -901.24786    52.052039   -849.19582    1864.3153   -63638.408    1.8918427     22.46647 
   23100   -902.39578    46.167149   -856.22863    1653.5399   -67025.588    1.8918427    17.071674 
   23200   -905.43947    49.159579   -856.27989    1760.7179   -67772.063    1.8918427    14.241014 
   23300   -902.82292    50.541102   -852.28182     1810.199   -65569.888    1.8918427    15.706611 
   23400   -901.20927    48.832582   -852.37668     1749.006   -65033.564    1.8918427    17.420253 
   23500   -901.47418    51.179537   -850.29464    1833.0654   -65290.065    1.8918427    19.286247 
   23600   -906.63776      51.1829   -855.45486    1833.1859   -67874.502    1.8918427    17.443505 
   23700   -904.66289    45.926469   -858.73642    1644.9196   -70356.896    1.8918427    17.389147 
   23800   -901.62737    50.551153   -851.07621     1810.559   -65945.411    1.8918427    17.892342 
   23900   -902.18633    47.219093   -854.96724    1691.2167   -65159.668    1.8918427    16.619547 
   24000   -905.59228    45.928788   -859.66349    1645.0026   -69783.787    1.8918427    17.616239 
   24100   -905.11595    54.408384   -850.70756     1948.711    -65933.93    1.8918427    15.477817 
   24200    -902.1983    46.706255   -855.49205    1672.8487   -67553.548    1.8918427    17.002251 
   24300   -900.09294    54.763273   -845.32967    1961.4219   -64004.951    1.8918427    14.792348 
   24400   -904.63251    53.504613    -851.1279    1916.3412    -67193.33    1.8918427    15.706446 
   24500   -903.43483    48.308598   -855.12624    1730.2388   -68838.822    1.8918427    17.739292 
   24600   -903.67045    55.560078   -848.11037    1989.9605    -66847.85    1.8918427    16.024674 
   24700   -905.54175    47.729309   -857.81244    1709.4908   -69717.103    1.8918427    18.992202 
   24800   -903.37555    47.057728   -856.31783    1685.4372   -67362.391    1.8918427    16.789111 
   24900   -901.83951    51.139071   -850.70044    1831.6161   -66339.528    1.8918427    15.588423 
   25000   -901.33814    47.495544   -853.84259    1701.1181   -67034.774    1.8918427    15.108886 
   25100   -908.02444    50.150606   -857.87383    1796.2128   -69971.829    1.8918427     13.58678 
   25200   -899.48925    51.338793   -848.15046    1838.7694    -65193.99    1.8918427    16.431139 
   25300   -900.78601    52.608046   -848.17797    1884.2294   -64744.332    1.8918427    16.037339 
   25400   -905.19053    50.866862   -854.32366    1821.8665   -67780.453    1.8918427    17.476225 
   25500   -908.95976    47.224701   -861.73506    1691.4175   -73931.732    1.8918427    16.880363 
   25600   -906.32441    49.399049   -856.92536    1769.2948   -69371.451    1.8918427    17.095003 
   25700   -901.40966    50.263009   -851.14665    1800.2387   -65065.051    1.8918427    14.261897 
   25800   -899.91092    52.710489   -847.20043    1887.8986   -63107.871    1.8918427    12.173012 
   25900   -904.06283    48.772453   -855.29037    1746.8524   -68507.341    1.8918427    15.180972 
   26000   -904.44625    50.553814   -853.89244    1810.6543   -69284.046    1.8918427    10.469686 
   26100   -898.77809    51.282859   -847.49523     1836.766   -64971.953    1.8918427    13.275657 
   26200   -900.01122    51.945007   -848.06622    1860.4818   -66689.884    1.8918427    10.166204 
   26300   -904.12447    49.268344   -854.85612    1764.6134   -66341.869    1.8918427    9.3297895 
   26400   -902.68632    49.989016    -852.6973    1790.4253   -68592.297    1.8918427    10.444973 
   26500    -900.4414    50.894055   -849.54735    1822.8405    -64882.61    1.8918427    12.755288 
   26600   -899.13849    47.924948   -851.21354    1716.4978    -64173.09    1.8918427    14.054206 
   26700    -903.2632    51.612338   -851.65086    1848.5668   -68500.014    1.8918427    14.254546 
   26800    -902.0155     50.97445   -851.04105    1825.7199   -67431.139    1.8918427    14.605974 
   26900   -899.14106    56.977032   -842.16402    2040.7107   -61729.495    1.8918427    14.308485 
   27000   -902.09961    50.470127   -851.62949    1807.6569   -66570.758    1.8918427    13.708641 
   27100   -903.26024     48.86643   -854.39381    1750.2183   -68445.245    1.8918427    13.059666 
   27200   -900.89171    52.457584   -848.43413    1878.8404   -66688.544    1.8918427    10.531546 
   27300   -896.08771    55.499805   -840.58791    1987.8017   -60543.481    1.8918427    4.9129025 
   27400   -901.36433    52.419797   -848.94453     1877.487   -66474.077    1.8918427    6.8147256 
   27500   -904.15066    47.954114   -856.19655    1717.5425   -70988.431    1.8918427    3.9300352 
   27600   -901.04594    51.431227   -849.61472    1842.0801   -65713.774    1.8918427    4.6095788 
   27700   -904.07812    54.316541   -849.76158    1945.4215   -67665.197    1.8918427    8.2829695 
   27800   -902.42933    46.431085   -855.99824    1662.9931   -67136.639    1.8918427    2.4685116 
   27900   -904.12949     51.41754   -852.71195    1841.5898   -68890.004    1.8918427    4.0590627 
   28000   -900.49625    49.807123   -850.68913    1783.9105   -64479.438    1.8918427    6.1372007 
   28100    -903.0393    50.811711   -852.22759    1819.8912   -68887.159    1.8918427    7.1820817 
   28200   -904.07334    46.658543   -857.41479    1671.1398   -66725.022    1.8918427    3.3493492 
   28300   -899.07693      51.6144   -847.46253    1848.6406    -63776.63    1.8918427    3.2360488 
   28400   -898.84685     45.99391   -852.85294     1647.335   -63127.098    1.8918427    6.0776784 
   28500   -902.48145    48.600257    -853.8812     1740.685    -66495.37    1.8918427    6.7698462 
   28600   -906.92289    45.799579   -861.12331    1640.3748   -72075.768    1.8918427    5.6592267 
   28700   -904.80934    51.802275   -853.00707    1855.3696   -69206.133    1.8918427     5.542058 
   28800   -901.24519    48.366766   -852.87843    1732.3221   -65322.272    1.8918427    6.9676933 
   28900   -902.58124      49.9485   -852.63274    1788.9741   -66387.441    1.8918427    5.1726807 
   29000   -904.68129    54.149333   -850.53195    1939.4327   -68402.506    1.8918427    5.4254501 
   29100   -898.55834    45.755977   -852.80236    1638.8132   -64188.378    1.8918427    6.6512654 
   29200    -905.1756    45.882373   -859.29323    1643.3402   -68694.867    1.8918427     6.326548 
   29300   -905.24091    53.106445   -852.13447    1902.0803    -67323.99    1.8918427    5.9687286 
   29400    -902.3023    48.062851   -854.23944     1721.437   -70131.202    1.8918427    6.6952015 
   29500   -900.31248    53.031086   -847.28139    1899.3812   -63450.237    1.8918427    4.7006722 
   29600   -903.98374    48.266269   -855.71747    1728.7227   -67487.612    1.8918427    6.1381721 
   29700   -905.35375    49.854662   -855.49909    1785.6132   -69170.271    1.8918427    5.8017131 
   29800   -900.97514    51.349475   -849.62567     1839.152   -65601.282    1.8918427     9.525236 
   29900   -900.26007    46.734808   -853.52527    1673.8714   -65456.486    1.8918427    4.3652222 
   30000     -907.154    47.079208   -860.07479    1686.2065   -70223.537    1.8918427    8.7823114 
   30100    -900.5224    49.688561   -850.83384     1779.664   -63726.675    1.8918427     3.085078 
   30200   -901.45139      49.9456   -851.50579    1788.8703    -65117.51    1.8918427    7.7157455 
   30300   -903.78335    47.819303   -855.96405     1712.714   -66781.494    1.8918427    6.2711449 
   30400   -901.24412    52.061566   -849.18255    1864.6565   -63379.562    1.8918427    9.7910517 
   30500   -900.82044     51.61828   -849.20216    1848.7796   -63884.579    1.8918427    6.5221296 
   30600   -906.18997    48.304063    -857.8859    1730.0764   -69688.201    1.8918427    4.8106708 
   30700   -900.41421    53.001726   -847.41249    1898.3296   -65210.587    1.8918427    3.7933354 
   30800     -899.167    50.779833   -848.38717    1818.7495   -66679.363    1.8918427    2.7294238 
   30900   -906.61586    49.910286   -856.70558    1787.6055   -70847.184    1.8918427    6.1451927 
   31000   -903.73225    48.698139   -855.03411    1744.1907   -67262.535    1.8918427     10.73206 
   31100   -901.43838    48.095604   -853.34277    1722.6101   -67377.257    1.8918427     9.571614 
   31200   -900.04839    54.730444   -845.31795     1960.246   -63027.714    1.8918427     13.07266 
   31300   -901.90437    48.877481   -853.02689    1750.6141   -69935.444    1.8918427    12.195905 
   31391   -902.64338    51.272648   -851.37074    1836.4003   -65313.196    1.8918427    15.529482 
Loop time of 16.9369 on 1 procs for 31391 steps with 217 atoms

Performance: 102.028 ns/day, 0.235 hours/ns, 1853.407 timesteps/s
100.0% CPU use with 1 MPI tasks x no OpenMP threads

MPI task timing breakdown:
Section |  min time  |  avg time  |  max time  |%varavg| %total
---------------------------------------------------------------
Pair    | 16.451     | 16.451     | 16.451     |   0.0 | 97.13
Neigh   | 0.18017    | 0.18017    | 0.18017    |   0.0 |  1.06
Comm    | 0.12952    | 0.12952    | 0.12952    |   0.0 |  0.76
Output  | 0.0087402  | 0.0087402  | 0.0087402  |   0.0 |  0.05
Modify  | 0.1289     | 0.1289     | 0.1289     |   0.0 |  0.76
Other   |            | 0.0384     |            |       |  0.23

Nlocal:    217 ave 217 max 217 min
Histogram: 1 0 0 0 0 0 0 0 0 0
Nghost:    893 ave 893 max 893 min
Histogram: 1 0 0 0 0 0 0 0 0 0
Neighs:    3626 ave 3626 max 3626 min
Histogram: 1 0 0 0 0 0 0 0 0 0
FullNghs:  7252 ave 7252 max 7252 min
Histogram: 1 0 0 0 0 0 0 0 0 0

Total # of neighbors = 7252
Ave neighs/atom = 33.4194
Neighbor list builds = 329
Dangerous builds = 0
Total wall time: 0:00:16
