LAMMPS (3 Mar 2020)
Reading data file ...
  orthogonal box = (0 0 0) to (12.27 12.27 12.27)
  1 by 1 by 1 MPI processor grid
  reading atoms ...
  108 atoms
  read_data CPU = 0.000913029 secs
Reading potential file /usr/share/lammps-stable/potentials/Ag_u3.eam with DATE: 2007-06-11
Neighbor list info ...
  update every 1 steps, delay 10 steps, check yes
  max neighbors/atom: 2000, page size: 100000
  master list distance cutoff = 7.55
  ghost atom cutoff = 7.55
  binsize = 3.775, bins = 4 4 4
  2 neighbor lists, perpetual/occasional/extra = 1 1 0
  (1) pair eam, perpetual
      attributes: half, newton on
      pair build: half/bin/atomonly/newton
      stencil: half/bin/3d/newton
      bin: standard
  (2) compute rdf, occasional, copy from (1)
      attributes: half, newton on
      pair build: copy
      stencil: none
      bin: none
Setting up Verlet run ...
  Unit style    : metal
  Current step  : 0
  Time step     : 0.005
Per MPI rank memory allocation (min/avg/max) = 3.723 | 3.723 | 3.723 Mbytes
Step PotEng KinEng TotEng Temp Press Density c_msdall[4] 
       0       -307.8    17.136405   -290.66359         1239    9908.3784    10.472245            0 
     100   -295.81172    7.5993733   -288.21235     549.4515   -2267.7552    9.9631104  0.073333275 
     200    -294.8273    9.0387409   -285.78856    653.52096   -6534.6919    9.8691755  0.090182799 
     300   -294.39281    10.781646   -283.61117    779.53682     10270.89    10.010097  0.082402064 
     400   -295.04406    13.596366    -281.4477    983.04734   -1751.0421    9.8914807   0.09199678 
     500   -291.82176    12.603861   -279.21789    911.28702   -7641.0841    9.6998205   0.11951707 
     600   -292.96776    15.741114   -277.22664    1138.1173   -3818.2271     9.780739   0.11380353 
     700   -291.18905    16.414586   -274.77447    1186.8109    13494.711    9.8974792   0.14269229 
     800   -288.13577    15.230536   -272.90524    1101.2015    3393.1815    9.6527019   0.15504939 
     900   -287.64915    16.606999   -271.04216    1200.7227   -17471.696    9.4231416    0.1827123 
    1000   -286.46174    17.102711   -269.35903    1236.5639   -1815.7727    9.5178662   0.20842666 
    1100   -285.86951    18.554097   -267.31542    1341.5023    -1649.346    9.4689209    0.2109628 
    1200   -282.43674    19.685081   -262.75166    1423.2749   -1284.6487    9.3348025   0.21185658 
    1300   -285.52016     17.79299   -267.72717    1286.4725    1305.0711     9.525176   0.18626405 
    1400   -285.11541    16.170663   -268.94474    1169.1747   -3332.8434    9.4686105   0.19528933 
    1500   -286.88397    17.001901   -269.88207    1229.2751   -12635.963    9.4230316   0.19255227 
    1600   -286.88607    16.083999   -270.80207    1162.9087    16773.105    9.7483166   0.18709327 
    1700   -283.65238    18.986643   -264.66574    1372.7763    4276.8911    9.4842334   0.24948502 
    1800   -284.44566    17.219029   -267.22663    1244.9739   -7709.6221    9.4093102   0.21502798 
    1900   -285.17087    15.536478   -269.63439    1123.3218   -6467.6134    9.4246459   0.19886078 
    2000   -284.61937    15.247886   -269.37149    1102.4559    1577.2538    9.5098696   0.20478074 
    2100   -282.32981    17.709239   -264.62057    1280.4171    900.26956    9.3821127   0.33012931 
    2200   -283.66875    18.486132   -265.18262    1336.5883   -11285.513    9.3183236   0.21618689 
    2300   -287.24618    18.238671   -269.00751    1318.6963   -369.68647     9.575688   0.19539083 
    2400   -288.38543    19.562176   -268.82325    1414.3886    18482.532    9.8239031   0.15183005 
    2500   -286.14654    17.417928   -268.72861    1259.3547   -7446.3794    9.4654623   0.19114489 
    2600   -279.95741     16.60829   -263.34912    1200.8161   -21478.052    9.0288973   0.31917431 
    2700   -284.77791     17.43017   -267.34773    1260.2399    -2997.642    9.4386823   0.21438142 
    2800   -287.11027    17.609692   -269.50058    1273.2197    106.69079    9.5797504    0.1977153 
    2900   -287.39075    18.475169   -268.91558    1335.7956    8896.4469    9.6643163   0.17840589 
    3000   -289.41485    16.393601   -273.02125    1185.2936   -14565.758    9.5169509   0.19766692 
    3100   -286.91554    15.423012   -271.49253    1115.1179   -1199.7291    9.5760486   0.18202654 
    3200   -284.63277     15.86964   -268.76313    1147.4101    1952.8384     9.497167    0.2524601 
    3300   -282.96797    15.817294   -267.15067    1143.6253   -3314.3459    9.3557215   0.26356553 
    3400   -284.18146    15.311346   -268.87011    1107.0442   -11484.048    9.3578204    0.2877216 
    3500   -286.76548     14.41856   -272.34692    1042.4938    10445.013    9.6810151   0.17889683 
    3600   -287.38347    18.392657   -268.99081    1329.8298    1426.0207    9.5888357   0.17492342 
    3700   -282.74137     15.43502   -267.30635    1115.9861    1833.9038    9.4219977   0.26090011 
    3800   -284.08689    13.656461   -270.43043    987.39232   -8970.2319    9.4038769    0.2103364 
    3900   -288.04424    15.952439    -272.0918    1153.3966    2783.9089    9.6551828    0.1893418 
    4000   -285.92218    17.705772   -268.21641    1280.1664    19835.748    9.7558578   0.20894039 
    4100   -282.51491    16.140191   -266.37472    1166.9715   -6159.4928    9.3181092   0.29243207 
    4200    -283.4891    15.876749   -267.61235    1147.9241   -11455.484    9.3108041   0.25536103 
    4300   -286.12336    14.877654   -271.24571    1075.6873     5261.379    9.6101003    0.1863066 
    4400   -287.53723    18.591398   -268.94583    1344.1992     9361.495    9.6921909    0.1526766 
    4500   -285.08702    18.489972   -266.59705    1336.8659    11699.982    9.6009738   0.20589155 
    4600   -283.07907    16.574692   -266.50438    1198.3869   -10968.668    9.2896876    0.2336441 
    4700   -288.17239    16.521258   -271.65113    1194.5235   -5126.8974    9.5549021   0.17850507 
    4800   -286.92028    16.956533   -269.96375    1225.9948    50.700986    9.5824461    0.1901692 
    4900   -283.84478    17.371458   -266.47332    1255.9948   -342.86749    9.4328671   0.26282099 
    5000    -282.9402      16.2164    -266.7238    1172.4816   -10827.447     9.268845   0.32498979 
    5100   -288.10538    16.577468   -271.52792    1198.5876    3677.2658    9.6794939    0.1863747 
    5200   -287.82366    17.875649   -269.94801    1292.4489    468.41826     9.613484   0.18357983 
    5300   -284.01379    16.735668   -267.27812    1210.0258   -6386.9396    9.3764896   0.25982678 
    5400   -283.07617    15.702414   -267.37376    1135.3193   -4268.3092    9.3494597   0.23832636 
    5500   -286.59208    14.528841   -272.06324    1050.4674   -16053.962    9.3956116    0.2070323 
    5600   -285.64897    16.559299   -269.08967    1197.2739     3601.171    9.5472581    0.2123973 
    5700   -287.12994    19.896314   -267.23362    1438.5475    10243.818     9.657501   0.16220683 
    5800   -289.46619     18.54976   -270.91643    1341.1887    18072.607    9.8430223   0.14576453 
    5900   -286.62011    17.626185   -268.99393    1274.4122   -6334.3207    9.4825878   0.17822114 
    6000    -284.4388    18.869311   -265.56949    1364.2929   -10154.753    9.3614323   0.27658348 
    6100    -285.8151     15.49161   -270.32349    1120.0777    442.10099    9.5262014   0.19491596 
    6200   -287.00359     15.83669    -271.1669    1145.0277   -644.51369     9.587047     0.212047 
    6300   -283.93368     17.02553   -266.90815    1230.9835   -13468.866     9.289378   0.24361413 
    6400   -284.37719    16.646206   -267.73099    1203.5575    5659.7873    9.5252554   0.21914196 
    6500   -288.89579    17.733771   -271.16201    1282.1909    16430.147     9.830495   0.12690321 
    6600   -287.38633     18.74986   -268.63647    1355.6563    5738.4152    9.6418521   0.18930936 
    6700   -283.28304    16.636635    -266.6464    1202.8655    1650.9489    9.4433626   0.20573641 
    6800   -287.15186    15.760605   -271.39125    1139.5266    1068.6829    9.5893638   0.19055563 
    6900   -284.39778    14.284419   -270.11337    1032.7951   -66.097092    9.4919135   0.20776592 
    7000   -283.60282    17.149851   -266.45297    1239.9721   -10204.337    9.3078475   0.22558096 
    7100   -287.06976    17.189475   -269.88029     1242.837    17492.785    9.7448107   0.17022269 
    7200   -290.34473    18.240991   -272.10374     1318.864   -1265.0234    9.6916764   0.13419079 
    7300   -285.79831    18.219073   -267.57923    1317.2793    1898.4154    9.5514784   0.18187027 
    7400   -285.92411    18.160228   -267.76388    1313.0247   -5253.6897    9.4770277   0.21332904 
    7500   -287.76064    15.807856   -271.95278     1142.943    4615.5847    9.6708564   0.16159436 
    7600   -288.05879    16.803124   -271.25567    1214.9031    10440.667    9.7246498   0.15659213 
    7700   -286.14203    18.015799   -268.12623    1302.5821    754.49539    9.5436697   0.20734284 
    7800   -284.87675     15.73536   -269.14139    1137.7013   -3946.2374    9.4388768    0.2270773 
    7900   -289.79071    15.542873   -274.24784    1123.7841   -9724.9069    9.6089434   0.15115723 
    8000   -286.74123    15.856213   -270.88502    1146.4392    3053.2169    9.6183162   0.20671286 
    8100   -287.08026    18.134521   -268.94573     1311.166   -1033.0069    9.5579178   0.15988093 
    8200   -286.29076    15.988348   -270.30242    1155.9929   -9234.9824    9.4340671   0.20882253 
    8300   -284.32245    17.525131   -266.79732    1267.1057   -9396.3155     9.351344   0.22539885 
    8400   -283.93739     18.01579    -265.9216    1302.5815   -5208.2503    9.3508238   0.26497689 
    8500   -286.03018    16.880741   -269.14944    1220.5149    270.50523     9.527813   0.20525257 
    8600    -287.0639    17.123323   -269.94057    1238.0541   -7704.1731    9.4734182   0.20141829 
    8700   -285.01473     18.57253    -266.4422     1342.835    10501.341    9.5939771   0.22329492 
    8800   -288.57792    17.453862   -271.12406    1261.9528   -2065.3186    9.6205997   0.16512607 
    8900   -287.91553    16.667249   -271.24828     1205.079   -1985.7998    9.5824383   0.16586472 
    9000   -285.67824    17.614832   -268.06341    1273.5913   -753.99087    9.5069258   0.20352399 
    9100   -283.24371    15.744073   -267.49964    1138.3313    4889.0534    9.4939634   0.23824929 
    9200   -287.77989    15.127607   -272.65228    1093.7595    8374.7766    9.7101336   0.17450222 
    9300   -288.13515    17.448637   -270.68651    1261.5751   -3944.2066    9.5875371   0.16842718 
    9400   -285.70664    17.571683   -268.13496    1270.4716    5147.4585    9.5725036   0.20844594 
    9500   -286.00348    18.928697   -267.07478    1368.5866    -3401.597    9.4710651   0.19418304 
    9600   -283.92998    18.386154   -265.54383    1329.3596     -10024.8    9.3084514   0.22642343 
    9700   -287.92815    16.424981   -271.50317    1187.5624   -1193.9093    9.5985395    0.1594958 
    9800   -286.19158    15.546074    -270.6455    1124.0156    2362.9674    9.5682083   0.18724466 
    9900   -287.11093    17.470188   -269.64074    1263.1332    1763.2301    9.5867261   0.16432534 
   10000   -286.62976    17.573832   -269.05593    1270.6269   -10356.447     9.420299   0.19125008 
   10100   -282.13567    18.060123   -264.07554    1305.7868   -3584.3794    9.2986461   0.23287612 
   10200   -285.65768    17.303846   -268.35383    1251.1064    4254.9321    9.5747948   0.21703196 
   10300   -286.14543    18.146819   -267.99861    1312.0552    17008.433    9.7475087   0.17636393 
   10400   -286.51182    16.302066   -270.20975    1178.6754    7766.9749    9.6474268    0.1929442 
   10500   -284.21489    16.888281   -267.32661      1221.06    2068.6711    9.4747751   0.23255536 
   10600   -282.05639    17.249407   -264.80699    1247.1703    2727.6248    9.4143296   0.24452683 
   10700    -285.4894    17.010593   -268.47881    1229.9035    221.65056    9.5378073   0.21875087 
   10800   -286.53329    16.494287     -270.039    1192.5735    9943.0527    9.6644213   0.17770938 
   10900   -289.32295    18.917313   -270.40564    1367.7636   -9807.2242    9.5445072   0.15645757 
   11000   -283.72064    18.781707   -264.93893     1357.959   -2598.5024    9.4154781   0.22858449 
   11100   -285.88768    18.025643   -267.86204    1303.2939     6575.243    9.5893211   0.19046939 
   11200   -288.71892    17.432994   -271.28592    1260.4441     4876.671      9.69508   0.14217067 
   11300   -287.03842    18.436768   -268.60165    1333.0191   -1629.4941    9.5396048   0.16804006 
   11400   -288.05076    21.129145   -266.92162    1527.6839   -1810.8617    9.5841957   0.15199178 
   11500    -288.4922    18.130203     -270.362    1310.8538       4659.2    9.6803394   0.15558464 
   11600   -287.16476    18.120399   -269.04436    1310.1449   -7560.0064    9.4827252   0.18075061 
   11700   -284.60682    17.894448   -266.71238    1293.8081   -3126.8994    9.4328756   0.23855631 
   11800   -287.68316    16.473953   -271.20921    1191.1033    6357.7953      9.69559   0.17298024 
   11900   -287.98056    16.781195   -271.19936    1213.3175    -3109.252    9.5831224    0.1656389 
   12000   -285.64978    18.381139   -267.26864     1328.997   -7099.3542    9.4167035   0.20018007 
   12100   -285.96028    15.395329   -270.56495    1113.1163   -197.19564    9.5194406   0.16638668 
   12200   -287.78779    16.702139   -271.08565    1207.6016     3655.024    9.6467706    0.1621587 
   12300   -284.72387    18.243993   -266.47988    1319.0811    11805.132    9.6149497   0.20292367 
   12400   -286.29663    19.320202   -266.97642    1396.8933    2174.5458    9.5700137   0.20486495 
   12500   -288.31392    16.410227    -271.9037    1186.4957    -4676.019     9.591525   0.17490322 
   12600   -285.69007    16.103076   -269.58699     1164.288    -15295.66    9.3611544   0.21541105 
   12700   -284.65255     17.56364   -267.08891      1269.89   -2736.6665    9.4544274    0.2387083 
   12800   -287.53332    17.193385   -270.33994    1243.1197    21179.917    9.8114507   0.14998586 
   12900   -289.09178    17.606012   -271.48577    1272.9536   -698.28805    9.6531488   0.14768685 
   13000   -284.12815    16.601627   -267.52652    1200.3343    986.51217    9.4640978   0.25777786 
   13100   -284.42664    17.166183   -267.26046     1241.153   -8564.6946    9.3817521   0.24525743 
   13200   -289.79616    17.901212   -271.89495    1294.2972   -7829.1051    9.6123111   0.16250893 
   13300   -285.28976    15.947755   -269.34201     1153.058     17011.82    9.7100967   0.19509802 
   13400   -286.48553    19.497335    -266.9882    1409.7005   -2652.4931    9.4941365   0.20969162 
   13500   -287.75409    17.614824   -270.13926    1273.5908   -12565.106    9.4657819   0.18581287 
   13600   -287.50127    14.382901   -273.11837    1039.9156    10689.302    9.7264465   0.18190103 
   13700   -286.59792    18.388891   -268.20902    1329.5575    12714.912    9.7028889   0.20698222 
   13800   -285.02031    16.734336   -268.28598    1209.9295   -9317.3524     9.431955   0.19304777 
   13900   -286.24427    16.260131   -269.98414    1175.6435   -15521.008    9.3859686   0.20710457 
   14000   -287.56561    15.280344   -272.28527    1104.8027    9781.4286    9.7175127    0.1571161 
   14100   -291.47754    16.432325   -275.04522    1188.0935    5748.2342    9.8285082   0.13332068 
   14200   -286.43478    15.607549   -270.82723    1128.4603    -337.3066    9.5710833   0.21849617 
   14300   -285.94492    16.290987   -269.65394    1177.8744   -1469.1975    9.5140801   0.21385909 
   14400   -284.67529    17.494824   -267.18047    1264.9145   -5677.8961    9.3959415   0.25470485 
   14500   -283.21281    16.524871   -266.68794    1194.7847   -4515.7141    9.3811688   0.27400719 
   14600   -288.36384    17.118672   -271.24516    1237.7179   -1897.7765    9.6028474   0.18924567 
   14700   -286.22168    16.299217   -269.92246    1178.4694    -8675.606    9.4566327   0.21680048 
   14800   -283.23592    16.763623   -266.47229     1212.047   -5421.7765    9.3344607   0.27657526 
   14900   -285.81643    18.582961   -267.23347    1343.5892   -368.98671    9.5124494   0.19324525 
   15000   -286.47372    15.523408   -270.95031    1122.3768    6261.9413    9.6251174   0.18223685 
   15100   -287.34001    18.285413    -269.0546    1322.0758    1519.2285    9.5991466   0.16331703 
   15200   -285.98037    16.947063   -269.03331    1225.3102    2193.7056    9.5547495   0.18715545 
   15300   -289.27062    15.442977   -273.82764    1116.5614   -7410.2298    9.5728548   0.13388928 
   15400    -286.9315    16.275529   -270.65597    1176.7568   -2055.3513    9.5325632   0.20299412 
   15500   -287.71522    20.160752   -267.55447     1457.667   -4975.0737    9.5271144   0.18050934 
   15600   -287.60854    17.864641   -269.74389     1291.653    2859.8547    9.6020082   0.16975532 
   15700    -289.0298    16.165177   -272.86462     1168.778   -12683.595    9.5200954   0.14612341 
   15800   -285.80896    17.906645   -267.90232    1294.6901   -658.02346    9.5204746   0.18796937 
   15900   -286.52758    18.304993   -268.22259    1323.4915     21148.24     9.784481   0.17875316 
   16000   -290.02295    20.419165   -269.60378    1476.3508   -3487.7463    9.6470012   0.15020361 
   16100   -284.92961    18.789864   -266.13974    1358.5487   -5336.3952    9.4365574   0.21670689 
   16200   -282.20928    18.582754   -263.62653    1343.5742   -3241.1945    9.2994948   0.25449384 
   16300   -285.51645    17.482709   -268.03374    1264.0385   -14344.236    9.3485549   0.21554193 
   16400     -287.853    18.472085   -269.38092    1335.5726    399.87464    9.6015445   0.16565187 
   16500   -287.51269    18.728073   -268.78461    1354.0811    9517.3132    9.6812884   0.15660763 
   16600   -282.29269    18.650771   -263.64192     1348.492    3177.1908    9.3913908   0.23474099 
   16700   -285.54479    20.179557   -265.36524    1459.0266   -7987.6101    9.4091749   0.20155643 
   16800   -283.82781    14.869054   -268.95875    1075.0655     10001.08    9.5314438   0.21693213 
   16900   -283.97113    14.085309   -269.88582     1018.399   -5036.9712    9.4094338   0.22957866 
   17000    -285.9642    16.824744   -269.13946    1216.4662   -6373.7285    9.4504141   0.21523714 
   17100   -283.46227    19.512254   -263.95001    1410.7791   -1424.9253    9.3726188   0.23671764 
   17200   -285.76099    16.492848   -269.26815    1192.4694    1627.8951    9.5320541   0.19231707 
   17300   -286.80942    16.574623    -270.2348    1198.3819   -4915.4726    9.5255066   0.17306528 
   17400   -286.07797    17.462684   -268.61529    1262.5907   -10307.999      9.41216   0.19905049 
   17500   -284.44972    18.986201   -265.46352    1372.7444    5659.7296    9.5046844   0.20236494 
   17600   -287.72612    18.060432   -269.66569    1305.8092    353.08075    9.6143415   0.17799314 
   17700   -287.23756    18.309411   -268.92814    1323.8109    3806.0611    9.6161785    0.1594083 
   17800   -286.60476    21.459656   -265.14511    1551.5806    5032.8258    9.5909201   0.17729023 
   17900   -287.95362    20.607842   -267.34578    1489.9926    11138.653    9.7223864   0.14166922 
   18000   -286.49833    16.352827    -270.1455    1182.3456   -8845.8028    9.4493581   0.21289133 
   18100   -286.03737    16.513588   -269.52378    1193.9689   -4344.4403    9.5013793   0.19432615 
   18200   -287.47743    16.989572   -270.48786    1228.3836    -8275.862       9.5043   0.17613651 
   18300   -289.66888    15.840346   -273.82853     1145.292    5126.8163    9.7210673   0.14260848 
   18400   -288.17644    13.811882   -274.36456    998.62962    1575.4128     9.664298   0.16546915 
   18500   -287.97213     17.60267   -270.36946     1272.712   -16905.132    9.4530738   0.19909634 
   18600   -286.31497    16.896172    -269.4188    1221.6306    5512.5426    9.5912551   0.18451173 
   18700   -286.77241    18.378242   -268.39417    1328.7876    10908.286    9.6811598   0.16864375 
   18800   -288.92702    15.499287   -273.42773    1120.6327    10937.963    9.7793344   0.13609119 
   18900   -285.49603     15.32713    -270.1689    1108.1854   -17868.173    9.3368243   0.21600006 
   19000   -285.00722    16.955379   -268.05184    1225.9114    -10074.39    9.3919714   0.21670932 
   19100   -287.03077     17.10031   -269.93046    1236.3903   -952.38851    9.5688013   0.17219505 
   19200   -288.74472    15.615232   -273.12949    1129.0158    12999.107    9.7913936   0.15935898 
   19300   -284.96433    16.513328     -268.451    1193.9501   -1785.7804    9.4668402   0.19689541 
   19400    -286.4714    17.303941   -269.16746    1251.1132   -9387.5836    9.4311153   0.18591298 
   19500   -287.39699    15.551362   -271.84563    1124.3979    4711.7892    9.6551446   0.17506288 
   19600   -285.57842    16.806056   -268.77236     1215.115     11721.68     9.656488   0.16959565 
   19700   -287.58264    20.034393   -267.54825    1448.5309    7003.3312    9.6593633   0.16631686 
   19800   -286.62899    16.326053   -270.30294    1180.4097   -8392.8524    9.4726353   0.16690195 
   19900   -286.49159    17.035242   -269.45635    1231.6857   -6862.6633    9.4705619   0.19937945 
   20000   -283.80173    18.447034    -265.3547    1333.7614    3066.4968    9.5098165   0.22123229 
   20100   -286.38607    16.485996   -269.90008     1191.974    10357.685     9.668367   0.15595687 
   20200   -287.51685    16.713034   -270.80381    1208.3893   -11173.387    9.4562172   0.18544862 
   20300   -286.06371    19.125829   -266.93788    1382.8398    -12272.73    9.3912847   0.20377424 
   20400   -285.07247    14.923249   -270.14922    1078.9839    18281.443    9.7032672   0.20388978 
   20500   -287.02569    15.785466   -271.24023    1141.3241   -3499.7579    9.5355258   0.18500369 
   20600   -282.76801    16.457458   -266.31055    1189.9106   -5446.9762    9.3447719   0.22810327 
   20700   -286.74771    17.964292   -268.78342    1298.8581    13610.026    9.7032915   0.17643485 
   20800   -289.13832     17.95634   -271.18198    1298.2831    6336.2967    9.7124907    0.1465048 
   20900   -284.09319     16.38325   -267.70994    1184.5452   -1339.0775    9.4465744   0.22011748 
   21000   -282.59729     16.88874   -265.70855    1221.0933   -11255.202    9.2456789   0.29296241 
   21100   -286.45477    15.602162   -270.85261    1128.0709   -7130.6121    9.4836465   0.20591411 
   21200   -287.02008    16.561052   -270.45903    1197.4007   -1006.5857    9.5847799   0.18871402 
   21300   -283.83117    17.249584   -266.58158    1247.1831    3713.5444    9.4673288   0.25123487 
   21400   -284.08932    17.937593   -266.15173    1296.9277   -10497.432    9.3218251   0.24934781 
   21500   -286.86978    16.110548   -270.75923    1164.8283   -5978.8134    9.4965104   0.19934164 
   21600   -286.41962    16.367818    -270.0518    1183.4295    -3968.642    9.5079792   0.19143569 
   21700   -284.47251    19.256712    -265.2158    1392.3029   -1292.1969    9.4244544   0.25078137 
   21800   -286.65016    19.153413   -267.49675    1384.8342    10551.508    9.6600455   0.19559235 
   21900   -288.11566    16.981054    -271.1346    1227.7678   -3986.7873    9.5792228   0.16359065 
   22000   -284.81125    15.521808   -269.28945    1122.2611   -5642.4449    9.4201156   0.18642609 
   22100   -283.63533    18.023336   -265.61199    1303.1271    1103.4695    9.4602659   0.21846011 
   22200   -287.66648    17.502806   -270.16368    1265.4916   -1670.6389    9.5711047   0.18163637 
   22300   -286.75389    16.324973   -270.42892    1180.3317    3870.7376    9.6053086   0.16938408 
   22400   -284.10903    18.179489   -265.92954    1314.4172    6601.8985    9.4983268   0.23432576 
   22500   -283.59551    17.368843   -266.22666    1255.8058     6739.916    9.5070852   0.22015096 
   22600   -286.61445    16.267795   -270.34665    1176.1976   -4495.3492    9.5185074   0.17444811 
   22700    -285.7554    16.550343   -269.20506    1196.6264   -8114.7295    9.4569438   0.21146047 
   22800   -285.52192    18.458628   -267.06329    1334.5997    11314.299    9.6197411   0.19166321 
   22900   -287.81337     16.19894   -271.61443    1171.2192    22999.542    9.8690348   0.13728512 
   23000   -288.00134    18.156881   -269.84446    1312.7826   -6592.3354    9.5237989   0.15793076 
   23100   -283.32586    16.367737   -266.95812    1183.4236   -6877.8754    9.3371641   0.24144301 
   23200   -287.88409    17.351211   -270.53288    1254.5309   -4779.2509    9.5423089   0.16984448 
   23300   -287.94338    16.852022   -271.09135    1218.4385    1866.7076    9.6282599   0.16487507 
   23400   -285.60954    17.781536   -267.82801    1285.6444    9487.9331    9.6164225   0.18505648 
   23500   -284.89399    16.074673   -268.81931    1162.2344    458.95925    9.4839699   0.20631467 
   23600   -287.72362    14.471774   -273.25184    1046.3413   -8701.7043     9.526592   0.16235532 
   23700   -286.92437    17.482101   -269.44227    1263.9946    7482.7883    9.6326887   0.16090421 
   23800   -286.06394    17.470774   -268.59317    1263.1756   -4774.4288    9.4880925    0.1903605 
   23900   -288.40967    17.016674   -271.39299    1230.3432   -14480.612    9.4677891   0.15518898 
   24000   -290.01768     16.74966   -273.26802    1211.0374   -10859.885    9.5848829   0.14875865 
   24100   -286.50617    17.265655   -269.24051     1248.345    4789.6362    9.6093855   0.17058908 
   24200   -286.12473    18.006228    -268.1185    1301.8901    2958.1786    9.5789694   0.20296819 
   24300    -286.1851    17.332161   -268.85294    1253.1536    958.54594    9.5630432   0.19478836 
   24400   -288.49191    15.827214   -272.66469    1144.3426   -8141.8935    9.5468887   0.17865405 
   24500   -286.48016    17.029434   -269.45072    1231.2657   -3327.6491    9.5258263   0.18251647 
   24600   -285.72551    16.662371   -269.06314    1204.7263   -68.327942    9.5171685   0.20633448 
   24700   -287.82475    14.454982   -273.36977    1045.1272   -9601.6761    9.5208508   0.16424876 
   24800   -288.66453    16.853825   -271.81071    1218.5689   -667.73244    9.6102937   0.15699266 
   24900   -285.80003    16.817839   -268.98219    1215.9669   -253.63522    9.5354769   0.18870474 
   25000    -286.4438    17.121573   -269.32222    1237.9276   -11245.749    9.4255314   0.17987432 
   25100    -289.5969    16.533719   -273.06318    1195.4245    14204.739    9.8310316   0.14397621 
   25200   -289.55868     17.12671   -272.43197     1238.299    8184.5427    9.7820705   0.14045668 
   25300   -287.20892    17.746578   -269.46234    1283.1168   -7623.2153    9.5025145   0.18129535 
   25400   -286.01861    17.139973   -268.87864    1239.2579   -1638.3195    9.5239251   0.18513833 
   25500   -286.61338    18.052135   -268.56125    1305.2093    8786.0542    9.6500144   0.18259034 
   25600   -282.64783    19.114332    -263.5335    1382.0085   -2408.4111    9.3579708   0.23266989 
   25700   -285.25381    17.153248   -268.10056    1240.2178   -9299.3016    9.3928704   0.21814929 
   25800   -287.56473    17.590465   -269.97427    1271.8296   -5483.3628    9.5353575   0.21019626 
   25900   -286.83793    20.529893   -266.30804    1484.3567    10953.388    9.6701799   0.18110031 
   26000   -284.29503    16.571434    -267.7236    1198.1513    12059.034    9.5827297   0.23606276 
   26100   -286.59748    15.588004   -271.00947    1127.0472   -18748.229    9.3639596   0.22322637 
   26200    -285.5281    15.725644   -269.80245    1136.9988   -6892.5659    9.4508606   0.23300913 
   26300   -283.81792     17.32816   -266.48976    1252.8643    18161.252    9.6385404   0.20940631 
   26400   -287.61784    17.829412   -269.78843    1289.1059    7520.1562    9.6626456   0.16961964 
   26500   -286.68397    15.239313   -271.44466     1101.836   -2565.8315    9.5519914   0.19718714 
   26600   -283.60994    16.865572   -266.74436    1219.4182   -6567.0507    9.3674724   0.25783717 
   26700   -286.50893     19.54132   -266.96761    1412.8807   -7077.6039    9.4614104   0.19984285 
   26800   -288.86948    17.498409   -271.37107    1265.1737    6354.4249    9.7289568   0.13271163 
   26900   -286.31682    16.826607   -269.49021    1216.6009    6264.8767    9.6101864     0.178379 
   27000   -285.55467    19.253397   -266.30127    1392.0632   -10647.906    9.4201944    0.2036984 
   27100   -287.27794    16.633641    -270.6443     1202.649   -397.52938    9.5873942   0.18257198 
   27200   -289.07624    19.100881   -269.97536    1381.0359   -2063.4879    9.6486225   0.14342057 
   27300     -285.217    20.273406    -264.9436    1465.8121   -2572.6966      9.44107   0.22187983 
   27400   -285.57547    16.750498   -268.82497     1211.098   -4345.2987    9.4657166   0.22712156 
   27500   -288.31215    17.382063   -270.93008    1256.7616   -12459.252    9.4850989   0.16918227 
   27600   -285.66439    17.753526   -267.91086    1283.6192    5676.9119    9.5858577   0.16489046 
   27700   -285.69146    20.726643   -264.96482    1498.5821     7870.691    9.5795718   0.20877939 
   27800   -287.31463    17.848929    -269.4657    1290.5171    6739.7312    9.6676671   0.15540835 
   27900   -286.62386    16.254114   -270.36975    1175.2084   -272.97603    9.5622721   0.16675493 
   28000   -282.86449    16.446039   -266.41845     1189.085   -5554.7992    9.3223654   0.23584536 
   28100   -284.81466     18.33125   -266.48341    1325.3899    8031.0764    9.5366733   0.22537662 
   28200   -287.38131    16.583715    -270.7976    1199.0393    4436.7294    9.6330656   0.18364698 
   28300   -285.75254    16.402227   -269.35031    1185.9173   -3870.1166    9.4727508   0.19200738 
   28400   -283.05105    17.127917   -265.92313    1238.3863    -3449.038    9.3646101   0.24424948 
   28500   -286.09412    19.026444   -267.06767     1375.654   -3687.5619    9.4960103   0.20969347 
   28600   -287.95692    16.599229   -271.35769     1200.161   -1908.7635    9.5934815    0.1608601 
   28700   -286.57364    16.279642   -270.29399    1177.0542   -426.64492    9.5477102    0.1742684 
   28800   -286.15822    17.971911    -268.1863    1299.4089   -373.93728    9.5261791    0.1817602 
   28900   -286.36894    19.298761   -267.07018    1395.3431   -2788.3633    9.5139045    0.1848677 
   29000   -288.23559    15.627954   -272.60763    1129.9356    5950.1994    9.7056368   0.16097197 
   29100    -286.4904     15.94845   -270.54195    1153.1082   -20431.507    9.3290283   0.19729527 
   29200   -285.97456    16.973964    -269.0006    1227.2551   -5677.2646    9.4603211   0.17373155 
   29300   -286.85075    18.552032   -268.29872     1341.353    13201.884    9.7182627   0.19774089 
   29400   -281.88408      18.9092   -262.97488     1367.177    3665.2824    9.3860922   0.32727067 
   29500   -284.68993    17.646072   -267.04386      1275.85   -6254.3094    9.3982118   0.21588805 
   29600    -286.5516     16.68214   -269.86946    1206.1556    4695.9402    9.5920694   0.21031204 
   29700   -284.77041     16.71483   -268.05558    1208.5192    17587.898    9.6811178   0.17901176 
   29800   -285.74416    17.322961    -268.4212    1252.4884    1892.4274    9.5423718   0.21271265 
   29900   -290.66131    18.186594   -272.47472    1314.9309   -1365.0262    9.6987539   0.12565925 
   30000   -286.64785    17.362001   -269.28585    1255.3111   -5150.6816    9.5117355   0.16708172 
   30100   -285.12487    17.137605   -267.98726    1239.0867   -1027.1526    9.4876022    0.1796917 
   30200   -287.01574      14.8168   -272.19894    1071.2874   -776.09941    9.5809299   0.16593979 
   30300   -286.60806    17.347041   -269.26102    1254.2294    7465.8965    9.6354621   0.16120751 
   30400   -284.70305    17.967843    -266.7352    1299.1148   -2370.2693    9.4759563   0.20787628 
   30500   -286.72965    15.812074   -270.91758    1143.2479    -2998.725    9.5194063   0.20547954 
   30600     -285.678    16.618242   -269.05976    1201.5357    9038.2367    9.6246911   0.20022575 
   30700   -283.92887    18.332213   -265.59666    1325.4596    1535.2329    9.4667413   0.20338375 
   30800   -286.99998    16.369815   -270.63016    1183.5738    5021.7176    9.6420868   0.17560409 
   30900   -287.95512    17.505618    -270.4495    1265.6949   -4379.3137    9.5612709   0.17113796 
   31000    -286.0695     20.17292   -265.89658    1458.5468    6551.2758    9.5789835   0.22090497 
   31100   -285.13268    17.233678   -267.89901     1246.033   -1639.3441    9.4863127   0.22349118 
   31200   -287.68243    17.074948   -270.60749    1234.5565     -11896.2    9.4660914   0.17933827 
   31300   -287.25351    17.761865   -269.49165    1284.2221   -5216.4764    9.5290926   0.18755238 
   31400   -283.60233    17.969872   -265.63246    1299.2615   -2097.9025    9.4143463   0.26954327 
   31500    -285.1175    16.118983   -268.99852    1165.4381    11850.533    9.6322722   0.18378854 
   31600   -287.86673    16.981805   -270.88492    1227.8221    5304.2892    9.6523801   0.14604483 
   31700   -284.82686    16.488513   -268.33835    1192.1559   -2008.8382    9.4284657   0.18604128 
   31800   -284.03959    17.844865   -266.19472    1290.2232   -5311.1759    9.3865873   0.21670802 
   31900   -287.17445    16.626233   -270.54822    1202.1134    10939.963    9.6979125   0.17084423 
   32000    -286.0633    16.514573   -269.54873    1194.0402    1434.0785    9.5524784   0.22576731 
   32100   -282.90453    16.301254   -266.60328    1178.6167   -10328.532    9.2880896   0.24409283 
   32200   -286.64204    15.553597   -271.08845    1124.5595   -5529.3103    9.5051846   0.20897288 
   32300   -286.15854    15.767906   -270.39063    1140.0545    5964.0448     9.599852   0.19618539 
   32400   -283.84174    17.932468   -265.90928    1296.5571   -1382.1553    9.4120459   0.25313593 
   32500   -284.09777    16.290254   -267.80752    1177.8214    7681.3592    9.5511359   0.27771487 
   32600   -289.61836    17.610641   -272.00772    1273.2883    9519.2488    9.7969122   0.13312117 
   32700    -286.2443    16.586284   -269.65802    1199.2251    12331.169    9.6673359   0.19638364 
   32800   -284.14762    16.662076   -267.48555    1204.7049   -13078.158    9.3210329   0.21765595 
   32900    -286.3356    14.902183   -271.43341    1077.4608   -8756.8551    9.4420979   0.17474252 
   33000   -287.98225    16.743378   -271.23887    1210.5832    7035.4348    9.6931725   0.18109792 
   33100   -285.90815    19.445234   -266.46291    1405.9335     8434.862    9.6262992    0.1892073 
   33200   -287.25604    18.080275   -269.17576    1307.2439     5520.311    9.6430553   0.19412496 
   33300   -287.22895    16.809757   -270.41919    1215.3826   -9979.3215    9.4659841   0.19700155 
   33400   -283.16947    17.045327   -266.12415    1232.4148   -3706.6089     9.381865   0.21776394 
   33500   -284.34714    17.816085   -266.53105    1288.1424    2200.5865    9.4564648   0.24666787 
   33600    -287.8665    18.042662   -269.82384    1304.5244    5487.8467    9.6683699   0.19044531 
   33700   -285.15351    17.170492   -267.98301    1241.4646    9756.0884    9.6192056   0.16312584 
   33800    -281.7836     18.35017   -263.43343    1326.7579    -2702.153    9.3310099   0.25509014 
   33900   -284.01819    16.546171   -267.47202    1196.3248    8030.0377    9.5206121    0.2371055 
   34000   -285.80871    16.320003   -269.48871    1179.9723    6039.8697    9.6128049    0.2102768 
   34100    -285.4335    15.747542   -269.68596    1138.5821    14546.377    9.6614607   0.21201666 
   34200   -281.56032    16.755566   -264.80475    1211.4645   -8714.3581    9.2683595    0.2522985 
   34300   -285.27961    17.429635   -267.84997    1260.2011   -7114.9537    9.4108228   0.19643328 
   34400   -287.85995    17.865783   -269.99416    1291.7356    1590.5644    9.6004647   0.17050025 
   34500   -288.11412     20.51574   -267.59838    1483.3334    7501.1941    9.6779688   0.14563532 
   34600   -284.81882    19.366675   -265.45214    1400.2534     6738.563    9.5305065   0.21064969 
   34700   -288.64904    17.362174   -271.28686    1255.3236    4617.7501    9.6833947   0.15209602 
   34800   -286.23414    16.108046   -270.12609    1164.6474   -11342.142    9.3955254   0.17619841 
   34900   -284.31878    15.656585    -268.6622    1132.0057   -10617.503    9.3448633   0.18655231 
   35000   -287.93323    16.927987   -271.00524    1223.9309    5640.7649    9.6797659   0.15445316 
   35100   -289.81135    16.400025   -273.41132    1185.7581    8796.9059    9.7875708   0.14270022 
   35200   -284.88345    15.984832   -268.89862    1155.7387   -4880.0945    9.4352138    0.2352194 
   35300   -285.75733    17.743047   -268.01428    1282.8615   -1589.8173    9.4682446   0.21610213 
   35400    -287.1326    16.120109   -271.01249    1165.5195   -5858.3742    9.5263831    0.1697723 
   35500   -288.74739     16.05263   -272.69476    1160.6406   -147.40178    9.6405751   0.16438028 
   35600   -284.77029    16.115948   -268.65434    1165.2187    1714.1951    9.4740381   0.21009621 
   35700   -284.42839    15.012602   -269.41579    1085.4443   -2911.1027     9.430518    0.2378192 
   35800   -288.75471    15.757765   -272.99694    1139.3212   -8815.6821    9.5666399   0.18263903 
   35900   -288.80413    17.797602   -271.00653     1286.806    15632.697    9.7938962   0.14060358 
   36000   -287.61286    19.195264    -268.4176    1387.8601   -1804.2938    9.5575092    0.1513744 
   36100   -285.31682    15.402778   -269.91405    1113.6549   -9279.1842    9.4259436   0.19492253 
   36200   -287.93385    15.439584   -272.49426    1116.3161   -9281.4239    9.4985082   0.16874743 
   36300    -285.3157    17.549862   -267.76584    1268.8938    2272.0083    9.5353603   0.18617734 
   36400   -285.31029    16.929211   -268.38108    1224.0194    -476.7792    9.5003564   0.18700879 
   36500   -287.62053    16.407957   -271.21258    1186.3316    1588.4221    9.6089965   0.17718436 
   36600   -285.33738    17.062404   -268.27498    1233.6495    4995.8775    9.5612211   0.19675848 
   36700   -284.49426    18.140163    -266.3541    1311.5739   -8464.0482    9.3776465   0.21815147 
   36800   -287.48398    17.105759   -270.37823    1236.7842    2740.8053    9.6515964   0.18722541 
   36900   -286.15307    17.618747   -268.53433    1273.8744    19657.636    9.7643774   0.18942118 
   37000    -283.9676    19.104479   -264.86312    1381.2961   -8509.8127    9.3332318   0.28045242 
   37100   -284.67984    15.723416   -268.95642    1136.8377   -14397.171    9.3139332   0.19425212 
   37200   -285.48278     15.91955   -269.56323    1151.0186    -6290.246    9.4589907   0.19776919 
   37300   -284.93577    16.661807   -268.27397    1204.6855    3270.5318    9.5241668   0.20094005 
   37400   -284.01219     20.04745   -263.96474     1449.475    2341.7712    9.4408745   0.21682975 
   37500   -285.18606    20.059428   -265.12663     1450.341   -8324.1949     9.397889   0.25506207 
   37600   -285.60286    17.157129   -268.44573    1240.4984    2479.7947     9.537494   0.21346145 
   37700   -287.34728    17.001117   -270.34617    1229.2183   -10679.089      9.47936   0.20969774 
   37800   -284.86282    19.097297   -265.76552    1380.7768    2390.1165    9.4589426   0.21801487 
   37900   -287.48021    21.337682   -266.14253    1542.7616   -5974.1575    9.4862808   0.17462881 
   38000   -286.18149    16.879137   -269.30235     1220.399    13222.771    9.6845119    0.1845594 
   38100    -287.1619    17.803736   -269.35816    1287.2495   -1353.6622    9.5523828   0.16838852 
   38200   -283.61812    16.558723   -267.05939    1197.2323   -12807.897    9.3198219   0.24454994 
   38300   -283.33224    19.363484   -263.96875    1400.0228    4761.9889    9.4292399   0.28388317 
   38400   -286.09664    18.882856   -267.21378    1365.2723    8125.8333    9.6091781   0.20257208 
   38500   -287.54833    17.466375   -270.08195    1262.8575      2553.26    9.6119653   0.16613597 
   38600   -287.56768    15.230061   -272.33762    1101.1671   -4945.5578    9.5535786   0.16768646 
   38700   -283.08662    15.579304   -267.50731    1126.4182   -624.91993    9.4104194   0.23542983 
   38800   -285.36018    18.047827   -267.31235    1304.8978   -5427.3729    9.4471486    0.2292823 
   38900   -287.22589    17.704209   -269.52168    1280.0535    4392.6845    9.6407167   0.14232646 
   39000   -288.66141    16.367374   -272.29403    1183.3974    1064.6655    9.6654702   0.13346656 
   39100   -286.73321     19.21868   -267.51454     1389.553   -9363.4672      9.44122   0.18981082 
   39200   -284.71806    18.275205   -266.44286    1321.3377    4808.2985    9.5586406   0.21079127 
   39300   -288.65288    18.385608   -270.26727    1329.3201    3012.7932    9.6596301   0.15022751 
   39400   -286.69167    16.305486   -270.38618    1178.9227    9862.3726    9.6985064   0.16359701 
   39500   -284.31315    18.950529   -265.36262    1370.1652   -11918.667    9.3184793    0.2215021 
   39600   -285.85348     17.56498    -268.2885    1269.9869   -5894.0125    9.4533595   0.21331097 
   39700   -288.22287    17.998551   -270.22432    1301.3351    8092.4606    9.7335832   0.16836437 
   39800   -287.12597    19.929535   -267.19643    1440.9495    8531.4212    9.6451827   0.17392177 
   39900   -283.17356    17.926272   -265.24728    1296.1091    4318.5669    9.4627521   0.28953312 
   40000   -286.06849    15.815037   -270.25345    1143.4621   -894.45377    9.5364221     0.195979 
   40100   -285.80995    14.900568   -270.90938     1077.344    1425.5617    9.5422944    0.1994181 
   40200   -286.53813     17.15398   -269.38415    1240.2707   -4496.5569    9.5012048   0.19353441 
   40300   -285.07214    18.448301   -266.62384     1333.853    6832.4332     9.567771   0.20877005 
   40400   -283.60304    15.933268   -267.66977    1152.0105   -66.170869    9.4374688   0.24108199 
   40500   -287.13931    16.287274   -270.85204    1177.6059   -2718.8992    9.5521052   0.15770997 
   40600   -286.07223    16.548288   -269.52394    1196.4778    628.62977      9.53508   0.19356173 
   40700   -283.38878     17.08593   -266.30285    1235.3505    18155.725    9.6244814   0.23322025 
   40800   -285.86563    19.239917   -266.62571    1391.0886    9925.8511    9.6129457   0.19432361 
   40900    -287.4286    16.939969   -270.48863    1224.7972    27936.922    9.9109897   0.15466259 
   41000   -284.87207    16.079235   -268.79284    1162.5642   -3265.0408    9.4519034   0.22663058 
   41100   -287.23859    19.535968   -267.70262    1412.4937    -16088.97    9.3745341   0.19129529 
   41200    -289.0428    17.251725   -271.79107    1247.3379    2792.4805    9.6695902   0.14340547 
   41300   -287.98999    15.687512   -272.30248    1134.2418    3005.6247    9.6742352   0.16149593 
   41400   -287.19048    19.140051   -268.05043    1383.8681   -3480.0988    9.5192769   0.18997068 
   41500   -286.13002    16.881499   -269.24852    1220.5697   -245.23186    9.5205628   0.20011699 
   41600   -289.75206     16.88002   -272.87204    1220.4627   -4611.7894    9.6366615   0.14611337 
   41700   -290.29241    18.103735   -272.18867    1308.9401    5988.0136    9.7569164    0.1274996 
   41800   -285.96795    17.122392   -268.84556    1237.9868    7664.0056    9.6160231    0.2187954 
   41900   -285.38876    16.383887   -269.00487    1184.5913   -7432.3922    9.4209249   0.22698856 
   42000   -287.45077    15.250615   -272.20016    1102.6532   -11806.306    9.4993051   0.19315197 
   42100     -289.956     15.78228   -274.17372    1141.0938   -4344.9154    9.6441301   0.16132112 
   42200   -286.62768    17.555197   -269.07248    1269.2795    9081.1001    9.6410338   0.17721752 
   42300   -286.73073    17.935939   -268.79479     1296.808    641.99158    9.5713182   0.18491836 
   42400   -287.06743    16.108894   -270.95853    1164.7087   -3850.3685    9.5560083   0.18508085 
   42500   -288.07614    14.234322   -273.84182     1029.173    1342.0975    9.6478676   0.18002095 
   42600   -285.61403    16.537242   -269.07679    1195.6792    6789.2259     9.606537    0.1641779 
   42700   -289.02588    20.005732   -269.02015    1446.4587    3790.4992    9.6854586   0.15603524 
   42800   -287.72638    15.298788    -272.4276    1106.1362    8372.1979    9.7034899   0.16250229 
   42900   -288.84225     16.15984   -272.68241    1168.3922    -8354.594    9.5558331   0.18228007 
   43000   -288.95735    20.046407   -268.91094    1449.3996    -22778.15    9.3766414   0.21780004 
   43100   -284.24126    15.202296   -269.03896    1099.1596    1766.3701    9.4511378   0.22946654 
   43200   -287.62718    17.373602   -270.25358    1256.1499   -18187.405    9.3855015   0.19432148 
   43300   -289.72973    15.994463   -273.73527    1156.4351    7949.3284    9.7839961   0.13214552 
   43400   -286.61314    17.857889   -268.75525    1291.1649    2802.9971    9.5634369   0.18184129 
   43500   -284.65888    15.555465   -269.10342    1124.6945   -8272.3422     9.401576   0.19745296 
   43600   -287.22384    16.089554   -271.13429    1163.3103    -652.9776    9.5444998   0.18335162 
   43700   -288.06913    17.633857   -270.43527    1274.9669    5929.7248    9.6750052   0.14897296 
   43800   -282.71603    17.282462   -265.43357    1249.5602    16858.432    9.5628393   0.25485892 
   43900   -287.95685    19.280528   -268.67632    1394.0248   -9256.8796    9.4956826   0.17723526 
   44000   -287.46593    17.270006   -270.19593    1248.6596   -3870.0006    9.5388109   0.18724701 
   44100   -286.60615    18.598774   -268.00737    1344.7325   -1293.9201    9.5207841   0.16930901 
   44200   -283.86608    20.417272   -263.44881    1476.2139   -142.17489    9.4280658   0.22642155 
   44300   -286.47545    18.048304   -268.42715    1304.9323    1239.6693    9.5824185   0.19963846 
   44400   -285.33929    14.970953   -270.36834     1082.433    5910.2309    9.5670615   0.20712481 
   44500   -283.69615    16.363752    -267.3324    1183.1354   -12775.366    9.2922403   0.23236762 
   44600   -285.73515    17.184539   -268.55061    1242.4802   -12995.605    9.3648343    0.2178415 
   44700   -288.17448    16.018394   -272.15608    1158.1653    11814.367    9.7407374   0.17078629 
   44800   -287.09673    17.536289   -269.56044    1267.9125    3252.2292    9.6057258    0.1951228 
   44900   -285.02832    18.127141   -266.90118    1310.6324   -1916.0864    9.4580227    0.2232843 
   45000   -285.52209    15.636087     -269.886    1130.5237    1813.6071     9.547147   0.18519456 
   45100   -288.43784    16.914628   -271.52322    1222.9651   -6244.5381    9.5534179   0.16248013 
   45200   -286.14017    17.553264   -268.58691    1269.1398   -6662.5814    9.4550291   0.19790195 
   45300   -284.54879    16.332375   -268.21642    1180.8668    13792.482    9.6117532    0.2172119 
   45400   -288.78164    16.156621   -272.62502    1168.1594    923.70568    9.6658394   0.15998983 
   45500   -285.78705    15.665284   -270.12176    1132.6347    -19420.94      9.31735   0.21299385 
   45600    -284.4622    16.568943   -267.89326    1197.9712   -6354.2202    9.3994774   0.26942477 
   45700   -287.63005    18.535461   -269.09459    1340.1548    7869.9174    9.6760552   0.19299572 
   45800   -288.40962    16.467499   -271.94212    1190.6366    10987.467    9.7653239   0.14756999 
   45900   -286.14156    18.610247   -267.53131     1345.562    1786.2488    9.5491674   0.18415505 
   46000   -285.46064    16.675831   -268.78481    1205.6995   -6204.4332    9.4216569    0.2067426 
   46100   -290.88593    18.660734    -272.2252    1349.2124   -10243.198    9.6191796   0.14786243 
   46200   -287.41382    18.440971   -268.97285     1333.323    21084.116    9.7987161   0.13867504 
   46300   -285.43533     17.82916   -267.60617    1289.0877    10041.889    9.6386263   0.19937757 
   46400   -288.31325    18.725247     -269.588    1353.8768   -1629.6168    9.5878476   0.19774352 
   46500   -288.48099    15.149009   -273.33198    1095.3069   -7481.3019    9.5694841   0.17655965 
   46600   -287.92221    17.531164   -270.39104     1267.542   -14059.816    9.4579828   0.19862501 
   46700   -287.26147    18.668933   -268.59254    1349.8051   -4413.4399    9.5112121   0.20014905 
   46800   -286.49299    17.219801   -269.27318    1245.0297    8360.4848     9.645111   0.19946521 
   46900   -285.96823    16.220027    -269.7482    1172.7439   -3798.7589    9.4856436   0.19093951 
   47000   -281.60815    17.215291   -264.39286    1244.7036   -14124.207    9.1797383   0.31328623 
   47100   -283.35566    15.349647   -268.00601    1109.8134    69.084748    9.4465213    0.2340811 
   47200   -287.97021    18.663947   -269.30626    1349.4446    8247.1588    9.6742129   0.16872263 
   47300   -287.12324    18.417821   -268.70542    1331.6492    4806.8499    9.6217252   0.16884064 
   47400   -280.81612    17.120385   -263.69574    1237.8417    4156.1923      9.34431   0.28066723 
   47500   -284.73424    17.012242     -267.722    1230.0227   -4372.5174    9.4318864   0.22749358 
   47600   -284.94914    15.250147   -269.69899    1102.6194    7392.3522     9.587454   0.20719989 
   47700   -286.85703    16.816544   -270.04048    1215.8734   -765.55076    9.5389432   0.18971074 
   47800    -285.2497    16.908441   -268.34126    1222.5177    -4679.582    9.4427231   0.24687238 
   47900   -281.16842    17.160351   -264.00806    1240.7313   -11709.056    9.2028939   0.30519785 
   48000   -286.47755    18.661496   -267.81606    1349.2675   -3141.0384    9.5096917   0.20987694 
   48100   -288.48595    19.159371   -269.32658    1385.2649     11605.64    9.7355308   0.13210746 
   48200   -287.42506    17.203593   -270.22147    1243.8578   -8751.4227    9.5039336   0.16451232 
   48300   -281.88188    16.793005   -265.08888    1214.1714   -11270.681     9.240386   0.25940761 
   48400   -285.77996    19.256172   -266.52379    1392.2638   -21.184881    9.5083767   0.19881901 
   48500   -286.82953    17.193874   -269.63566    1243.1551    22508.681    9.7991656   0.16847132 
   48600   -287.04485    17.613102   -269.43174    1273.4662    4629.1519     9.613116    0.1591723 
   48700   -285.12542    16.815803   -268.30962    1215.8197   -6067.4772    9.4449248   0.23710987 
   48800   -282.32428    17.417557   -264.90672    1259.3279   -157.81205    9.3484825      0.26343 
   48900   -284.60831     16.49832   -268.10999     1192.865   -11078.383    9.3419968   0.25234262 
   49000   -285.54689    15.776955   -269.76993    1140.7087   -2661.8479    9.4844839   0.21169725 
   49100   -287.88717    16.475388   -271.41178     1191.207   -4274.2315    9.5625045   0.17935144 
   49200   -290.05571    15.509634   -274.54608    1121.3808    4224.3535    9.7536023   0.13139547 
   49300   -286.27329     16.83885   -269.43444    1217.4861    3153.8261    9.5490513   0.18624823 
   49400   -284.95591    15.942619   -269.01329    1152.6866    270.10069    9.4905741   0.18813757 
   49500   -286.55481    14.727129   -271.82768     1064.804    2608.2776    9.6209626   0.19546837 
   49600   -288.27492     16.54088   -271.73404    1195.9422   -7260.5379    9.5639576   0.18146162 
   49700   -285.43949    17.754433   -267.68506    1283.6848    10226.016     9.612443   0.18857493 
   49800   -286.65227    17.008721   -269.64354    1229.7681    1436.2586     9.558735   0.16490173 
   49900   -287.12179    16.737584   -270.38421    1210.1644   -20699.195    9.3379699   0.17535831 
   50000   -282.99859    17.798755   -265.19984    1286.8894    4593.9832    9.4385128   0.22425675 
   50100   -285.43426    17.800468   -267.63379    1287.0132    13800.642    9.6624292    0.1753039 
   50200     -287.879    16.968118   -270.91088    1226.8325   -456.06931    9.6026551   0.19387812 
   50300    -285.8155    17.237507   -268.57799    1246.3099    2442.2991    9.5204645   0.22281966 
   50400   -284.30796    18.502754   -265.80521      1337.79    -16827.62    9.2731663   0.25810674 
   50500    -288.2463    17.271831   -270.97446    1248.7916   -2024.8169    9.5849176   0.17809755 
   50600   -287.76845     17.01659   -270.75186    1230.3371   -3098.5448    9.5784155   0.17587166 
   50700   -287.15089    19.780816   -267.37007    1430.1967   -601.17443    9.5602509   0.16018401 
   50800   -287.66924    20.824626   -266.84462    1505.6665    6235.4848    9.6590423   0.17651018 
   50900   -289.00545    17.691043   -271.31441    1279.1016   -3517.3004    9.6195393   0.16862335 
   51000   -287.70404    18.175417   -269.52862    1314.1229    668.31193     9.587329   0.17517478 
   51100   -283.81061    18.280045   -265.53057    1321.6877   -48.414783    9.4211226   0.19312528 
   51200   -286.61969    17.535299   -269.08439    1267.8409   -3203.3841    9.5210689   0.17747828 
   51300   -287.95578    16.803028   -271.15275    1214.8961    3758.4912    9.6579559   0.14570312 
   51400   -286.12874    19.459329   -266.66941    1406.9525    1399.4617    9.5339718   0.19094315 
   51500   -284.66678    17.354903   -267.31187    1254.7979   -7958.5108    9.3784648   0.23297076 
   51600   -286.38787     14.76724   -271.62063    1067.7041   -1397.3401     9.539703   0.19577688 
   51700   -286.57273    15.872618   -270.70012    1147.6254   -4613.2929    9.5133402    0.2024278 
   51800   -285.36453    19.871277   -265.49326    1436.7372    1738.8515     9.505097   0.20721936 
   51900   -287.82829    19.582019   -268.24627    1415.8233    15441.452    9.7638406    0.1745208 
   52000   -287.41952    17.528143   -269.89138    1267.3235    4025.8748    9.6320332   0.14693785 
   52100   -284.03313    14.283633   -269.74949    1032.7382      5379.47    9.5274469   0.18675417 
   52200   -282.52719    18.374651   -264.15254    1328.5279   -11421.915    9.2404907   0.24714726 
   52300   -285.16684    17.177279   -267.98956    1241.9553    -4430.713    9.4509432    0.2170566 
   52400   -285.53625    15.365748    -270.1705    1110.9775    5683.0493    9.5847194   0.19943438 
   52500   -285.13845     17.09543   -268.04302    1236.0374     8379.873    9.5721937   0.24282445 
   52600   -282.00057    17.760952   -264.23962    1284.1561   -2853.5494    9.3298839   0.29209678 
   52700   -284.83861    15.962488   -268.87613    1154.1232   -11670.522    9.3430744   0.23343207 
   52800   -286.17335    16.490644    -269.6827      1192.31   -7800.5473    9.4317801   0.21207107 
   52900   -286.17455    18.110293   -268.06425    1309.4142    4510.1102    9.5677434    0.1871148 
   53000   -281.06663    18.256551   -262.81008     1319.989    8436.2799    9.4137568   0.25607367 
   53100   -282.57879    15.879435   -266.69936    1148.1183   -8584.9665    9.3101657   0.26830168 
   53200     -285.409    16.238208    -269.1708    1174.0584    115.25604    9.4878979   0.20689061 
   53300   -284.88969    15.083123   -269.80657    1090.5432    4167.4097    9.5339528   0.22986166 
   53400   -284.40708    19.273378    -265.1337    1393.5078   -2962.9256    9.4164228   0.21088214 
   53500   -286.23497     18.20401   -268.03096    1316.1902    5012.7565    9.5921625   0.20053881 
   53600   -286.95024    15.807112   -271.14313    1142.8891    8993.9849    9.6890535   0.16646695 
   53700   -285.92192    18.256376   -267.66554    1319.9764     -2738.24    9.4847906   0.19724303 
   53800   -284.70805    17.775729   -266.93232    1285.2245    460.20499    9.4691381   0.22438767 
   53900   -287.29219      16.2419   -271.05029    1174.3253   -14216.701    9.4385143   0.18351653 
   54000   -286.58097    18.081209   -268.49976    1307.3114   -6057.9595    9.4824349    0.2034342 
   54100   -282.72375    16.926276   -265.79747    1223.8072    9738.7446    9.4929199   0.23207932 
   54200   -287.85762    17.441723    -270.4159    1261.0752    14158.268    9.7440244   0.15780938 
   54300   -286.58033    15.467587   -271.11275    1118.3408    9990.5562    9.6682591   0.18292431 
   54400     -284.058    17.196087   -266.86192    1243.3151   -11916.113     9.319006   0.23612012 
   54500   -286.32514    16.758275   -269.56686    1211.6604   -3406.6367    9.5135487   0.18043712 
   54600   -288.23164    16.806567   -271.42507     1215.152    13339.058    9.7662931   0.14320178 
   54700   -285.71469    18.664902   -267.04979    1349.5137    3565.3226    9.5199719   0.19915165 
   54800   -285.06239      18.0378   -267.02459    1304.1729   -5628.5513    9.4127943    0.2054291 
   54900   -287.36253    15.821165   -271.54136    1143.9052   -862.00272    9.5868997   0.17814197 
   55000    -285.4932    16.501378   -268.99183    1193.0861    1034.8654    9.5095209   0.22272423 
   55100   -285.50113     18.41025   -267.09088    1331.1018   -6217.3443    9.4481096   0.23922528 
   55200   -286.95922    16.465675   -270.49355    1190.5047    5126.8204    9.6213344   0.20091083 
   55300   -285.67041    17.315994   -268.35442    1251.9847    6344.7576    9.5893501    0.1798316 
   55400   -283.44656    17.077774   -266.36878    1234.7609    9974.9849    9.5473942   0.21096605 
   55500   -286.93653    16.239008   -270.69752    1174.1162     8515.646    9.6604944   0.20339367 
   55600   -286.06762    17.225955   -268.84167    1245.4746     -8653.03    9.4475088   0.19765639 
   55700   -283.73588    17.157894   -266.57799    1240.5537   -1514.0371    9.4238388   0.23252785 
   55800   -286.43832    16.048365   -270.38995    1160.3323    2011.3882    9.5775275   0.17594239 
   55900   -287.22391    16.505356   -270.71855    1193.3738    11455.139    9.7009181     0.171468 
   56000   -285.45694    18.126024   -267.33092    1310.5516   -5176.8116    9.4424886   0.21830231 
   56100   -285.31861    18.052097   -267.26651    1305.2065   -6757.3878    9.4248918   0.19559951 
   56200   -288.02573    16.809303   -271.21643    1215.3498    -5894.555    9.5434592   0.15854772 
   56300   -285.79065    17.565941   -268.22471    1270.0564   -2135.6422    9.5062998   0.22500615 
   56400   -284.05598    16.503916   -267.55207    1193.2697      7687.01    9.5489518   0.19267856 
   56500   -288.63458    17.732697   -270.90188    1282.1132    513.99899    9.6409157   0.14948072 
   56600   -288.03628    16.572671   -271.46361    1198.2407    203.44983    9.6264204   0.15083993 
   56700   -284.07468    17.935188   -266.13949    1296.7538   -5526.9045    9.3779862    0.2345766 
   56800   -284.61086    16.184445   -268.42642    1170.1712   -637.81461    9.4713522   0.21775959 
   56900   -287.59216    16.341082   -271.25108    1181.4964   -1647.9232    9.5731501   0.16374079 
   57000   -288.53471    17.983143   -270.55157     1300.221    11200.868    9.7558064   0.15772002 
   57100   -284.94706    18.532379   -266.41468     1339.932    13688.813    9.6372644   0.18867611 
   57200   -284.73845    17.728972   -267.00947    1281.8439    7854.9455    9.5556154   0.24571067 
   57300   -286.02888     17.49321   -268.53567    1264.7977   -6491.1095    9.4267403   0.21355859 
   57400   -286.31787    14.897767   -271.42011    1077.1415   -7371.3157    9.4723135   0.19713979 
   57500   -287.24145    18.411539   -268.82991     1331.195   -7674.7036    9.4915182   0.19024137 
   57600   -285.05582    18.154526   -266.90129    1312.6124    8956.4143    9.5853367    0.2198874 
   57700   -289.24182    17.482825     -271.759    1264.0469    8721.4789    9.7613583    0.1470728 
   57800   -288.96415    18.154654    -270.8095    1312.6217    2770.7929    9.6743231   0.14283789 
   57900   -285.38187    17.715999   -267.66587    1280.9059    5815.0557    9.5513095   0.21551379 
   58000   -285.87499    17.881808   -267.99318    1292.8943   -13320.184    9.3824111   0.24138166 
   58100   -287.57169    15.099289    -272.4724     1091.712   -1782.4078    9.5658625   0.19584548 
   58200   -285.90518    16.618982    -269.2862    1201.5891    1697.0152    9.5169802   0.20038443 
   58300   -283.81994    16.377377   -267.44257    1184.1206     7518.587    9.5309077   0.21917259 
   58400   -287.66461    16.261914    -271.4027    1175.7724   -13758.766    9.4664251    0.1827479 
   58500   -286.53414    15.394283   -271.13985    1113.0407   -195.79551    9.5601294   0.21276283 
   58600   -284.10641    16.370918   -267.73549    1183.6536   -592.71109    9.4487228   0.25403505 
   58700   -286.12812    16.258817    -269.8693    1175.5484   -6036.1591    9.4558813   0.20409047 
   58800   -290.86576    17.969784   -272.89598    1299.2552    2029.6102    9.7643985   0.12455594 
   58900   -288.16846    19.925244   -268.24322    1440.6392    13527.243    9.7448117   0.14304819 
   59000   -285.48552    16.203185   -269.28233    1171.5261   -11549.501    9.3732265    0.2006933 
   59100   -285.07463    16.170159   -268.90448    1169.1383   -11936.848    9.3861555   0.20890627 
   59200   -286.44655    15.900702   -270.54585    1149.6559    3559.2964    9.5919148   0.19832511 
   59300   -288.27439    14.602221   -273.67217    1055.7729   -297.89666    9.6386696   0.15462166 
   59400   -286.84499     16.00188   -270.84311    1156.9713   -1821.2576    9.5494018   0.16915082 
   59500   -284.69749    15.633429   -269.06406    1130.3315   -1091.8798    9.4730137   0.21962168 
   59600   -284.62918    18.517991   -266.11118    1338.8917    5958.4249    9.5362305   0.20953394 
   59700   -288.44781    18.160703    -270.2871     1313.059    10893.471    9.7529396   0.16053999 
   59800   -288.15344    17.352068   -270.80137    1254.5929   -2588.6943    9.6082359   0.17587298 
   59900    -284.3208    16.057477   -268.26333    1160.9911     2223.759    9.5081261   0.21630882 
   60000   -284.77571     18.69858   -266.07713    1351.9487   -10160.434    9.3517339   0.21556526 
   60100   -282.58323     19.13136   -263.45187    1383.2397   -8071.2813    9.2715647   0.26203186 
   60200   -285.40141    16.428914   -268.97249    1187.8468    12910.785    9.6408647   0.21263293 
   60300   -287.06927    17.974547   -269.09472    1299.5995   -995.34265    9.5577116    0.1757347 
   60400   -287.34804    17.317859   -270.03018    1252.1195    5720.2711    9.6328144   0.17266897 
   60500   -288.09966    13.626303   -274.47336    985.21187   -4094.9977    9.5944949   0.17520105 
   60600   -286.39575    15.973819   -270.42194    1154.9425   -21078.423    9.3373669   0.20134121 
   60700   -287.55021    18.794698   -268.75551    1358.8983    642.28422     9.593525   0.16178655 
   60800   -287.76536    18.087445   -269.67791    1307.7623    11041.042    9.7185383   0.16216235 
   60900   -289.11293    18.346008   -270.76692    1326.4569   -7383.5622    9.5790054   0.17606439 
   61000   -291.17905    15.518036   -275.66102    1121.9883    1978.3209    9.7755572   0.11514693 
   61100   -286.59952     15.06149   -271.53803     1088.979    3692.5888    9.5997012   0.18033982 
   61200   -286.22829    16.372292     -269.856    1183.7529    8276.9368    9.6513994   0.17652516 
   61300   -286.41671    18.317724   -268.09899    1324.4119    7121.6409    9.6004693   0.19540635 
   61400   -283.69699    17.202059   -266.49494    1243.7469    5825.0834    9.5210208   0.23442465 
   61500   -288.73223    16.866376   -271.86586    1219.4763   -9646.7866    9.5599576   0.15321889 
   61600   -286.66106    16.932434   -269.72862    1224.2524    11172.201    9.6643517   0.17562148 
   61700    -285.6651    17.597366   -268.06773    1272.3285    -1870.574     9.488752   0.20442575 
   61800   -288.23652    15.684663   -272.55185    1134.0358   -10256.712    9.5078893     0.175428 
   61900   -287.95366    17.071805   -270.88186    1234.3293    -4953.179    9.5558558   0.16909148 
   62000   -285.64012    17.270711   -268.36941    1248.7106    20956.843    9.7414478   0.18439726 
   62100   -284.29844    15.700071   -268.59837    1135.1498    3502.3198    9.4979881   0.25474152 
   62200   -285.43167    15.341271    -270.0904    1109.2078   -15371.623    9.3448315   0.21815603 
   62300   -289.00462    15.375277   -273.62934    1111.6665   -3420.0761    9.6244248    0.1683511 
   62400   -288.29958    17.901695   -270.39788    1294.3321      6096.79     9.696255    0.1629294 
   62500   -286.38303    18.299604   -268.08342    1323.1019    4013.4616     9.575421   0.18878683 
   62600   -283.53765    17.537109   -266.00054    1267.9718    9768.3381    9.5271763   0.22820882 
   62700   -286.34908    18.260569   -268.08851    1320.2795   -10007.241    9.4229682   0.22658946 
   62800   -287.66096    17.252487   -270.40847    1247.3929   -7634.7636     9.534457   0.17396348 
   62900   -288.16743    19.343045   -268.82439    1398.5449    7798.2989     9.690955   0.14441472 
   63000   -285.61402    18.420187   -267.19383    1331.8203    4368.8701    9.5313856   0.19030183 
   63100   -280.81991    18.050338   -262.76957    1305.0794   -8772.8529    9.1866489   0.31074148 
   63200   -284.32216    16.169816   -268.15234    1169.1135    1665.8413    9.4910676   0.19855984 
   63300   -286.46645    17.283154    -269.1833    1249.6103    5130.1827    9.5725652    0.1785098 
   63400   -287.13096    18.410303   -268.72065    1331.1056    -3099.232    9.5394388   0.18913836 
   63500   -285.61231    18.505384   -267.10692    1337.9802   -6726.9509    9.4491365   0.19736219 
   63600   -283.06837    20.544081   -262.52429    1485.3825   -7162.1402    9.2936877   0.25263337 
   63700    -286.9737    18.817546   -268.15616    1360.5502    8426.7472    9.6641847   0.17024832 
   63800   -287.66859    18.404887   -269.26371     1330.714    4934.3649    9.6325329   0.18509003 
   63900   -285.01297    16.692686   -268.32028    1206.9181   -9958.9246    9.4165632   0.21814396 
   64000   -285.38114    17.022389   -268.35875    1230.7563   -5998.5955    9.4344951   0.19857827 
   64100   -289.18067    16.212839   -272.96783    1172.2241     14542.59    9.8209554   0.15228009 
   64200    -288.4333    18.206309   -270.22699    1316.3564   -5242.9236    9.5696027   0.16340267 
   64300    -285.8863    17.788956   -268.09734    1286.1809   -9031.7499    9.4308112   0.23474032 
   64400    -283.5499    17.259751   -266.29015    1247.9182    6584.2424    9.4958511   0.21485121 
   64500    -287.4218    15.697999    -271.7238         1135   -10393.866    9.4808562   0.17177992 
   64600   -285.14816    15.085685   -270.06247    1090.7284   -3280.7498    9.4637029   0.22610704 
   64700   -285.37879    17.626092    -267.7527    1274.4054   -5486.0189    9.4517859    0.2098247 
   64800   -285.47783    14.870632    -270.6072    1075.1796   -55.807262    9.5217157   0.23670597 
   64900   -288.21435    15.683839   -272.53051    1133.9763       8244.2    9.7180497   0.14357235 
   65000    -287.4734    17.563801    -269.9096    1269.9017    5966.7283    9.6596707   0.16469504 
   65100    -284.8012     17.13996   -267.66124    1239.2571    3410.2663    9.5304133   0.21472237 
   65200   -285.75795    16.557703   -269.20025    1197.1585   -15376.078    9.3621586   0.20720414 
   65300   -287.45691    16.127935   -271.32898    1166.0854    -4566.456    9.5433141   0.20168615 
   65400   -284.56175    17.347974   -267.21377    1254.2969    7702.9681    9.5346096   0.20692366 
   65500   -285.19659    19.080119   -266.11647    1379.5348    1354.4538    9.5126244   0.20047424 
   65600   -285.74909    15.863687    -269.8854    1146.9797    15799.271    9.7078465   0.15358493 
   65700   -287.80086    17.612828   -270.18804    1273.4464    1268.2469    9.6041217    0.1698035 
   65800   -283.58011     17.24479   -266.33532    1246.8364   -9129.5274    9.3206954   0.24396184 
   65900   -286.90027    16.990011   -269.91026    1228.4154   -9745.9639    9.4440412   0.20231073 
   66000   -285.44389    14.490296    -270.9536    1047.6805    6613.2388    9.6011043   0.18071185 
   66100   -286.91733    19.315498   -267.60183    1396.5532     2054.846    9.5510961   0.18821354 
   66200   -285.26813    17.248964   -268.01917    1247.1382    1615.5179    9.4998704   0.21175049 
   66300   -287.81513    15.297596   -272.51753    1106.0501   -15781.738     9.462589   0.21625164 
   66400   -287.33283    18.029166   -269.30366    1303.5486   -16964.384    9.3900791   0.18600824 
   66500   -286.06579    17.859214   -268.20657    1291.2607    5615.6237    9.6048089    0.1959304 
   66600   -287.94849    15.626148   -272.32234    1129.8051    9121.2093    9.7297786   0.16967816 
   66700   -287.19254    17.449225   -269.74332    1261.6176    -2857.513    9.5416346    0.2068931 
   66800    -285.8959    18.360437   -267.53547    1327.5002     -14014.8    9.3629709   0.25576237 
   66900   -286.59439    16.376206   -270.21819    1184.0359   -1666.8492    9.5373453   0.18818569 
   67000   -287.75739    15.582479   -272.17491    1126.6477    3112.1553    9.6501003   0.15191631 
   67100    -283.0452     15.55934   -267.48586    1124.9747    10168.959    9.5720413   0.19775798 
   67200   -285.60649    18.386964   -267.21952    1329.4182    6325.8231    9.5630934   0.22977061 
   67300    -288.1151    17.146941   -270.96816    1239.7618    -481.9981    9.6015796   0.16307799 
   67400   -287.33198    15.205937   -272.12604    1099.4229   -15189.431    9.4540921   0.17623056 
   67500   -285.24997    16.458679   -268.79129    1189.9989    13188.155    9.6396401   0.19302504 
   67600   -286.45958    18.558992   -267.90058    1341.8562    4004.2402    9.5641736   0.18479871 
   67700   -288.43264    15.264821   -273.16782    1103.6803   -4993.4205    9.5755404   0.15869845 
   67800   -286.79408    16.371652   -270.42243    1183.7066   -4583.1069    9.5231369   0.19530778 
   67900   -284.68653    15.836353   -268.85018    1145.0033    4262.4756    9.5255961   0.18782488 
   68000   -288.97675    17.509242    -271.4675     1265.957   -9757.9168    9.5379033   0.16437492 
   68100   -288.35487    15.018798   -273.33607    1085.8923    6605.5907    9.7262666   0.16736868 
   68200   -286.36688    18.641788   -267.72509    1347.8425    8138.9754    9.6446088   0.17207009 
   68300   -287.03338    19.438738   -267.59464    1405.4637    21912.412    9.8148724   0.16111937 
   68400   -288.36792    19.019375   -269.34854    1375.1429   -6293.8649    9.5541107    0.1454306 
   68500   -287.19808      14.0756   -273.12248     1017.697    6344.9443    9.6864889   0.15709764 
   68600   -287.41037    16.049635   -271.36074    1160.4241   -3641.8102    9.5607087   0.17229791 
   68700   -286.34845    17.597523   -268.75093    1272.3398   -5858.6796    9.4512871   0.20562088 
   68800   -288.09191    19.196782   -268.89513    1387.9698   -14142.691    9.4553082   0.16949674 
   68900   -288.65246    16.632944   -272.01952    1202.5987    27325.542    9.9353303   0.12123838 
   69000   -289.84431    16.532113    -273.3122    1195.3083    4236.2061    9.7317303   0.13294631 
   69100   -285.11855    15.893172   -269.22538    1149.1115   -10556.229    9.4071102   0.20876954 
   69200   -285.17463    15.585845   -269.58879    1126.8911    2604.4423     9.539743   0.21381574 
   69300   -286.64937    17.015339   -269.63403    1230.2467   -1701.9141     9.555715   0.19299071 
   69400   -282.11207     18.00699   -264.10508    1301.9452   -5574.3876    9.2849419   0.31446513 
   69500    -285.5989    17.798763   -267.80014    1286.8899   -13959.617     9.358154   0.22505103 
   69600   -288.38053    19.142503   -269.23802    1384.0453   -7615.8554    9.5290801   0.17937857 
   69700    -287.6182    17.041398    -270.5768    1232.1307    4755.8643    9.6501998   0.16339965 
   69800   -287.13657    20.038239   -267.09833     1448.809    7313.8067    9.6393397   0.17923046 
   69900   -284.02297    18.232226   -265.79074    1318.2303   -4955.3928    9.3981054   0.23139594 
   70000   -285.26449    15.446025   -269.81847    1116.7818   -12861.291    9.3680562    0.1874443 
   70100   -287.11857    16.506304   -270.61227    1193.4423   -417.20556    9.5243448   0.18831388 
   70200   -284.15827    17.751716   -266.40655    1283.4883    2874.9594    9.4703219   0.21729986 
   70300   -285.41443    17.077471   -268.33696     1234.739   -15451.329    9.3528639    0.2230277 
   70400   -285.50105    14.926278   -270.57477    1079.2029    11267.135    9.6595523   0.18889379 
   70500   -285.44076    17.296087   -268.14467    1250.5453     -141.888    9.5115096   0.21014716 
   70600   -284.16177    19.896557   -264.26522    1438.5651   -3778.6757    9.3929975   0.25932641 
   70700   -287.78241    18.020818   -269.76159     1302.945   -585.12175    9.5859648   0.17826545 
   70800   -286.99897    16.890404   -270.10856    1221.2136    3820.9988    9.6117481   0.17307309 
   70900   -284.47942    17.078998   -267.40042    1234.8493    3052.9633    9.5222579   0.20137451 
   71000   -283.68631    20.616893   -263.06942    1490.6469    7597.8726    9.4758198   0.25147234 
   71100   -285.35407    16.951562    -268.4025    1225.6354     8713.168    9.6108472   0.18292048 
   71200   -285.63272    15.906864   -269.72585    1150.1015   -7551.7771     9.434374   0.22219721 
   71300   -284.69622    17.344123    -267.3521    1254.0185    -16353.33    9.2860265   0.23264945 
   71400   -284.07552    16.256352   -267.81916    1175.3702   -11926.755    9.3332516   0.24699462 
   71500   -289.08306      17.2074   -271.87566    1244.1331    3637.2508    9.6917355   0.13521651 
   71600   -284.86272    15.099056   -269.76367    1091.6951    15100.637     9.672514    0.2060766 
   71700    -283.9711    17.484946   -266.48615    1264.2003   -4882.7755    9.3680224   0.26699934 
   71800   -282.96459    17.297472   -265.66712    1250.6455    -11905.27    9.2789753   0.23659009 
   71900   -286.72922    16.274664   -270.45455    1176.6942    -80.43765    9.5683884   0.18350761 
   72000   -287.95231    18.764834   -269.18748     1356.739   -783.12078    9.6169713   0.19587483 
   72100   -285.32968    19.718426   -265.61125    1425.6858    12224.514    9.6315488   0.18193563 
   72200   -287.12545    17.337553   -269.78789    1253.5434     5698.021    9.6452903   0.17061676 
   72300   -287.53101    17.127455   -270.40356    1238.3529    5171.6109    9.6507185   0.14830012 
   72400   -284.73821    18.763923   -265.97429    1356.6732    5200.7179    9.5154458   0.20144172 
   72500   -285.53421    16.017828   -269.51638    1158.1244    4996.1812    9.5432625   0.19735288 
   72600   -286.70968    16.150385    -270.5593    1167.7086   -11272.764    9.4491924   0.21672754 
   72700   -284.12913    16.094502   -268.03463    1163.6681   -9738.6574    9.3433622    0.2578677 
   72800   -282.17817     17.24581   -264.93236    1246.9102    3686.3927    9.4055538   0.26299093 
   72900   -288.53786    18.657939   -269.87992    1349.0103   -2537.6793    9.5840133   0.16911384 
   73000   -287.54092     16.95728   -270.58364    1226.0488   -1367.2168    9.5968542   0.17319135 
   73100   -285.68077    18.823968    -266.8568    1361.0145    1229.3084    9.5073486   0.19844085 
   73200   -285.77845    18.469491   -267.30896     1335.385   -573.67666    9.5062868   0.18576533 
   73300   -287.43766    16.094182   -271.34347     1163.645    2871.3986    9.6324198   0.18050543 
   73400   -285.56504    16.738985   -268.82606    1210.2657   -14172.148    9.3665962   0.20805644 
   73500   -285.08681    17.501313    -267.5855    1265.3836   -15458.053    9.3198533   0.24624139 
   73600   -287.41235    17.878994   -269.53336    1292.6908     9111.803    9.6710893   0.20465029 
   73700   -287.91318    13.980828   -273.93235    1010.8448    8445.5388     9.728292   0.17872536 
   73800   -288.10578    16.144612   -271.96117    1167.2912   -9090.6348    9.5293512   0.16613744 
   73900   -286.40528    17.297634   -269.10765    1250.6572   -585.74414    9.5665488   0.19756724 
   74000   -286.02943    17.369033    -268.6604    1255.8195    8392.4074    9.6338846   0.17275919 
   74100   -289.52251    16.188931   -273.33358    1170.4955    123.83473    9.6833207   0.14905392 
   74200   -287.15215    16.489814   -270.66234    1192.2501    2242.0848    9.5799036   0.19784712 
   74300   -286.04456    16.773189   -269.27138    1212.7386   -8949.6809    9.4225704     0.216009 
   74400   -284.78071    16.310273   -268.47043    1179.2688    -14979.59    9.3301787   0.23814703 
   74500   -288.23457    19.032172    -269.2024    1376.0682    3913.6351    9.6535677   0.16283704 
   74600   -289.95299     16.11507   -273.83792    1165.1552    9670.9068    9.8124264   0.12956318 
   74700   -287.45607    16.274866    -271.1812    1176.7088   -11040.887    9.4860156   0.18508974 
   74800     -285.043    16.771054   -268.27195    1212.5843   -1353.3472    9.4717015   0.24968013 
   74900   -286.42194    19.455698   -266.96624      1406.69   -1410.0915     9.527928   0.17382764 
   75000   -287.88472    16.710027   -271.17469    1208.1719    9781.5431    9.7334312   0.16014832 
   75100   -286.24814    17.380453   -268.86769    1256.6452    -1553.774    9.5455037   0.19953482 
   75200   -285.49742    19.068971   -266.42845    1378.7288   -10439.329    9.3910335   0.22668294 
   75300   -287.71214    16.749376   -270.96276    1211.0169   -10618.433    9.4888047    0.1740159 
   75400   -288.55008    18.467804   -270.08228    1335.2631    5404.4807    9.6729466   0.14396881 
   75500   -284.63465    18.804528   -265.83012     1359.609    9354.3181    9.5796179   0.19837665 
   75600   -285.48123     16.35535   -269.12588     1182.528    15664.598    9.6971647   0.17705502 
   75700   -287.08478    15.374555   -271.71023    1111.6144   -8202.7482     9.502657   0.18197089 
   75800   -283.38236    15.189863    -268.1925    1098.2607   -16324.398    9.2500282   0.24663291 
   75900   -285.56616    17.935096   -267.63106    1296.7471     -3575.62    9.4614483   0.19328001 
   76000   -287.30908    15.299302   -272.00977    1106.1733    11432.983    9.7220201   0.14581791 
   76100   -286.13776    16.663186   -269.47457    1204.7852    7141.4893    9.6316713   0.17715245 
   76200   -283.66934    17.108045   -266.56129    1236.9495   -14589.927    9.2804554   0.26670807 
   76300   -284.97525    17.063564   -267.91169    1233.7334     8775.188    9.5825263   0.22680506 
   76400   -287.84139     17.09144   -270.74995    1235.7489    6447.1762     9.686766    0.1541123 
   76500   -286.33871     17.95335   -268.38536    1298.0669   -2874.0717    9.5041983    0.1904214 
   76600   -284.04432    18.292723    -265.7516    1322.6043    6258.1526    9.5026222   0.22657195 
   76700   -288.06848    17.082404   -270.98608    1235.0956   -6164.2797    9.5724792   0.17064878 
   76800   -286.64032    15.592902   -271.04742    1127.4013   -6470.3478    9.5206452   0.22280241 
   76900   -284.01219    15.869664   -268.14252    1147.4118   -2802.3604    9.4343554   0.25467181 
   77000    -284.7502    16.800995   -267.94921    1214.7491   -10567.901    9.3409178    0.2624168 
   77100   -287.13269    14.788481   -272.34421    1069.2399   -3063.8765     9.572611   0.19268528 
   77200   -288.57378    19.687382    -268.8864    1423.4412    12171.289    9.7635075   0.14590372 
   77300   -285.23788    18.213166   -267.02471    1316.8522    13004.413    9.6484284   0.17994863 
   77400   -287.04394    15.200871   -271.84307    1099.0566   -5691.2629    9.5097895   0.16414051 
   77500    -286.9259    15.754935   -271.17097    1139.1166   -5783.5364    9.5101401    0.1791723 
   77600   -287.46433    19.466894   -267.99743    1407.4995   -2523.3115    9.5498611   0.19029712 
   77700   -287.63738    16.914087    -270.7233    1222.9259    7489.5744    9.6750554    0.1575355 
   77800   -288.46688     15.18885   -273.27803    1098.1875    7686.4639    9.7275588    0.1786234 
   77900   -285.47352    16.631873   -268.84164    1202.5212   -15268.533    9.3639455   0.22001452 
   78000    -284.6656    16.840013   -267.82558    1217.5702    6057.9877    9.5561044    0.1920827 
[...]
  481400   -285.65725    17.477387   -268.17987    1263.6537   -1850.1991    9.4850957   0.19171723 
  481500   -287.50969    17.312646   -270.19704    1251.7426    4592.5031    9.6550767   0.15491254 
  481600   -288.24572    15.110374   -273.13535    1092.5135    6840.3303    9.7266606   0.14715147 
  481700   -287.46839     18.93143   -268.53696    1368.7843   -3127.4033    9.5506148   0.17830215 
  481800   -285.32029    16.123088    -269.1972    1165.7349   -4858.1513    9.4676642    0.2335412 
  481900   -286.67066    16.371248   -270.29941    1183.6775   -8495.0013    9.4650803   0.18714638 
  482000    -291.2337    16.979826   -274.25388     1227.679    12644.304    9.8934717   0.13873675 
  482100    -288.1225    18.138904    -269.9836    1311.4829    2567.8169    9.6330772   0.15570762 
  482200   -285.50524    16.472741    -269.0325    1191.0156   -3849.8159    9.4750511   0.19861919 
  482300   -286.63581    16.373356   -270.26246    1183.8298    3429.0924    9.5995431   0.19712215 
  482400   -289.45491    14.900237   -274.55468    1077.3201   -4230.7106    9.6549933   0.16236415 
  482500   -287.10007    17.039224   -270.06085    1231.9736   -5438.9936    9.5250644   0.19961956 
  482600   -284.06326    15.371862    -268.6914    1111.4197    -1350.274    9.4705899   0.23259273 
  482700   -285.79853    15.939062   -269.85946    1152.4294   -8789.1128    9.4408868   0.18475487 
  482800    -289.1571    16.234366   -272.92274    1173.7806    14746.174    9.8270758     0.132204 
  482900   -287.30387    18.583129   -268.72074    1343.6013    8932.4543    9.6545374    0.1646537 
  483000   -286.50827    18.648126   -267.86014    1348.3007   -4774.4537    9.4935069   0.19950827 
  483100   -286.85419    16.121827   -270.73237    1165.6437   -11589.072    9.4237195   0.18237711 
  483200   -286.17182    16.035685   -270.13613    1159.4155    2217.6396    9.5807365   0.16689197 
  483300   -282.84505    17.544458   -265.30059    1268.5031    14316.564    9.5569611   0.20023322 
  483400   -287.49772     17.95819   -269.53953    1298.4169    7871.8583    9.6976534    0.1637696 
  483500   -286.63595    16.353181   -270.28277    1182.3711   -1205.6312    9.5134622   0.15625672 
  483600   -283.95557    17.715723   -266.23985    1280.8859   -9857.0533    9.3118034   0.23129588 
  483700   -283.07696    18.177871   -264.89909    1314.3003   -6343.5511    9.3355346   0.24787305 
  483800   -286.67211    16.535061   -270.13705    1195.5214    7811.8797    9.6392823    0.1743391 
  483900   -288.34718    18.379897   -269.96729    1328.9072    6999.2081    9.6774037   0.16477971 
  484000   -287.12139    19.461033   -267.66035    1407.0757   -963.10959    9.5497542   0.20971085 
  484100   -282.43261    16.404394   -266.02821     1186.074   -3273.4394    9.3198758   0.31042006 
  484200     -285.437    13.582679   -271.85432    982.05775   -7243.5954    9.4298302    0.2079925 
  484300   -287.58147    16.600014   -270.98146    1200.2177   -11624.064    9.4411943   0.17340571 
  484400   -285.71149    16.824764   -268.88672    1216.4676    6722.2778    9.5875147   0.18433518 
  484500    -285.5209    17.866582   -267.65432    1291.7934    7860.7779    9.5878131   0.18882405 
  484600   -289.25084    15.849433   -273.40141     1145.949   -1508.0744    9.6678066   0.14178043 
  484700   -286.81413    15.767527    -271.0466    1140.0271    834.30162    9.5778755   0.19571062 
  484800   -285.16095    15.976861   -269.18408    1155.1624    10110.286    9.5856726   0.17582525 
  484900   -287.34157    17.568582   -269.77298    1270.2473   -10009.856    9.4509225   0.18950424 
  485000   -288.95969    14.798059   -274.16163    1069.9324   -14559.541     9.511635   0.19272894 
  485100   -288.06753     16.14505   -271.92248    1167.3229   -4169.0906     9.560336   0.15132951 
  485200   -287.03485    18.997448    -268.0374    1373.5575    18450.193    9.7721324   0.15904436 
  485300   -285.84099    16.707939   -269.13305     1208.021    5887.6616    9.5947866   0.17688583 
  485400   -287.16237    14.654087   -272.50828    1059.5229   -2839.1746    9.5472912   0.18025234 
  485500    -286.9412     15.94045   -271.00075    1152.5298   -5371.5748    9.5367601   0.18375693 
  485600   -284.20032    16.369329   -267.83099    1183.5387    9697.3112    9.5853393   0.21299454 
  485700   -286.24192    16.977229   -269.26469    1227.4912   -130.03516    9.5435809   0.17802127 
  485800   -288.84937    16.084051   -272.76532    1162.9125   -2264.9503    9.6353988   0.17675461 
  485900   -286.72481    18.821951   -267.90286    1360.8687    2954.8085    9.5715245    0.1914268 
  486000   -287.48981    19.664746   -267.82507    1421.8046   -1361.0924    9.5651107   0.16883467 
  486100   -287.31504    17.627219   -269.68782    1274.4869     -6190.38    9.5073895   0.16585414 
  486200   -288.10316    14.816793   -273.28637    1071.2869   -9363.7225    9.5212334   0.17259589 
  486300   -286.47235    17.150165   -269.32218    1239.9949    16890.143    9.7221039   0.18464666 
  486400   -286.15012    17.686148   -268.46397    1278.7476    614.48022    9.5464096   0.19513789 
  486500   -287.49111    17.831997   -269.65911    1289.2928   -4514.5755    9.5470229   0.16495821 
  486600   -290.33594    16.954439    -273.3815    1225.8434   -1825.2119    9.6861518   0.13449125 
  486700   -286.86411    16.782203   -270.08191    1213.3904    7119.5279    9.6498845   0.15339826 
  486800   -285.68702    17.032207   -268.65481    1231.4662   -4566.7497    9.4716629   0.18152017 
  486900   -287.63654     17.65472   -269.98182    1276.4753   -9092.0212    9.4814596   0.19989574 
  487000   -288.86533    14.792714   -274.07262    1069.5459   -587.51036    9.6701297   0.14780684 
  487100   -287.14247    16.042981   -271.09948     1159.943    11334.297    9.7072069    0.1958993 
  487200    -285.5794    16.516443   -269.06295    1194.1753      6017.71    9.5819256   0.16969356 
  487300   -287.74839     18.25279    -269.4956    1319.7171    5612.0864     9.659118   0.18542329 
  487400   -285.23844    17.221563   -268.01688    1245.1571    7810.6928    9.5875094   0.20664251 
  487500   -284.03517    19.801635   -264.23353     1431.702   -21204.229    9.1938435    0.2590156 
  487600   -286.61144    17.486008   -269.12543    1264.2771   -2714.0152    9.5075135   0.18553715 
  487700   -288.35936     17.80687   -270.55249    1287.4761    7131.7205    9.6975773   0.15236478 
  487800   -286.65267    19.687717   -266.96496    1423.4655     8974.961    9.6565639   0.15782089 
  487900   -284.99735    18.640225   -266.35713    1347.7295    7880.1214    9.5940635   0.19331823 
  488000   -288.21608    17.709347   -270.50673     1280.425    6669.4237    9.6850924   0.12757472 
  488100   -287.36742    18.449832   -268.91759    1333.9637    11791.318    9.6936127   0.13851468 
  488200   -285.34115    19.469709   -265.87144     1407.703   -10839.007    9.3671753   0.20286928 
  488300   -284.86899    16.455821   -268.41317    1189.7923   -13254.186    9.3174642   0.23048454 
  488400   -287.41324    16.484846    -270.9284    1191.8909   -8004.9646    9.4967484   0.19777125 
  488500   -286.83724    19.421018   -267.41622    1404.1825   -4211.7754    9.5065168   0.18944111 
  488600   -285.71295    18.250013   -267.46294    1319.5163    3887.3133    9.5520135   0.21493889 
  488700   -289.78392     17.70936   -272.07456    1280.4259    19350.278    9.8983722   0.12836011 
  488800   -287.60056    16.266912   -271.33364    1176.1337    4438.2185    9.6589671   0.15144656 
  488900   -285.56911    17.773977   -267.79513    1285.0979   -7628.5254      9.42732   0.21096796 
  489000   -282.83202    15.008494   -267.82352    1085.1473    8421.6715    9.5038915   0.25651218 
  489100   -287.50645    15.439612   -272.06684    1116.3181   -17299.501    9.4323986   0.20338783 
  489200   -286.27207    15.033919   -271.23815    1086.9856    4193.0722    9.5754376   0.20973702 
  489300   -285.15233    16.485936   -268.66639    1191.9697    221.80375    9.5095452   0.19580208 
  489400   -287.17284     16.83158   -270.34126    1216.9605   -4397.9776    9.5411999   0.19620329 
  489500   -289.41013    17.807371   -271.60276    1287.5123    3968.9336    9.7085053   0.14692321 
  489600   -283.00877    16.418695   -266.59008     1187.108   -8670.7307    9.3201298   0.22781641 
  489700   -287.10551    17.324318    -269.7812    1252.5865   -9801.2982     9.456485   0.19151428 
  489800   -287.53704     15.98301   -271.55403     1155.607     7711.444    9.6830506   0.17969151 
  489900   -284.79102    17.582856   -267.20816    1271.2794     5090.368    9.5376488   0.20701995 
  490000   -281.96226    15.120149   -266.84211    1093.2202   -5916.9172    9.3108176   0.26053701 
  490100   -284.70467    13.698722   -271.00595    990.44791   -11429.042    9.3735944    0.2211046 
  490200   -285.43916    15.627997   -269.81116    1129.9388    3178.2621    9.5770718   0.18309989 
  490300   -286.94657    19.790388   -267.15618    1430.8889    5644.8448    9.5995502   0.19630243 
  490400   -290.88068    19.022875   -271.85781    1375.3959   -11205.057    9.6065368   0.14835281 
  490500   -286.87404    15.833844    -271.0402     1144.822    2322.0279    9.6080731    0.1617491 
  490600   -287.17616    18.980855   -268.19531    1372.3578    -613.9171    9.5651223    0.1643727 
  490700   -287.31322    16.378863   -270.93436     1184.228    -4148.952    9.5487974   0.17703785 
  490800   -287.72027    15.271668    -272.4486    1104.1754    4826.8382    9.6521297    0.1569877 
  490900   -284.93524    17.591372   -267.34387    1271.8951    10145.801    9.6147883   0.24298415 
  491000   -284.16707    16.776576   -267.39049    1212.9836    8842.8899     9.576551   0.21366703 
  491100   -289.38152    18.388523   -270.99299    1329.5309     -4831.69     9.606128   0.15678867 
  491200   -287.68747    15.228002   -272.45947    1101.0182    638.11143     9.608021   0.17903445 
  491300   -285.37486    17.397342   -267.97752    1257.8663    -11419.63    9.3736064   0.21362389 
  491400   -287.54232    18.154356   -269.38796    1312.6001   -1393.6204    9.5781801   0.16708204 
  491500   -288.93387    17.173287   -271.76058    1241.6666     19959.22    9.8908552   0.14085821 
  491600   -284.93292    17.792816   -267.14011      1286.46   -541.93318    9.4786984   0.18790439 
  491700   -285.00756    17.135935   -267.87162     1238.966   -1654.9363    9.4736399   0.20188258 
  491800   -288.51333    17.686409   -270.82692    1278.7665    54.515334    9.6288054   0.16332054 
  491900   -286.85204    15.780052   -271.07199    1140.9327    6755.8607    9.6359689   0.19477405 
  492000   -284.90897    17.998952   -266.91002    1301.3641   -8554.9277    9.3935639   0.22619241 
  492100   -283.91765    14.589979   -269.32767    1054.8877    1536.4626    9.4621452   0.24169974 
  492200    -286.4177    16.311729   -270.10597    1179.3741   -514.07967    9.5370277   0.18350861 
  492300   -287.65856    13.943308   -273.71525     1008.132    7101.8959    9.7052459   0.17020538 
  492400   -289.95522     17.69336   -272.26186    1279.2691    11887.346    9.8035815   0.11243557 
  492500   -287.96056    19.320606   -268.63995    1396.9225    3095.3318    9.6356537   0.15928558 
  492600   -288.70181    20.326308    -268.3755     1469.637   -8633.5473    9.5309825   0.15093143 
  492700   -287.35473    15.943346   -271.41138    1152.7392    9821.0255     9.696736   0.17243162 
  492800   -288.60021    17.051266   -271.54894    1232.8443     4231.435     9.700163   0.14729963 
  492900   -286.57363    19.225527    -267.3481    1390.0481    1711.4474    9.5480583   0.16762357 
  493000   -286.65303     17.45694   -269.19609    1262.1754   -13636.129    9.3962584   0.18964701 
  493100   -287.44555    16.314341   -271.13121     1179.563    2474.9868    9.6163037   0.15274226 
  493200    -284.8197    18.540911   -266.27879    1340.5489   -3178.1681    9.4505432   0.21447396 
  493300   -285.06884    18.385465   -266.68338    1329.3098    10729.643    9.6068538   0.21452428 
  493400   -285.63783    16.646217   -268.99162    1203.5583    10117.988    9.6368449   0.20616663 
  493500   -285.35156    14.002289   -271.34927    1012.3964   -13857.772    9.3572777   0.23319347 
  493600   -283.39122       15.325   -268.06622    1108.0314   -4781.6999    9.3828906   0.21556152 
  493700    -284.6681    17.460879   -267.20722    1262.4601    3819.5099    9.5237394   0.23221574 
  493800   -288.21297    16.889793   -271.32317    1221.1694    4358.3431     9.654992   0.16413319 
  493900   -285.84596    17.007122   -268.83884    1229.6525   -2846.8594    9.5028847   0.19299196 
  494000   -285.53243     17.88886   -267.64357    1293.4041   -8183.7153    9.4144128    0.1999568 
  494100   -288.84689     16.45176   -272.39513    1189.4986    1349.3114     9.662168   0.13889602 
  494200   -286.85061    16.085013    -270.7656     1162.982     5171.816    9.6464183   0.21226736 
  494300   -286.20745    18.586212   -267.62124    1343.8243    -12349.79     9.400355   0.18382766 
  494400   -285.95919    16.007494    -269.9517    1157.3772    10593.346    9.6503488    0.1645381 
  494500   -288.44243    16.131407   -272.31102    1166.3364    7988.5203    9.7226548   0.15607978 
  494600   -283.95869    16.698752   -267.25994    1207.3567    13.862783    9.4739877   0.21707324 
  494700   -285.73897    17.081095   -268.65787     1235.001   -16565.229    9.3427944   0.20058746 
  494800   -288.26479    17.266871   -270.99792     1248.433    11633.403    9.7449689    0.1363994 
  494900   -289.35658    16.039683   -273.31689    1159.7045     6817.805    9.7451509   0.13409046 
  495000   -289.00415    14.259575   -274.74457    1030.9988    7868.6112    9.7328731    0.1382106 
  495100   -286.09826    15.962084   -270.13618     1154.094   -4573.2264    9.4889441   0.19825786 
  495200   -286.75749    17.024867   -269.73262    1230.9356     1425.232    9.5691529   0.20695054 
  495300   -286.29827    18.103452   -268.19482    1308.9197    11617.075    9.6833923   0.19242737 
  495400   -284.41099    17.870062   -266.54092     1292.045    -8829.145    9.3720584   0.25092169 
  495500   -280.43961    18.973198   -261.46641    1371.8042   -11750.233    9.1352504   0.31215022 
  495600   -286.38409    18.718003   -267.66609     1353.353   -525.69537    9.5489374   0.20554912 
  495700   -285.98495    17.600642   -268.38431    1272.5654   -1832.8806    9.4861453   0.20896975 
  495800   -286.76831    16.393632   -270.37468    1185.2959    2619.9023    9.6063003   0.16847296 
  495900   -289.44899    17.667809   -271.78118    1277.4216    12198.618    9.7979227   0.13053641 
  496000   -283.47029    16.703436   -266.76686    1207.6954    470.51103    9.4429708   0.23988043 
  496100   -285.83781    17.223709    -268.6141    1245.3122   -9507.4676    9.4321365   0.23637456 
  496200   -288.24497    17.158899   -271.08607    1240.6264   -1311.0897    9.6102724   0.18207279 
  496300   -286.84298    19.031442   -267.81154    1376.0153   -2151.6178    9.5408821   0.18673977 
  496400   -286.20455    19.532748    -266.6718    1412.2609    2294.8949    9.5339625   0.15437881 
  496500   -286.63028     17.60619   -269.02409    1272.9665    1005.5357    9.5699657   0.18543156 
  496600   -287.25466    17.416405   -269.83825    1259.2446   -4447.5188    9.5281603   0.18777846 
  496700   -287.96315    13.988639   -273.97451    1011.4096   -2250.9169     9.614661   0.16597529 
  496800    -287.3724    14.976694    -272.3957    1082.8481   -2522.7624    9.5721096   0.18534244 
  496900   -287.77075    18.406192   -269.36456    1330.8084     3374.992    9.6376727   0.16713442 
  497000   -286.16031    17.953289   -268.20702    1298.0625    5224.4357    9.6027637   0.18978809 
  497100   -284.49116    16.326462   -268.16469    1180.4393   -6313.9405     9.399223   0.18631759 
  497200   -286.50249    14.240316   -272.26218    1029.6063   -682.60874    9.5648659   0.16104678 
  497300   -284.50186    16.039278   -268.46258    1159.6753    10992.047    9.5914059   0.22670065 
  497400    -284.2773    17.945444   -266.33186    1297.4953    521.37883    9.4622421   0.26795506 
  497500   -287.37568    16.156347   -271.21933    1168.1396   -13531.107    9.4609501   0.18345126 
  497600   -288.27835    17.775691   -270.50266    1285.2218   -8587.8907    9.5398788   0.18174751 
  497700   -283.76969     16.83764   -266.93205    1217.3987    17581.269    9.6381285   0.23330404 
  497800   -283.30528    18.448371   -264.85691     1333.858    6995.4976     9.496179   0.21233967 
  497900   -287.07036    16.271666    -270.7987    1176.4775   -8539.7583    9.4926603   0.17864382 
  498000   -285.63977    15.407398   -270.23237     1113.989   -12759.497    9.3922289   0.21048029 
  498100   -287.00711    18.167443   -268.83967    1313.5463   -25024.747     9.316941   0.21991338 
  498200   -283.70976    18.424017   -265.28575    1332.0972    4423.3944    9.4842493   0.27258019 
  498300   -284.92322    16.863771   -268.05945    1219.2879    13859.264    9.6542562   0.23270552 
  498400   -287.61938    17.105102   -270.51428    1236.7367   -1542.9993    9.5976742   0.18087346 
  498500   -286.50489    17.915679   -268.58922    1295.3432     -13541.6    9.3861562   0.17420706 
  498600   -281.92217    17.503596   -264.41857    1265.5487    6515.7466    9.4305106   0.20392147 
  498700   -285.80993    16.660017   -269.14992    1204.5561    11116.355    9.6487503   0.17590196 
  498800      -286.76    17.053171   -269.70683    1232.9819    6157.5778     9.634787   0.17500893 
  498900   -286.75767     17.99834   -268.75933    1301.3198   -16612.926    9.3784285   0.22889326 
  499000   -283.04235    17.371579   -265.67077    1256.0036    103.11045    9.3935668    0.2522744 
  499100   -286.80749    17.376352   -269.43114    1256.3487    7869.1726    9.6464979   0.17665001 
  499200   -285.51117    15.571156   -269.94002     1125.829    755.66593    9.5240687   0.18962395 
  499300   -284.54589    17.021186   -267.52471    1230.6694   -3201.3896    9.4332365   0.23899116 
  499400    -281.7106    18.704915   -263.00568    1352.4067    896.46611    9.3747893   0.26875154 
  499500   -285.71371    17.346084   -268.36763    1254.1603   -5688.8684    9.4468236   0.18860686 
  499600   -286.23863    16.540563   -269.69807    1195.9193   -9283.2581    9.4371812   0.18696546 
  499700   -286.55797    15.891257   -270.66672    1148.9731   -7147.8251    9.4977679   0.23985028 
  499800    -283.5258    17.395754   -266.13004    1257.7515     3657.416    9.4573384   0.24591443 
  499900   -285.90283    17.171672   -268.73116    1241.5499     12.81304    9.5365519   0.19546254 
  500000    -287.8109    17.557021   -270.25388    1269.4115    12709.223    9.7461415   0.16490571 
Loop time of 150.535 on 1 procs for 500000 steps with 108 atoms

Performance: 1434.886 ns/day, 0.017 hours/ns, 3321.495 timesteps/s
100.0% CPU use with 1 MPI tasks x no OpenMP threads

MPI task timing breakdown:
Section |  min time  |  avg time  |  max time  |%varavg| %total
---------------------------------------------------------------
Pair    | 89.707     | 89.707     | 89.707     |   0.0 | 59.59
Neigh   | 5.192      | 5.192      | 5.192      |   0.0 |  3.45
Comm    | 2.5233     | 2.5233     | 2.5233     |   0.0 |  1.68
Output  | 0.1202     | 0.1202     | 0.1202     |   0.0 |  0.08
Modify  | 52.487     | 52.487     | 52.487     |   0.0 | 34.87
Other   |            | 0.5052     |            |       |  0.34

Nlocal:    108 ave 108 max 108 min
Histogram: 1 0 0 0 0 0 0 0 0 0
Nghost:    990 ave 990 max 990 min
Histogram: 1 0 0 0 0 0 0 0 0 0
Neighs:    4897 ave 4897 max 4897 min
Histogram: 1 0 0 0 0 0 0 0 0 0

Total # of neighbors = 4897
Ave neighs/atom = 45.3426
Neighbor list builds = 22600
Dangerous builds = 0
Total wall time: 0:02:30
