LAMMPS (3 Mar 2020)
Reading data file ...
  orthogonal box = (0 0 0) to (17.469 17.469 17.469)
  1 by 1 by 1 MPI processor grid
  reading atoms ...
  217 atoms
  read_data CPU = 0.00100974 secs
Reading potential file library.meam with DATE: 2012-06-29
Reading potential file LiSi.meam with DATE: 2020-11-07
1 atoms in group Li
216 atoms in group Si
Neighbor list info ...
  update every 1 steps, delay 10 steps, check yes
  max neighbors/atom: 2000, page size: 100000
  master list distance cutoff = 6
  ghost atom cutoff = 6
  binsize = 3, bins = 6 6 6
  2 neighbor lists, perpetual/occasional/extra = 2 0 0
  (1) pair meam/c, perpetual
      attributes: full, newton on
      pair build: full/bin/atomonly
      stencil: full/bin/3d
      bin: standard
  (2) pair meam/c, perpetual, half/full from (1)
      attributes: half, newton on
      pair build: halffull/newton
      stencil: none
      bin: none
Setting up Verlet run ...
  Unit style    : metal
  Current step  : 0
  Time step     : 0.003
Per MPI rank memory allocation (min/avg/max) = 8.895 | 8.895 | 8.895 Mbytes
Step Temp E_pair E_mol TotEng Press Volume 
       0         1500   -951.04357            0   -909.16328   -115839.99    5330.9442 
    3200    1516.4134   -950.87091            0   -908.53236   -4134.1384    4627.0443 
Loop time of 2.33749 on 1 procs for 3200 steps with 217 atoms

Performance: 354.842 ns/day, 0.068 hours/ns, 1368.990 timesteps/s
100.0% CPU use with 1 MPI tasks x no OpenMP threads

MPI task timing breakdown:
Section |  min time  |  avg time  |  max time  |%varavg| %total
---------------------------------------------------------------
Pair    | 2.255      | 2.255      | 2.255      |   0.0 | 96.47
Neigh   | 0.032907   | 0.032907   | 0.032907   |   0.0 |  1.41
Comm    | 0.01444    | 0.01444    | 0.01444    |   0.0 |  0.62
Output  | 2.5037e-05 | 2.5037e-05 | 2.5037e-05 |   0.0 |  0.00
Modify  | 0.030069   | 0.030069   | 0.030069   |   0.0 |  1.29
Other   |            | 0.005008   |            |       |  0.21

Nlocal:    217 ave 217 max 217 min
Histogram: 1 0 0 0 0 0 0 0 0 0
Nghost:    957 ave 957 max 957 min
Histogram: 1 0 0 0 0 0 0 0 0 0
Neighs:    4225 ave 4225 max 4225 min
Histogram: 1 0 0 0 0 0 0 0 0 0
FullNghs:  8450 ave 8450 max 8450 min
Histogram: 1 0 0 0 0 0 0 0 0 0

Total # of neighbors = 8450
Ave neighs/atom = 38.9401
Neighbor list builds = 55
Dangerous builds = 1
Setting up Verlet run ...
  Unit style    : metal
  Current step  : 3200
  Time step     : 0.003
Per MPI rank memory allocation (min/avg/max) = 9.665 | 9.665 | 9.665 Mbytes
Step PotEng KinEng TotEng Temp Press Density c_msdli[4] c_msdsi[4] 
    3200   -950.87091    42.338551   -908.53236    1516.4134   -4134.1384    2.1796437            0 6.6298355e-32 
    3300   -951.79786    36.572821   -915.22503    1309.9058    1295.2337    2.1933337  0.077434055  0.096749925 
    3400   -950.27841    43.042535   -907.23588    1541.6275   -1781.7264    2.1835047   0.19993597   0.10658103 
    3500   -946.96095     39.65786   -907.30309    1420.4007    6754.6443    2.1933576    0.3576672   0.11481189 
    3600   -950.23898    37.940215   -912.29876    1358.8809    2914.0973    2.1954344   0.19324887    0.1254853 
    3700   -951.10907    44.149763    -906.9593    1581.2844   -2831.1004    2.1834545   0.38394231  0.088492459 
    3800   -950.09975    45.491891   -904.60786    1629.3546   -2018.8197    2.1770277   0.15083342   0.10405986 
    3900   -949.98133    40.801996   -909.17934    1461.3795   -1100.1238    2.1845446   0.15374978   0.11286655 
    4000   -954.87942    44.978274   -909.90114    1610.9587   -2476.3842    2.1906263  0.069275758   0.10551121 
    4100    -948.2485    48.025491   -900.22301    1720.0989   -2942.9592    2.1728311     1.030729   0.11802448 
    4200   -948.67189    41.917036   -906.75485    1501.3162    4155.2908     2.188869   0.29926259  0.090474512 
    4300   -946.39385    37.418881   -908.97497    1340.2086    3327.7116    2.1847627    0.6339038   0.08789647 
    4400   -947.99967    40.845435   -907.15423    1462.9354   -1489.6757    2.1759302   0.50268417   0.11175479 
    4500   -944.03829     45.19496   -898.84333    1618.7196    -4952.411    2.1623373    4.5287422   0.13628687 
    4600   -948.69031    40.987209    -907.7031    1468.0132    5011.1067    2.1939562     3.434567   0.13187164 
    4700    -951.5099    43.267136   -908.24277    1549.6719    2119.0176    2.1896846    4.2978905   0.12380523 
    4800   -946.13949    40.626342   -905.51315    1455.0882   -4465.2441    2.1678484    3.4415313   0.12624309 
    4900   -944.81252    46.025268   -898.78725    1648.4582   -8806.9531    2.1520669    3.4322709   0.13994005 
    5000   -953.46026    44.960841   -908.49942    1610.3343    5593.2548    2.2053746    5.6351547   0.13418381 
    5100   -949.33737    40.349974    -908.9874    1445.1897    9236.0423    2.2068103    6.1364525   0.12337943 
    5200   -950.50285    40.786877   -909.71597     1460.838   -6935.9702    2.1705561    5.3586887   0.11616465 
    5300   -944.39752     43.57812    -900.8194    1560.8102   -5958.3505     2.156855    5.5621087   0.12087285 
    5400   -948.62295    44.518004   -904.10495    1594.4734    8345.8755    2.2016612    6.3647962   0.13058492 
    5500   -951.96514    43.738373   -908.22676    1566.5499    4922.0744    2.1995545    5.1493302   0.12545431 
    5600   -952.50407    42.095807   -910.40826    1507.7191   -6165.2429    2.1738893    6.2652119   0.12921305 
    5700   -946.02552    41.009727   -905.01579    1468.8197   -5000.7763    2.1661599    5.3487267   0.14716641 
    5800   -947.90113    44.086978   -903.81415    1579.0357    4045.9671    2.1901595    4.9414903   0.14507666 
    5900   -951.69297    42.420622   -909.27235    1519.3528    4298.2918    2.2009548    5.8343768   0.14392981 
    6000   -950.97868    40.783477    -910.1952    1460.7163    -1851.999    2.1823903    4.9364623   0.13621799 
    6100   -949.95816    47.898754   -902.05941    1715.5597   -6171.1132    2.1616464     5.513741   0.11927048 
    6200   -948.53849    41.580463   -906.95802    1489.2614    3282.7305    2.1896315    6.3686775   0.13217761 
    6300   -951.72768    41.871148   -909.85653    1499.6727    3713.9479    2.1978631    6.5025489   0.12048474 
    6400   -949.45254    41.149731   -908.30281    1473.8341    2382.4522    2.1824181    6.4738375   0.11701926 
    6500   -946.65397    46.023508   -900.63046    1648.3952   -6220.5407     2.160865    6.8566878   0.13523049 
    6600   -953.51976    44.089866   -909.42989    1579.1391    399.13403    2.1928751    5.3046026    0.1420826 
    6700   -951.12232    41.395128    -909.7272    1482.6234    2323.6383    2.1957182    6.2549485   0.14828456 
    6800   -951.36472    42.782444   -908.58227     1532.312   -2968.7708    2.1815073    5.9183559   0.15118199 
    6900   -946.82636    45.294289   -901.53207    1622.2772   -4957.5495    2.1647631    5.4642888    0.1517848 
    7000   -949.16744    44.900238    -904.2672    1608.1637   -317.50932    2.1819915    6.0805344   0.13399883 
    7100   -952.22768    43.600412   -908.62726    1561.6087    1957.4438    2.1915627    6.2370097   0.12680488 
    7200   -949.91895    40.378403   -909.54054    1446.2079    2334.6763     2.188798    5.9132201    0.1130896 
    7300   -950.40716    40.737257    -909.6699    1459.0608   -1268.8359    2.1824494    6.5002081   0.13128877 
    7400    -945.0145    45.490298    -899.5242    1629.2975   -4188.0278    2.1615543    6.5445555   0.13051069 
    7500   -951.02793    45.077782   -905.95015    1614.5227    6861.4351    2.2026385    5.9396421   0.12940929 
    7600    -952.0032    42.993331   -909.00987    1539.8652    6208.2719    2.2037167    5.2987952   0.13423579 
    7700   -951.18783    39.785467   -911.40236    1424.9712   -6385.9748    2.1734348    6.0398683    0.1438265 
    7800   -949.34351    46.262015   -903.08149    1656.9376   -8965.1216    2.1594855    5.7809946   0.15377728 
    7900   -948.21335    42.832588   -905.38077     1534.108    7926.2321    2.2019456    5.1162726   0.14552954 
    8000   -949.65402    40.339232   -909.31479     1444.805    7410.6512    2.2051013    5.8471868   0.14772666 
    8100   -952.73767    42.088983   -910.64869    1507.4747    -7350.776     2.178405    6.5746907   0.12836697 
    8200   -942.98343    41.519048   -901.46438    1487.0617    -5390.377    2.1595962    6.4205518   0.14294652 
    8300   -950.33645    42.601718   -907.73473    1525.8391    4438.0552    2.2002566    7.0848964   0.13003769 
    8400   -951.44589    41.752277   -909.69361    1495.4151    6241.0832    2.2077265    5.7763914   0.12658009 
    8500   -950.55173    41.641615   -908.91012    1491.4516   -3187.5428    2.1809147    4.5425216   0.13617201 
    8600   -942.92274    42.257266   -900.66548     1513.502   -7549.2514    2.1515768    5.3912719   0.15626298 
    8700   -953.35333    43.593917   -909.75941     1561.376    3882.8783    2.2033136     5.291131   0.13560437 
    8800   -951.59725    42.043363   -909.55388    1505.8408    7856.8799    2.2096432    5.6198749   0.12524949 
    8900   -949.02661    40.577318   -908.44929    1453.3324   -2370.0914    2.1790857    6.4243241   0.14591968 
    9000   -946.92728    45.759632   -901.16765    1638.9441    -15572.11    2.1376194    5.7061661   0.13701609 
    9100   -947.05072    39.944367   -907.10635    1430.6624    2738.6555    2.1875218    5.4171306   0.14111573 
    9200    -950.9268    42.884174   -908.04262    1535.9556    23092.173     2.242727    7.0748801   0.12548945 
    9300   -950.43084     41.94203   -908.48881    1502.2114    1713.0112    2.1912394    6.9796313    0.1169732 
    9400   -950.47455     40.40724   -910.06731    1447.2408   -17379.242    2.1445793    4.5198654   0.13485985 
    9500   -955.00588    37.457209   -917.54867    1341.5814   -4904.1457    2.1896677    4.5828102   0.12845345 
    9600   -947.56882    37.264516   -910.30431    1334.6798    11096.166    2.2114264    4.4646962   0.15083194 
    9700   -950.42267    42.086718   -908.33595    1507.3936    7327.2592    2.2032324    6.2761526   0.14332681 
    9800   -952.30514     42.12681   -910.17833    1508.8296   -7698.7473    2.1723682    5.7879103   0.14603196 
    9900   -955.46763    39.367487   -916.10014    1410.0006   -7619.1554     2.178279     6.563845   0.12701197 
   10000   -955.31296      41.1916   -914.12136    1475.3337    3329.1844    2.2086647    5.3777451   0.12827231 
   10100   -949.03848    40.399743   -908.63873    1446.9723    10385.662    2.2109245    6.6772287   0.13457155 
   10200   -951.92247      42.8517   -909.07077    1534.7925   -3593.1723    2.1808906     5.639467    0.1229052 
   10300   -951.62708    43.306724   -908.32035    1551.0898   -9941.1628    2.1601374    6.0090629   0.13946634 
   10400   -955.68267    37.580943   -918.10173    1346.0131    2581.7574    2.2075398    5.5154171   0.12725221 
   10500   -952.56697    39.035623   -913.53135    1398.1145    7784.8491     2.208728    4.8217221   0.13429097 
   10600   -952.80196    43.156428   -909.64553    1545.7067   -540.93915    2.1871134    4.8865895   0.13363455 
   10700   -949.71748    41.907423   -907.81006    1500.9719   -4229.5137    2.1722983     6.018859   0.12479421 
   10800   -952.53062    39.026524    -913.5041    1397.7886   -721.04737    2.1899359    6.2427991   0.13930955 
   10900   -953.66188    39.866488   -913.79539     1427.873    4818.5999    2.2085384    7.0863805   0.12323204 
   11000   -951.29428    43.243663   -908.05062    1548.8312    3582.1168    2.1990162    5.7785089   0.14584829 
   11100   -952.75427    43.391371    -909.3629    1554.1216   -6773.3148    2.1715708    7.6547783   0.14125232 
   11200   -956.44741    39.507644   -916.93976    1415.0205   -9394.8785    2.1791174    5.8683792   0.11932812 
   11300   -954.16178    43.733843   -910.42794    1566.3877    6408.3486    2.2080389    5.8491127   0.13984816 
   11400   -954.32391    47.494808    -906.8291    1701.0918    12628.781    2.2275066    5.6847904    0.1351687 
   11500   -950.93381    39.340818   -911.59299    1409.0454   -4857.3323    2.1786219    4.7729376   0.14160547 
   11600   -948.78316    34.188675   -914.59449    1224.5144   -12424.158     2.155515    4.9346976   0.14538317 
   11700   -950.19659    44.030699   -906.16589      1577.02    493.34186    2.1863186    6.7239631   0.14089014 
   11800   -950.69667    43.605589   -907.09108     1561.794    13016.547    2.2196073    5.9296395   0.12867348 
   11900   -951.85656    41.002564     -910.854    1468.5632    1721.1113    2.1983681    6.5800446   0.14354806 
   12000   -949.80732    43.907101   -905.90022    1572.5931   -6927.7784    2.1668432    6.4782204    0.1483318 
   12100   -948.69259    44.658286   -904.03431    1599.4979   -4459.9134    2.1704484    5.2328838   0.13516468 
   12200    -953.0859    43.337509   -909.74839    1552.1924     2497.372    2.1988579    5.7958231   0.14220956 
   12300   -952.35594    42.505859   -909.85008    1522.4057    3890.5029    2.2018695    4.3497307   0.13224394 
   12400   -946.17402    44.874356   -901.29967    1607.2367   -3064.7164    2.1677837    4.3514234   0.15212111 
   12500   -949.80687    40.994193   -908.81268    1468.2633    -3827.471    2.1787515    5.4283412   0.14469954 
   12600   -953.35309    43.084212   -910.26888    1543.1202   -1521.2017    2.1885717    6.1653575   0.12852666 
   12700   -952.23217    46.364327   -905.86785     1660.602    4266.0099    2.1977692    5.1542189   0.12437042 
   12800   -947.36225    44.875099   -902.48715    1607.2633    1108.3841    2.1817974    5.4759918    0.1248683 
   12900   -952.57097    41.078278   -911.49269    1471.2749   -3804.8889    2.1829127    6.2049801   0.12741725 
   13000   -950.62155    40.869922   -909.75163    1463.8124    -1609.646    2.1847706    4.2705895   0.14401309 
   13100   -952.45653    46.403083   -906.05345    1661.9901    4836.3314     2.200883    6.3944323    0.1543553 
   13200   -953.67472     41.82134   -911.85338    1497.8888    4399.5026    2.2020927    4.8088751   0.12999491 
   13300   -955.13875    41.838316   -913.30043    1498.4968    -11768.96    2.1690929    4.7955905   0.13031974 
   13400   -949.24318    40.092996   -909.15019    1435.9857   -4628.1518    2.1735394    4.9265382   0.12980581 
   13500   -952.54673    46.523836   -906.02289    1666.3151    7799.9483    2.2106164    4.9853339   0.13251142 
   13600   -955.33165    40.975219   -914.35643    1467.5837    8469.7817    2.2199129    6.0372714   0.13316558 
   13700   -951.86847    41.030716   -910.83776    1469.5715   -9930.1013    2.1698465    6.9932431   0.13465686 
   13800   -951.61268    43.878485    -907.7342    1571.5682   -8637.1839    2.1656693    4.7540885   0.13007907 
   13900   -952.59771    42.104911    -910.4928    1508.0452    3191.8393    2.2007919    6.8109788   0.13872082 
   14000   -955.85938     40.52959   -915.32979    1451.6229    7938.4255    2.2208703    4.4175358   0.13751203 
   14100   -948.51556    42.040839   -906.47472    1505.7504   -1873.2649    2.1774489    4.9669012   0.14958293 
   14200   -948.10727    39.109548   -908.99772    1400.7622   -3213.3321    2.1759963     5.999294   0.14033963 
   14300   -954.58548    41.891387    -912.6941    1500.3976    710.00193    2.1982857    5.5507597   0.14133851 
   14400   -951.04691    44.458001   -906.58891    1592.3244    5455.1434    2.2033529    4.7756251   0.14502723 
   14500   -952.96345    47.049976   -905.91347    1685.1595   -1585.8532    2.1880767    6.0391009    0.1364176 
   14600   -955.40231    44.808532   -910.59378    1604.8791   -9036.6929    2.1752764    6.4054545   0.13335193 
   14700    -951.2554    42.052702    -909.2027    1506.1753   -2915.9689    2.1845829    6.4135861   0.13981931 
   14800   -945.93944    44.113295   -901.82615    1579.9782    5293.1553      2.18926    6.2666831   0.14147645 
   14900    -952.7862    43.471784   -909.31442    1557.0017     1786.164    2.2006846    4.7453067   0.13658619 
   15000   -951.00507    40.579357   -910.42571    1453.4054   -1149.2281    2.1872432    5.1534661   0.14688131 
   15100   -947.23241    44.204295   -903.02811    1583.2376    -6485.704    2.1686292    5.4135819   0.15874016 
   15200   -949.44936    41.635046   -907.81431    1491.2163     1528.407    2.1917544    6.0493319   0.16104889 
   15300   -952.24192     41.91037   -910.33155    1501.0775    3456.4257    2.2017198    5.7384438    0.1425176 
   15400   -949.36418    41.790344   -907.57384    1496.7786    -335.2263    2.1881089    5.3053324   0.14219351 
   15500   -947.62826     44.04273   -903.58553    1577.4509   -9262.4737    2.1556951    6.2190269   0.14303771 
   15600    -954.5717    40.980265   -913.59143    1467.7645    1495.2123     2.201552     6.620049   0.13031963 
   15700   -950.99997    41.324086   -909.67588    1480.0789    13255.871    2.2220592    6.9512267   0.14195137 
   15800   -948.38824    41.516363   -906.87188    1486.9656    1912.8301    2.1890941    5.8298366   0.13557976 
   15900    -951.6728    43.868066   -907.80473     1571.195   -13072.621    2.1545835     3.508917   0.12393063 
   16000   -953.68368    39.192652   -914.49103    1403.7386   -1057.5752     2.192464    5.0332874   0.13301034 
   16100   -948.77237    40.948742   -907.82363    1466.6354    12130.201    2.2138125    5.0451482   0.16435677 
   16200   -949.37735    41.740691   -907.63666    1495.0002    5100.3391    2.1978311     5.308445   0.14470604 
   16300     -953.579    38.277148   -915.30185    1370.9486   -8852.0178    2.1773906    5.3732748   0.13270434 
   16400   -950.67787    40.205845   -910.47202    1440.0276   -5764.5349    2.1719311    5.3632299   0.13357334 
   16500   -949.93533    43.011672   -906.92366    1540.5221    5419.8229    2.1998818    7.0172932   0.14015465 
   16600   -953.61281    41.891473   -911.72134    1500.4006    4517.9802    2.2053663     7.604329   0.14333233 
   16700   -953.85961    39.836648   -914.02297    1426.8043   -3420.3524    2.1861501    5.7197417   0.11993563 
   16800   -948.02059    42.574846   -905.44575    1524.8766   -8650.5091    2.1589849     5.508913   0.13250253 
   16900   -953.64955    44.293696   -909.35585    1586.4396    1384.0911    2.1930082    6.0890287   0.12298643 
   17000   -950.82464    39.832023   -910.99261    1426.6386    9993.4532    2.2123659    6.3461052   0.14585281 
   17100   -945.71934    43.569016   -902.15032    1560.4841    846.67293    2.1771236    5.8433873   0.15667416 
   17200   -947.33827    39.304952   -908.03332    1407.7608    -2744.153    2.1761349    4.9528261   0.14782354 
   17300   -951.05471    40.220955   -910.83375    1440.5687   -385.08288    2.1878148    4.4698132   0.12249847 
   17400   -948.07667    42.577663     -905.499    1524.9775     5736.737    2.1940336    6.5951248   0.13478941 
   17500   -949.58835    44.705307   -904.88304     1601.182    -728.9477    2.1837916    5.7841811   0.14045976 
   17600   -950.13708    38.573776    -911.5633    1381.5728   -1831.6925    2.1843382    5.7514375   0.13036382 
   17700   -948.74796    40.700008   -908.04795    1457.7267    702.58776    2.1854024    5.3828576   0.12446714 
   17800   -946.79447    42.701161   -904.09331    1529.4007    1836.5008     2.180277    4.4782808   0.12143778 
   17900   -953.85356    40.372325   -913.48123    1445.9903    3081.7948    2.2006482    4.9518463   0.12648399 
   18000   -949.33135    39.127725   -910.20363    1401.4132   -689.31203    2.1814775    4.8973476   0.13276286 
   18100   -945.63092    38.860416    -906.7705    1391.8392    729.96483    2.1750556    4.8077701   0.12735724 
   18200   -953.75717     39.86489   -913.89228    1427.8158    1838.3371    2.1979024    4.4087994   0.12378537 
   18300   -953.89298     41.34628    -912.5467    1480.8738   -423.21054    2.1959506    5.3908646   0.12790625 
   18400   -952.61032    45.193377   -907.41694    1618.6629   -1097.2418    2.1852356    5.6945598   0.13138151 
   18500   -952.35705    41.562531   -910.79451    1488.6191   -1864.9099    2.1848752    5.4636135   0.13675065 
   18600   -952.58037     37.39837     -915.182     1339.474    2924.3302    2.1982333    6.5946792   0.13725893 
   18700   -950.23376    43.186373   -907.04738    1546.7793    995.77852    2.1853543    5.7862154   0.14013485 
   18800   -948.29843      39.1936   -909.10483    1403.7726    3441.0429    2.1875689    5.5141971    0.1232664 
   18900   -951.42819     37.16379    -914.2644    1331.0722   -510.92646    2.1909754    5.7344646   0.14752671 
   19000    -948.5117    41.618388   -906.89331    1490.6197   -176.00718    2.1828948    5.3320867   0.14958834 
   19100   -946.85755    40.190691   -906.66686    1439.4848    8014.0725    2.1971302    7.5213127   0.14219321 
   19200   -953.21266    42.256023   -910.95663    1513.4575   -1789.1352    2.1883924    6.1895662   0.12983925 
   19300   -952.83309    43.376864   -909.45622     1553.602   -7092.2347     2.171774    5.4189639   0.11893049 
   19400   -945.89502    42.593197   -903.30182    1525.5338   -1511.2403    2.1721005    5.5746675   0.14918198 
   19500   -951.01097    41.547906   -909.46306    1488.0953    6931.8332    2.2036503    5.5645943    0.1234909 
   19600   -953.24933    43.002054   -910.24727    1540.1776    3461.3521    2.2016298    7.5143133   0.12901997 
   19700   -947.27037    44.935193   -902.33518    1609.4157   -7420.3239    2.1602634    6.1720601   0.14525616 
   19800   -953.70893    44.686424    -909.0225    1600.5057   -7910.9641    2.1713493    6.6600311   0.12521053 
   19900   -949.97081    39.498537   -910.47227    1414.6944     2560.003    2.1943322     5.568269   0.14011338 
   20000   -948.17982    41.652866   -906.52695    1491.8546    9742.6672    2.2027693    5.9122524   0.15620366 
   20100   -948.15288    45.716236   -902.43664    1637.3898   -2030.3006    2.1728414    4.6709474   0.13838164 
   20200   -951.72819    39.907522   -911.82067    1429.3427   -5374.2347    2.1775515    6.0832994   0.11975178 
   20300   -950.42257    40.368491   -910.05408    1445.8529     57.45013    2.1861289    5.6115126   0.12959128 
   20400   -950.64767    44.056204   -906.59147    1577.9335    7050.2961    2.2008724    5.6741555   0.13516905 
   20500    -950.4285    42.139946   -908.28856       1509.3     887.7408    2.1872947    6.0821103   0.13157607 
   20600   -953.25206     39.03454   -914.21752    1398.0757   -9295.4419    2.1697903    5.2713642    0.1294373 
   20700   -955.33231    45.175694   -910.15662    1618.0295   -3277.9102     2.183586    5.1395589   0.13085688 
   20800   -948.04875    42.195046    -905.8537    1511.2735    14422.296    2.2151921    5.7197253   0.15230669 
   20900   -952.62466    39.888457    -912.7362    1428.6599    4084.4411     2.199584     5.164264   0.13648215 
   21000   -952.05659    38.815278   -913.24131    1390.2225   -13197.207    2.1584116    4.2746259   0.13437214 
   21100   -950.04663    41.984262   -908.06236     1503.724   -6086.3301    2.1692533     6.088517    0.1246577 
   21200   -953.38991    44.775086   -908.61483    1603.6812    6509.7766    2.2070331    7.0393785   0.13490444 
   21300   -955.82449    40.373942   -915.45055    1446.0482    6241.5727    2.2131948    5.7625248    0.1277236 
   21400   -949.35085    42.173181   -907.17767    1510.4904   -5067.7305    2.1683679    5.6651052   0.13368212 
   21500   -949.84296    41.728166    -908.1148    1494.5516   -2116.9271    2.1766701    5.7636353    0.1417918 
   21600    -953.5717    41.947385   -911.62432    1502.4032    3864.8916    2.2004536    5.8223152   0.11990993 
   21700   -953.74689    41.018878   -912.72801    1469.1475    4550.5105    2.2035577    6.9238591   0.12613314 
   21800   -948.84868    44.065432   -904.78325     1578.264    -7124.019    2.1627217    5.0395709   0.14231638 
   21900   -954.58254    44.911901   -909.67064    1608.5814   -7824.2486    2.1739052    4.9943543   0.13655564 
   22000   -952.48061    41.880047   -910.60056    1499.9914    4692.7708    2.1993019    5.8597977   0.14206954 
   22100   -950.20443    48.316146   -901.88828    1730.5091    3478.9958    2.1896716     5.822838   0.12618385 
   22200   -951.33667    44.132408   -907.20426    1580.6628   -1020.4019    2.1814694    8.1187398   0.12259656 
   22300   -953.24758    42.032373   -911.21521    1505.4472   -6337.0389    2.1750425    6.5215346   0.13613804 
   22400   -949.47331    43.184061   -906.28925    1546.6965    -779.3654    2.1805471    6.1813415   0.12232801 
   22500   -946.48028    42.970581    -903.5097    1539.0504    4794.9706    2.1884425    6.3496012   0.12950772 
   22600   -952.06623    41.007729    -911.0585    1468.7481    2222.6553    2.1969855    6.2591187   0.12864695 
   22700   -950.17337    41.581915   -908.59146    1489.3134   -1218.9466    2.1825421    5.4537369   0.13614243 
   22800   -948.91997    44.892163   -904.02781    1607.8745   -5791.5777     2.167586    5.5650061   0.14492285 
   22900   -953.74063    40.336087   -913.40455    1444.6924    5469.2356    2.2052991    6.1991238   0.14126183 
   23000   -953.54319    43.232923   -910.31026    1548.4465    5599.8808    2.2047266    6.7496116   0.13026793 
   23100   -949.87813    42.234737   -907.64339    1512.6951   -5217.9422    2.1694583    6.3575643   0.12886289 
   23200   -949.14805    41.598489   -907.54956     1489.907   -10020.257    2.1567804    6.2141035   0.13421084 
   23300    -954.4702    39.351166   -915.11903     1409.416    7151.9605    2.2145852    6.1422505    0.1275729 
   23400   -950.73072    42.743836   -907.98689    1530.9292    11703.932    2.2162978    4.4859021   0.12921507 
   23500   -947.43391    39.051677   -908.38224    1398.6894   -1589.6376     2.176619     7.003399   0.12565113 
   23600   -953.80108    39.828581    -913.9725    1426.5153   -11559.528    2.1664227    4.8605995   0.12475555 
   23700   -951.82072    39.013453   -912.80727    1397.3204    1855.6152    2.1967052    5.6341732   0.12508768 
   23800   -948.20756    41.565851   -906.64171     1488.738    11570.232    2.2084282    5.0732054   0.13381765 
   23900   -954.73294    44.478362   -910.25458    1593.0536   -2712.5103    2.1875081    5.5919223   0.12827817 
   24000   -953.53065    38.385138   -915.14552    1374.8164   -8248.9483    2.1738927    6.1369271   0.12256488 
   24100   -949.93319    41.208265   -908.72493    1475.9306    770.73669    2.1879166    5.9094113   0.14148745 
   24200   -950.98159    43.888512   -907.09308    1571.9273    9963.1014    2.2099317    5.7073264   0.13913027 
   24300   -951.97439    41.959254   -910.01513    1502.8283    2400.1821    2.1924018    5.5381445   0.13085901 
   24400   -953.00904    42.678305   -910.33074    1528.5821   -7693.1499    2.1729959    6.9886337   0.13602965 
   24500   -949.36504    47.512477   -901.85257    1701.7246   -8601.8859    2.1624124    5.2820864   0.12550075 
   24600   -949.18423    40.844523    -908.3397    1462.9027    7539.0127    2.2012074    5.5878102   0.12597253 
   24700   -952.82599    42.625068   -910.20092    1526.6753     4829.912    2.2033981    5.1432935   0.12343496 
   24800   -947.10479    42.271317   -904.83348    1514.0053   -1807.5942    2.1760306    4.3877541   0.13720608 
   24900   -948.91589    44.079205   -904.83668    1578.7573   -5926.8078    2.1679934    5.3621477   0.13016016 
   25000    -952.6081    42.009741   -910.59836    1504.6366    221.53881    2.1913076    7.3298767   0.12565927 
   25100   -950.43348    42.487957   -907.94552    1521.7645    4737.3855    2.1987311    6.1384226   0.13470878 
   25200   -946.09024    44.009091   -902.08115     1576.246    1703.2933    2.1805259    4.9291725   0.14132675 
   25300    -953.2128    41.820666   -911.39213    1497.8646   -403.03078     2.191493    6.3080387   0.13467125 
   25400   -949.11599    38.916871   -910.19912    1393.8612   -1342.2643    2.1846965     4.446681    0.1441342 
   25500   -951.10196    44.397461    -906.7045    1590.1561   -311.01563    2.1842261    5.6150433   0.12959273 
   25600   -951.31926    43.387246   -907.93201    1553.9738   -492.03023    2.1871795    5.2647848   0.12356919 
   25700     -952.661    38.758862   -913.90213    1388.2019    3777.8443    2.2024196    6.0197544   0.12099395 
   25800   -948.27709     39.01025   -909.26684    1397.2057    3392.5252    2.1934411    6.4403627   0.13543901 
   25900   -947.87869     40.59769     -907.281     1454.062    1085.8586    2.1823287      4.96276   0.13190729 
   26000   -953.79855    38.524509   -915.27404    1379.8082   -2824.9099    2.1890159    6.3961659    0.1252383 
   26100   -951.84893    40.019219   -911.82971    1433.3433   -1362.9201    2.1869753    5.7480934   0.14524399 
   26200   -948.88021    41.531087   -907.34912    1487.4929    5351.7115    2.1993184    4.3262505   0.14971761 
   26300   -950.77758    39.799195   -910.97838    1425.4628    4292.0753    2.1987026    5.1571281   0.14123567 
   26400   -955.18555    38.686943   -916.49861     1385.626   -8543.3694     2.178164    4.7015844   0.14070381 
   26500   -946.82756    38.390477   -908.43708    1375.0077   -7576.8669    2.1597683    4.9500315   0.12832044 
   26600   -951.50945    43.333721   -908.17573    1552.0567    9599.9079     2.209607     5.022794   0.13151172 
   26700   -952.40638    39.829902   -912.57648    1426.5627    13946.607    2.2263072    5.7501322   0.12838712 
   26800   -951.15096    46.249707   -904.90126    1656.4968   -8239.2136    2.1653732    5.7862248   0.11791515 
   26900   -947.33805     40.96111   -906.37694    1467.0784   -7906.3988      2.15783     5.874741   0.13526769 
   27000   -952.85375    42.824147    -910.0296    1533.8056    2566.3745    2.1935566    4.3953788   0.13656817 
   27100   -952.80318     41.67126   -911.13192    1492.5134    8599.4535    2.2119518    5.6893484   0.13477216 
   27200   -947.61262    45.358756   -902.25387    1624.5862   -4214.3546    2.1676053    5.3383533   0.15222613 
   27300   -953.04099    43.854592   -909.18639    1570.7125   -6258.8305    2.1725739    4.3818424   0.13371421 
   27400   -952.98437    42.471528   -910.51284    1521.1761    532.13302     2.192852    5.4220593   0.12917726 
   27500   -946.73832    43.106926   -903.63139    1543.9338    6777.4587    2.1960724    5.0141411   0.15132038 
   27600   -949.28175    42.236776   -907.04497    1512.7681   -956.77463    2.1842809    4.4536462   0.13958764 
   27700   -952.54328    40.942797   -911.60048    1466.4225   -8384.7087    2.1724301    4.6488232   0.13225573 
   27800   -950.82052    43.960597   -906.85992    1574.5092   -1847.6005    2.1816508    6.0367485   0.12812777 
   27900   -953.34509    49.323775   -904.02132    1766.5988    2821.6286    2.1958494    6.4532322   0.12504466 
   28000   -953.80302    41.369169   -912.43385    1481.6936    4358.8868    2.2049169    6.0138297   0.13033687 
   28100   -949.70595    40.649094   -909.05686    1455.9031   -6199.3398    2.1726858     5.923849   0.14243113 
   28200   -951.64178    45.028643   -906.61313    1612.7627   -8726.8635    2.1669429    5.2723462   0.14304825 
   28300   -953.54668    38.310344   -915.23633    1372.1376    6785.0573     2.212426    4.4029773   0.14376397 
   28400   -950.99173    41.381073   -909.61066      1482.12    8776.1244     2.210937    4.5298909   0.14556796 
   28500   -948.92873    41.539786   -907.38895    1487.8045    -6892.841    2.1634214    5.0096094   0.14219793 
   28600   -951.21867    39.410342   -911.80833    1411.5355   -21486.718    2.1362844    4.6397744   0.12625871 
   28700   -954.18506    42.514055   -911.67101    1522.6993    5924.4413    2.2073093    6.0006358   0.12292686 
   28800   -950.47009    47.138059   -903.33203    1688.3143      17162.3    2.2268263     6.245015   0.14958464 
   28900   -949.74489    40.632828   -909.11207    1455.3205     -775.869    2.1850406    5.4312712   0.13812283 
   29000   -953.60777    41.377211   -912.23056    1481.9817   -11412.868    2.1628217    5.3100158   0.13090378 
   29100   -949.27014    44.853983   -904.41616     1606.507   -2485.0318    2.1750376    4.7353439   0.13259557 
   29200   -946.87945    40.278457   -906.60099    1442.6283     12343.93    2.2093968    4.4581839    0.1409757 
   29300   -951.53761     40.70146   -910.83615    1457.7787    1954.9249    2.1951674    6.2263801   0.15098796 
   29400   -948.44616    41.317882   -907.12828    1479.8567   -7175.7566    2.1645569    4.9285874   0.16176263 
   29500   -948.99887    45.958099   -903.04077    1646.0524   -5491.5501    2.1670923    6.1157994    0.1543564 
   29600   -954.33558     42.79701   -911.53857    1532.8337     8965.119     2.216734    5.6152081   0.12964545 
   29700   -949.69773    41.123151   -908.57457    1472.8821    5334.6418    2.1988558    5.9193709   0.14165204 
   29800   -946.91895    40.779974   -906.13898    1460.5908   -7059.2837    2.1627136    5.5845532   0.13705931 
   29900   -954.22014    39.122847    -915.0973    1401.2385   -5333.0064    2.1859206    5.9104729   0.13656284 
   30000   -950.83961    40.659581   -910.18003    1456.2787    3565.6243    2.1988095    6.0860119   0.13853825 
   30100   -949.90977    43.386089   -906.52368    1553.9324    4504.8853    2.1964213    5.8893818   0.13379737 
   30200   -954.78104    41.577257   -913.20378    1489.1466   -3180.4158    2.1879529    7.1596055   0.13299384 
   30300   -952.14604    39.832351   -912.31369    1426.6504   -6068.9148    2.1783598    5.7231315   0.14175149 
   30400   -948.62214    41.763187   -906.85895    1495.8059    3021.5695    2.1896563     6.685238   0.16502621 
   30500    -953.6385    42.972644   -910.66585    1539.1243    6745.8676    2.2104169    6.3382623   0.14640105 
   30600   -952.98039    38.267579   -914.71281    1370.6059     1654.703    2.1977318    5.3533908   0.13024307 
   30700   -949.59242    43.462443   -906.12998    1556.6671   -14724.744    2.1451633    4.6353688   0.14483402 
   30800   -952.04834    42.210038   -909.83831    1511.8105   -4833.4327     2.178553     5.567989   0.12961337 
   30900   -954.04472    43.636619    -910.4081    1562.9054    18271.368    2.2390162    5.6330213   0.13710821 
   31000   -948.35924    46.079475   -902.27976    1650.3997    5871.0465     2.195466    5.8850906   0.12956982 
   31100   -948.48027    40.581021   -907.89925     1453.465   -10374.966    2.1585765    5.2527379   0.11159436 
   31200   -951.14675    40.616843   -910.52991     1454.748   -5949.7763    2.1716942    8.1918615   0.16044953 
   31300   -948.16484    44.982637   -903.18221    1611.1149    4387.7917    2.1955592    7.3347401   0.17007052 
   31400   -947.60605    40.365283   -907.24076    1445.7381    5350.0742    2.1978663    10.902632   0.18556274 
   31500   -949.11109    37.894078   -911.21701    1357.2284   -2930.5493    2.1824407    11.955075   0.18429455 
   31600   -949.13179    44.429708   -904.70208     1591.311   -5424.0572    2.1690159    20.198151   0.17578796 
   31700   -950.42238    41.596503   -908.82588    1489.8359    1059.0763    2.1924922    22.770957   0.16663864 
   31800   -951.39177     40.22236   -911.16941    1440.6191    3302.2798    2.2006225    22.509364   0.15398788 
   31900   -949.02077    43.931915   -905.08886    1573.4819   -2914.9112    2.1758678    18.823272   0.17133021 
   32000   -949.08519    40.300844   -908.78435    1443.4301   -5047.5552    2.1749536    19.714454   0.17630912 
   32100   -951.01781    39.090089   -911.92772    1400.0652    2500.8728    2.1961169    19.859222   0.17834843 
   32200   -949.40465    44.515094   -904.88956    1594.3692    6238.4277    2.1983151    20.988151   0.15201617 
   32300   -951.55118    44.080902   -907.47028     1578.818    1724.3922    2.1932029    30.044582   0.15987334 
   32400   -949.96038    36.677278    -913.2831    1313.6471   -2411.0748    2.1846308    29.574628   0.16447947 
   32500    -947.9537    41.759959   -906.19374    1495.6903   -3974.2803    2.1707467    21.164545   0.15881639 
   32600   -951.65148    42.083433   -909.56805     1507.276    4745.4454     2.202588    21.323882   0.15103454 
   32700   -955.89142    43.400367   -912.49105    1554.4437    6051.2107    2.2152072    20.471893   0.14421489 
   32800   -948.24959    43.278013   -904.97158    1550.0615   -2594.3007    2.1713291    20.087352   0.13566268 
   32900   -949.98864    40.672902   -909.31574    1456.7558   -9119.8599    2.1645257    19.665872   0.13748055 
   33000   -953.58783    41.368972   -912.21886    1481.6865    590.20887    2.1976242    20.199574   0.13734247 
   33100   -948.73939     44.91024   -903.82915    1608.5219    10109.619    2.2072431    18.827583   0.13981845 
   33200   -951.97999    43.208879   -908.77111    1547.5853    1903.1584    2.1964126    20.168759   0.15484209 
   33300   -954.36347    41.619263   -912.74421    1490.6511   -10248.092     2.168156    17.821138   0.13897107 
   33400   -949.28435    43.462268   -905.82208    1556.6608   -3521.4239    2.1760212    20.724427   0.14438475 
   33500   -950.55267    40.848412   -909.70426     1463.042    10004.024    2.2139192    21.541123   0.15605348 
   33600   -955.19395    42.483469   -912.71048    1521.6038    3300.7467    2.2078626    21.968561   0.15690814 
   33700   -951.52222    45.272774   -906.24944    1621.5066   -7642.0761    2.1701733    20.246917   0.15960677 
   33800   -952.72704    43.154457   -909.57258    1545.6361   -6537.3725    2.1752408    18.996463    0.1501444 
   33900   -955.96217    43.025434   -912.93674     1541.015    976.87043    2.2029093    18.281221   0.12913856 
   34000   -950.75983    45.483269   -905.27656    1629.0458    2498.8303    2.1933388    18.802733   0.13120773 
   34100   -951.71925    41.617863   -910.10138    1490.6009   -691.15206    2.1878956    19.678459   0.14199273 
   34200   -949.72575    36.525061   -913.20069    1308.1952   -127.68496    2.1867967    21.544554    0.1380781 
   34300   -947.54984    42.473299   -905.07654    1521.2396   -297.32512    2.1781374    20.315387   0.13999873 
   34400   -950.80827    40.838542   -909.96973    1462.6885    2793.0697    2.1971851    19.761691   0.13673693 
   34500   -953.75099    41.479713   -912.27127    1485.6529    191.03569     2.197723    22.356907   0.14329008 
   34600   -949.08053    44.686884   -904.39365    1600.5221   -3189.3166    2.1737932    21.623312   0.15104864 
   34700   -953.07697    42.390129   -910.68685    1518.2607   -989.62686    2.1879876    22.619249   0.15256301 
   34800   -949.10423    38.095447   -911.00878    1364.4407     6011.393    2.2025821    19.171009   0.15667508 
   34900   -949.36839    45.806641   -903.56175    1640.6277    1235.8901     2.187061    18.779977   0.14582141 
   35000   -953.60387    43.094635   -910.50924    1543.4935   -5770.5109    2.1775526    19.755072   0.12557209 
   35100   -953.14427    42.067622   -911.07665    1506.7097   -8278.5587    2.1735305    21.637199   0.12425334 
   35200   -949.59338    45.185441   -904.40794    1618.3786    5842.9694    2.1969891    18.888465   0.13979817 
   35300   -952.74566    41.566314   -911.17934    1488.7546    11097.556    2.2212218    19.922462   0.13464162 
   35400    -951.9348    40.256135   -911.67866    1441.8288   -3485.5656    2.1797487     21.75949   0.13626506 
   35500   -948.66984    42.266208   -906.40363    1513.8223   -12473.603    2.1495838    21.390775    0.1485708 
   35600   -955.16743    42.956875   -912.21056    1538.5595   -1596.0218    2.1920203    21.143517   0.13419608 
   35700   -955.40937    43.680956   -911.72841    1564.4934     9667.211    2.2205785    20.516583    0.1349151 
   35800   -949.13857    43.778038   -905.36053    1567.9706    3616.0525    2.1874715    19.659492   0.15387466 
   35900   -953.11446    41.936088   -911.17838    1501.9986       -10378    2.1665592     19.66011    0.1430631 
   36000   -951.25952    39.276911   -911.98261    1406.7565   -3047.8094    2.1813934    21.142217   0.14452824 
   36100   -947.58696    43.303096   -904.28387    1550.9599    4841.5719    2.1906162    19.134598   0.14217639 
   36200   -948.90358    38.808468   -910.09511    1389.9786    5351.7035    2.1989828     21.98217   0.13507723 
   36300   -952.53381    40.329815     -912.204    1444.4677    -2992.845    2.1860756     18.79236   0.14045384 
   36400   -948.38898     44.29184   -904.09714    1586.3731     -7809.05    2.1641354    21.267263   0.14962546 
   36500    -951.6856     41.16327   -910.52233    1474.3191    967.60507    2.1929174    23.609068   0.15064972 
   36600   -951.31367    40.143189   -911.17049    1437.7834    5526.2084    2.2022377    18.700185   0.14524697 
   36700   -947.02106    42.930416   -904.09064    1537.6118   -1051.8267    2.1768283     18.41796   0.15739211 
   36800   -952.51983    41.798529    -910.7213    1497.0717   -4320.5604    2.1796298    17.843916   0.14800267 
   36900   -950.64435    39.318904   -911.32544    1408.2605    -1605.683    2.1835113    18.690939   0.14724895 
   37000   -944.31465    39.662963   -904.65169    1420.5835    6246.3017    2.1907491    21.513526   0.15843737 
   37100   -950.23588    38.904435   -911.33144    1393.4158    6758.7455    2.2029945    22.828233   0.13617041 
   37200    -954.8404    42.912149   -911.92826    1536.9576   -8917.5686    2.1722407    19.257463   0.13324656 
   37300   -948.72621    42.244227   -906.48198     1513.035   -12816.728    2.1526316    20.568952   0.14690381 
   37400   -952.06632    40.708659   -911.35766    1458.0365    7505.2453    2.2122023     20.33362   0.15493692 
   37500   -956.62696     44.66545    -911.9615    1599.7544    14242.196    2.2328028    20.687007   0.14027859 
   37600   -950.55518    44.260323   -906.29486    1585.2443   -5476.1308    2.1707637    21.613318   0.13016733 
   37700   -950.53704    41.341658   -909.19538    1480.7083   -15687.425    2.1496919    20.489651   0.14151745 
   37800   -953.06611     39.84176   -913.22435    1426.9874    1143.2457    2.1939044    21.622821   0.14558708 
   37900   -951.90377    46.945806   -904.95796    1681.4285    8342.4548    2.2088687    18.956469   0.16031749 
   38000   -948.56173    39.954869   -908.60686    1431.0385    3956.2028    2.1967384    20.543412   0.15899997 
   38100   -952.45821    38.894548   -913.56367    1393.0617   -6904.6064    2.1766686    23.299084   0.13990553 
   38200   -949.41503    43.930476   -905.48455    1573.4303    -5707.226    2.1707665    21.424137   0.13981407 
   38300   -948.66319    41.346723   -907.31647    1480.8897    7418.0761     2.204047    21.403223   0.15567111 
   38400   -955.10645    43.540188   -911.56627    1559.4516    5241.8741    2.2089297    21.595461   0.14564764 
   38500   -951.43655    46.430785   -905.00577    1662.9823   -6811.4651    2.1740192    20.711759   0.13862862 
   38600    -948.9386    41.864714   -907.07388    1499.4422   -5085.7183    2.1723449    20.047172   0.13658637 
   38700     -954.792    43.088167   -911.70383    1543.2619    1156.1365    2.1995329    18.615868   0.14116308 
   38800   -948.13625    42.500863   -905.63539    1522.2268    8493.3188     2.202794    20.482448   0.14699879 
   38900    -949.2898    42.085939   -907.20386    1507.3657     105.0266      2.18522    21.170009   0.16004051 
   39000   -953.89914    40.832218   -913.06692     1462.462   -7326.6153    2.1749324    20.847582   0.14167587 
   39100    -950.4484    43.104483   -907.34391    1543.8463   -618.07614    2.1807905    22.302805     0.132257 
   39200   -952.15466     45.44177   -906.71289    1627.5594    8327.1623    2.2068853    20.414893   0.15262799 
   39300   -953.89616    40.316456   -913.57971    1443.9892    8545.9923    2.2144183    19.883531   0.13952467 
   39400   -951.84051    44.443938   -907.39657    1591.8207   -13574.697    2.1517435    21.190716   0.14197412 
   39500   -949.90285      42.3717   -907.53115    1517.6006   -16664.883    2.1464626    20.535981   0.13486516 
   39600   -954.42273    42.107225   -912.31551    1508.1281    11340.298     2.223227    22.914646   0.13262306 
   39700   -951.09771    41.166217    -909.9315    1474.4246    16246.759    2.2300733    19.769756   0.15243291 
   39800   -951.18379    45.043043   -906.14075    1613.2785   -6890.0647    2.1706328    21.317752   0.14525611 
   39900   -954.65063     42.45028   -912.20035    1520.4151   -11187.226    2.1670751    22.297834   0.13672198 
   40000   -951.73506    41.918426   -909.81663     1501.366    2506.0285    2.1928359    22.586837     0.140801 
   40100   -948.50246    44.680676   -903.82178    1600.2998    8587.2593    2.1979901    20.695473   0.15743063 
   40200   -954.04721     42.98413   -911.06308    1539.5356   -683.90037    2.1931157    21.635984   0.15668774 
   40300   -950.09174    40.470054   -909.62168    1449.4906   -5057.4543      2.17502    19.038333   0.15633835 
   40400   -947.11712    43.373859   -903.74326    1553.4943   -3818.0058    2.1711296    20.616566   0.15287744 
   40500   -950.60639    39.022697   -911.58369    1397.6515     7894.001    2.2105603     22.23013   0.13505503 
   40600   -948.86548    39.544741   -909.32073    1416.3492    6990.5314    2.2017654    19.128971   0.14006682 
   40700   -947.50125     42.73127   -904.76998    1530.4791   -4261.8176    2.1668013    21.516943   0.14458068 
   40800   -952.93305    39.488181   -913.44487    1414.3234   -4078.8527     2.181792    22.262349    0.1429566 
   40900   -952.70488    42.615963   -910.08891    1526.3493    2647.7217     2.196123    19.959745   0.13408564 
   41000   -952.23678    46.968419   -905.26836    1682.2384    4577.4392    2.1986774    22.425221   0.13518512 
   41100   -953.32549     40.50423   -912.82126    1450.7146    -1081.614    2.1916471    20.285362   0.14746538 
   41200   -952.68446    41.323187   -911.36127    1480.0467   -13245.405    2.1614377    19.861345   0.14026024 
   41300   -947.64993     41.05092   -906.59901    1470.2951   -210.36559    2.1782986    19.423227   0.15603122 
   41400   -952.01387    41.355632   -910.65824    1481.2088    15251.089    2.2264739    18.746516   0.14709576 
   41500    -956.6783    42.872211   -913.80609    1535.5271    4516.0519     2.210437    20.125432   0.11580239 
   41600   -947.20597    41.183965     -906.022    1475.0603   -15312.016    2.1442289    21.771939    0.1367608 
   41700   -952.82356    42.621351   -910.20221    1526.5422   -9417.9168    2.1673686    19.601453   0.13083285 
   41800   -954.00709    42.563546   -911.44354    1524.4719    7318.5117    2.2135947    22.661253   0.13592219 
   41900   -946.34548    42.980488   -903.36499    1539.4052    5685.1775    2.1940368    23.565614   0.14996666 
   42000   -951.23755    41.647712   -909.58984      1491.67   -2521.3363    2.1816427    20.711208     0.135109 
   42100   -951.63294    39.990232   -911.64271    1432.3051   -4230.8659    2.1807149     22.99617   0.12910109 
   42200   -947.09949    43.187328   -903.91216    1546.8135    1253.2505    2.1807042    22.086798   0.15203542 
   42300   -950.71634    40.921392   -909.79494    1465.6558    4142.9289     2.201624    19.979773   0.12955174 
   42400   -953.12304    41.682842    -911.4402    1492.9282   -194.07386    2.1912118    20.287496   0.12654176 
   42500   -948.38173    42.885451   -905.49628    1536.0013   -5500.1611     2.169444    20.556055   0.13957246 
   42600   -950.90633    41.032577   -909.87375    1469.6381   -2463.1959    2.1850928    21.561867   0.13690143 
   42700   -953.78952    41.608918    -912.1806    1490.2805    4451.0255    2.2058637    21.077223   0.13760913 
   42800   -950.29815    44.156387   -906.14176    1581.5216    3637.0168    2.1937678    22.433978   0.13716682 
   42900   -948.50141    38.965717   -909.53569    1395.6107   -3905.1222    2.1753399      21.0572    0.1406118 
   43000   -951.57645    37.440095   -914.13636    1340.9684   -4957.2546    2.1809178     22.54519   0.13076181 
   43100   -950.34458    43.532734   -906.81184    1559.1847    4364.3226    2.1984573    20.944575   0.14019934 
   43200   -950.60776    41.931251   -908.67651    1501.8253    10380.069    2.2148505    20.708251   0.14749859 
   43300   -954.21223    39.452585   -914.75965    1413.0485   -4270.1053    2.1883975    21.312705    0.1317155 
   43400   -948.50447    41.835496   -906.66897    1498.3957   -13509.599     2.147385    20.012084   0.11786745 
   43500   -949.44238    41.123656   -908.31872    1472.9002     1167.356    2.1865559    20.061918    0.1367488 
   43600   -953.86326    42.319224   -911.54404    1515.7211    13957.537    2.2279225    22.887265   0.13312016 
   43700   -948.68542    44.881009   -903.80441     1607.475    4560.2817    2.1869072    21.928398   0.13946675 
   43800   -946.09777    38.672426   -907.42534     1385.106   -5321.3362    2.1632426    19.742279   0.13216103 
   43900   -949.96639    38.308313   -911.65808    1372.0648   -1853.1633    2.1837044    19.307257   0.11893166 
   44000   -947.13042    41.498471   -905.63195    1486.3247    7638.4381    2.2007313    19.800468    0.1325003 
   44100   -947.95422    42.362248   -905.59197    1517.2621    4550.9772    2.1916962    20.075163   0.13593098 
   44200      -952.67    40.702463   -911.96753    1457.8146    -3610.583    2.1834248    19.262671   0.13568288 
   44300   -949.92975    42.349975   -907.57978    1516.8225   -3286.2936    2.1782329    22.412855   0.14400713 
   44400   -947.80365    43.437061   -904.36659     1555.758     1943.296    2.1862871    19.266574   0.14282197 
   44500   -953.62485    41.022332   -912.60251    1469.2712    6127.0241    2.2062516    20.094036    0.1181221 
   44600   -953.92337    45.364598   -908.55877    1624.7954   -4215.7857    2.1821394     21.15505   0.13823213 
   44700   -950.84897    44.567088   -906.28188    1596.2315   -7842.1112    2.1673461    21.793491   0.13668314 
   44800   -954.26246    39.505863    -914.7566    1414.9567    1107.5659    2.1996401    20.143267   0.13263871 
   44900   -949.89063    41.131772   -908.75886    1473.1909    6275.0485    2.2010942    22.088751   0.12946714 
   45000    -952.1835    45.304245   -906.87925    1622.6338   -1943.9859     2.186243    18.355199   0.13313026 
   45100   -952.23125    38.085795   -914.14546    1364.0951   -6466.2219     2.175964    21.559204   0.13464253 
   45200   -950.99952    41.350022    -909.6495    1481.0078   -4928.6513    2.1732299    21.354942   0.12984572 
   45300   -948.27259    42.791831   -905.48076    1532.6482    13997.109    2.2171019    20.122957   0.13289902 
   45400   -953.00884    42.244631    -910.7642    1513.0495    9435.7526    2.2159066    22.186395   0.14409575 
   45500   -952.22409    41.117305   -911.10678    1472.6728   -13764.154    2.1573941    21.078756   0.14433641 
   45600    -946.7509    42.459796    -904.2911    1520.7559   -12108.098    2.1467809    22.399983     0.137092 
   45700   -950.64682    40.463039   -910.18379    1449.2393    6816.7785    2.2065154    18.016017   0.13614441 
   45800   -953.06634    42.384091   -910.68225    1518.0444    9756.8475    2.2161472    20.427621   0.12781199 
   45900   -946.26243    42.702019   -903.56041    1529.4315   -1064.8037    2.1725079    18.814405    0.1363647 
   46000   -949.46864    39.296739    -910.1719    1407.4667   -5833.0847    2.1708953    17.990162   0.13997101 
   46100    -953.3836    42.454805    -910.9288    1520.5772   -2437.0734    2.1867744    20.178328   0.12861821 
   46200   -948.47521    43.794681   -904.68052    1568.5667     5798.157    2.1980295    20.004516   0.13744163 
   46300   -951.84545    41.123385   -910.72206    1472.8905    3974.7904     2.199972     20.05992   0.12937917 
   46400   -953.56278    41.265796   -912.29698    1477.9912   -7556.6341    2.1773772    19.809491   0.14660524 
   46500   -949.60254    43.030026   -906.57252    1541.1795   -4456.7086    2.1742178    19.631659   0.15631524 
   46600   -951.24695    40.386103   -910.86085    1446.4837    5576.7336    2.2059107    22.734011   0.15173258 
   46700   -953.31023    40.119549   -913.19068    1436.9367    6315.1847    2.2105271    18.585815   0.13400257 
   46800   -947.77934    41.166771   -906.61257    1474.4445   -2157.4421    2.1760516    19.961069   0.13156832 
   46900   -951.72749    41.699081   -910.02841    1493.5099   -7234.9411     2.168985    19.104154   0.14575382 
   47000   -954.38164    40.644061   -913.73758    1455.7229    1156.6224    2.1996895    17.209221   0.13295571 
   47100    -951.9462    46.702722   -905.24348    1672.7221    9352.1392    2.2100864    18.097277   0.14001636 
   47200   -950.00239    41.381922   -908.62047    1482.1504    2519.7097    2.1914815     21.72988   0.14306254 
   47300   -950.91847    37.219747   -913.69872    1333.0764   -13585.425    2.1561723    20.554466   0.13662799 
   47400   -952.23055    45.791744   -906.43881    1640.0942   -9243.4654    2.1647668    19.161136   0.15052268 
   47500   -950.05131     44.37377   -905.67754    1589.3075    15355.097    2.2232102    20.947629   0.16183182 
   47600   -955.48136    44.340085   -911.14127    1588.1011    5843.0049    2.2111244    20.662902     0.142416 
   47700   -949.08552    41.637111   -907.44841    1491.2903   -7448.6993    2.1662182    20.909004   0.14540765 
   47800   -945.29609    40.890619   -904.40547    1464.5537   -4935.1208    2.1635517    19.492593   0.14104674 
   47900   -952.10599    40.102644   -912.00335    1436.3313    5218.8019    2.2063303    19.233539   0.13411482 
   48000     -949.419    41.604442   -907.81456    1490.1202    6536.4885    2.2036264    20.040396   0.13771529 
   48100   -946.98549    41.453329   -905.53216    1484.7079   -1831.2021    2.1741948    19.912051   0.13837159 
   48200   -954.80128    40.955738   -913.84554     1466.886    -3721.587    2.1841536    20.073267   0.13832877 
   48300   -951.32106    42.638031   -908.68303    1527.1396    1779.7773    2.1923491    19.605911   0.14765707 
   48400   -948.54885    42.752745   -905.79611    1531.2483    5522.8152    2.1973196    24.096199   0.16093248 
   48500   -954.69395    40.355815   -914.33813     1445.399    1517.4465    2.2021989    22.575132   0.15206227 
   48600   -951.35679    41.769858   -909.58693    1496.0448   -7903.1625    2.1705005    18.591942   0.13859423 
   48700   -948.70259    41.613484   -907.08911    1490.4441   -2465.9044    2.1759588    20.763848   0.14550828 
   48800   -952.07089    38.928595    -913.1423    1394.2811    7681.7486    2.2132416    18.551356   0.15593985 
   48900    -952.4611    41.235939   -911.22516    1476.9218    6796.9477    2.2115565    19.769314   0.13399034 
   49000    -947.1387    40.515475   -906.62322    1451.1174   -5183.9593    2.1691621    18.542124   0.14547963 
   49100   -952.33773    40.581969   -911.75577    1453.4989   -13248.687    2.1611933    19.437112   0.13406473 
   49200   -954.43499    43.768296   -910.66669    1567.6216    4754.1356    2.2054027    21.477554   0.13043892 
   49300   -946.91956    44.095674   -902.82389    1579.3471    15318.159    2.2165671    21.783525   0.15096567 
   49400   -950.67662    41.362654   -909.31397    1481.4603   -3849.7529     2.178382    19.907781   0.15252211 
   49500   -950.65236    39.397847   -911.25452     1411.088   -11824.157    2.1588884     20.61593   0.14127025 
   49600   -949.20199    45.480694    -903.7213    1628.9535    -399.1626    2.1848977    20.313262   0.14103876 
   49700   -951.33098    44.581603   -906.74937    1596.7514     7231.257    2.2065834    21.288787   0.13823396 
   49800    -954.8749    43.722771   -911.15213    1565.9911   -2178.4223     2.189769    20.317338    0.1297451 
   49900   -946.00567    39.110915   -906.89476    1400.8111   -1751.3181     2.171527    20.334824   0.13868892 
   50000   -944.40133     40.92786   -903.47347    1465.8875    675.73547    2.1745282    20.605525   0.13327008 
   50100   -952.97723    41.103179   -911.87406    1472.1668     6385.607    2.2073184    18.353922   0.13231748 
   50200   -950.59183    42.102842   -908.48899    1507.9711    2903.1014    2.1954128    21.712089   0.13476519 
   50300   -948.32257    42.380007   -905.94257    1517.8982   -4400.6884    2.1689867    18.988817   0.14215473 
   50400   -953.87685    38.847079   -915.02977    1391.3615   -1824.3292    2.1925044    22.569534   0.14004411 
   50500   -952.20028    41.990502   -910.20977    1503.9475    2037.1179    2.1957636    19.612391   0.13393146 
   50600   -952.37379     45.60646   -906.76733     1633.458    1464.5666    2.1928187    17.364428   0.14891031 
   50700   -954.90848    41.472067   -913.43641     1485.379   -3294.0618    2.1875933    20.708908   0.14619969 
   50800    -952.1906    39.979704    -912.2109     1431.928   -5069.1128    2.1736272    22.233965   0.13245657 
   50900   -951.43469    44.282703   -907.15199    1586.0458    838.03719    2.1875063    19.812105   0.13260538 
   51000   -953.25628    42.977071   -910.27921    1539.2828    8094.5141    2.2103133    22.325629   0.13153852 
   51100   -956.50244    41.177645   -915.32479    1474.8339   -2494.2738    2.1961035    22.546883   0.13554405 
   51200   -949.59615    43.355279   -906.24087    1552.8289   -14001.876    2.1471651    19.180503   0.14736288 
   51300    -952.8881     43.55189   -909.33621    1559.8708   -4431.2423    2.1801042    22.642043   0.14214958 
   51400    -956.1205    44.849366   -911.27113    1606.3416    12057.909    2.2260441    19.893685   0.12592241 
   51500   -950.90447    48.311986   -902.59248    1730.3601    2818.1634    2.1878809    24.556668   0.13097782 
   51600   -949.51299    41.857965   -907.65502    1499.2005   -8213.6277    2.1636333    21.382778   0.14751692 
   51700    -952.3325    40.793954   -911.53854    1461.0915   -5227.5091    2.1764498    19.744259   0.13983409 
   51800   -947.25259    41.234663   -906.01792    1476.8761    7452.6863    2.1986626    21.626839   0.15626019 
   51900   -949.79422    44.802102   -904.99212    1604.6488     3755.272    2.1900204    21.244732   0.14249471 
   52000   -953.19613    41.504298   -911.69183    1486.5335   -3067.8817     2.182116    20.607283   0.12680852 
   52100   -950.40573    42.466839   -907.93889    1521.0082   -2345.5815    2.1782437    21.549246   0.13451431 
   52200    -948.8996    45.024527   -903.87507    1612.6153    1397.1692    2.1827718    22.479589   0.14372003 
   52300   -953.45982    40.560191   -912.89963     1452.719    5016.8397    2.2071397    19.751129   0.12801791 
   52400   -951.82365    42.356952   -909.46669    1517.0724   -2270.7736    2.1834337      20.2354   0.12807607 
   52500   -946.37541    39.915279   -906.46013    1429.6205   -3357.2384    2.1700011    21.041654   0.13569703 
   52600   -955.24743    40.152463   -915.09496    1438.1156    12.099201    2.1974751    20.365008   0.14413864 
   52700   -952.91829    42.280807   -910.63748    1514.3452    2019.6259     2.194971    20.662583   0.12994379 
   52800   -951.04462    43.992639   -907.05198    1575.6568   -1338.3034    2.1837225     21.77219   0.14147608 
   52900   -953.67975    40.627857   -913.05189    1455.1425   -3214.1618    2.1847381    22.446256   0.13107072 
   53000   -952.68841    40.177103    -912.5113    1438.9981   -1767.8079    2.1865216     23.05327   0.12447372 
   53100   -950.88605    44.329207   -906.55684    1587.7114    4599.4489    2.1972279    18.990288   0.13469312 
   53200   -953.21704    42.670314   -910.54672    1528.2959    2568.6231    2.1980778    20.415553   0.12603517 
   53300   -954.60201    39.289347   -915.31267    1407.2019   -8564.2995    2.1741421    20.571252   0.12527188 
   53400   -948.35857    41.823778   -906.53479    1497.9761   -9359.1044    2.1580372    21.374832   0.12964318 
   53500   -954.19018    45.504501   -908.68568    1629.8062    4376.6068    2.2061317    20.533472   0.13409609 
   53600   -953.99254    42.303285   -911.68926    1515.1503    12259.245    2.2210838     21.12259   0.14207444 
   53700   -946.87499    43.859374   -903.01561    1570.8837   -3885.4363    2.1657425     21.76114   0.14326053 
   53800   -949.36961    41.532442   -907.83717    1487.5415   -9494.7875    2.1619086    21.793761   0.13863026 
   53900   -949.56838    38.580472   -910.98791    1381.8126    3629.0915    2.1919004    19.879794   0.13640259 
   54000   -951.62907    45.722396   -905.90667    1637.6104    8319.0237    2.2080417    22.627154   0.13779408 
   54100   -948.44147    43.662792   -904.77868    1563.8429    1162.1617    2.1815048    18.638478   0.13361948 
   54200   -949.06954    37.054511   -912.01503    1327.1582   -6310.2352    2.1705632    23.390021   0.13036669 
   54300   -948.88128    40.512414   -908.36886    1451.0077   -1103.0062    2.1820305    22.394908   0.12855845 
   54400    -949.0159     45.47678   -903.53912    1628.8133    5041.2573    2.1946093        21.73   0.13088257 
   54500   -952.06739    39.489639   -912.57775    1414.3757    4936.6325    2.2041851    21.149485   0.13756188 
   54600   -951.48063     41.12421   -910.35642      1472.92   -7113.1159    2.1706469    19.764276   0.13070894 
   54700   -947.77313    41.384638   -906.38849    1482.2477   -4669.9134    2.1704205    20.835605   0.14890225 
   54800   -953.92103    40.271332    -913.6497    1442.3731    3380.2534    2.2032217     19.13357   0.12767285 
   54900   -951.79603    40.150282   -911.64575    1438.0375    4252.1104    2.2027246    19.744672   0.13318202 
   55000    -948.6932    41.654976   -907.03822    1491.9302   -1118.7251    2.1832913    18.283503   0.14078764 
   55100   -951.99678     40.21383   -911.78295    1440.3136    -4599.154    2.1806595    20.268099   0.12485267 
   55200   -952.90969    39.450523   -913.45916    1412.9747    1088.3786    2.1967283    21.523176   0.13283347 
   55300   -950.12555    43.893752    -906.2318     1572.115    1149.9303    2.1901482    20.291794   0.13445684 
   55400    -951.5775     41.30613   -910.27137    1479.4358    527.52727    2.1906258    21.201229   0.14062937 
   55500   -951.81642    37.992503   -913.82391    1360.7537    63.119259    2.1930355    22.318266   0.13595445 
   55600    -948.1087    43.304207   -904.80449    1550.9996    -3515.585    2.1734621    22.508715   0.13251657 
   55700    -950.6545    41.747637   -908.90686     1495.249    1367.9518    2.1937629    19.969037   0.14235495 
   55800   -951.21333    39.450666   -911.76267    1412.9798    3755.0203    2.1979965    19.050717   0.12263562 
   55900   -946.52655    43.259139   -903.26741    1549.3855    -773.5555    2.1744143    21.255731   0.14524978 
   56000   -951.40162     43.14109   -908.26053    1545.1574   -3439.4354    2.1835871    20.449366   0.13391536 
   56100   -951.47482    40.217548   -911.25727    1440.4467     966.5164    2.1894486    20.124459   0.12917591 
   56200   -948.66311    43.783114      -904.88    1568.1523    3051.0144     2.186938    22.424097    0.1412253 
   56300   -952.54787    45.262108   -907.28577    1621.1246   -571.45773    2.1861235    22.101542   0.12466817 
   56400   -951.54984    39.493118   -912.05672    1414.5003   -3600.6166    2.1797359    20.538809   0.14178887 
   56500   -951.13108    44.169873    -906.9612    1582.0047    -1626.876     2.179989    19.448586   0.13789865 
   56600   -953.59074    46.962899   -906.62784    1682.0407    2495.1663    2.1968143    20.428698   0.12071087 
   56700   -953.43341    39.821356   -913.61206    1426.2566    5103.7507    2.2080318    19.530627   0.13276297 
   56800   -952.32028    44.051644   -908.26864    1577.7701   -7191.5344    2.1718851    21.561853   0.13394703 
   56900   -948.54518    41.425141   -907.12003    1483.6983   -7367.0406    2.1622092    20.308457   0.13338489 
   57000   -956.36211      41.2415   -915.12061     1477.121    5198.6592    2.2118284    21.645966   0.14457544 
   57100   -950.35479    41.306276   -909.04851     1479.441    9757.6852    2.2133913    19.896717   0.13914041 
   57200   -947.85069    40.385591    -907.4651    1446.4654   -1329.0588    2.1796763    22.133791   0.14048384 
   57300   -954.49878    41.307643   -913.19114      1479.49   -12352.917    2.1656112    20.601749   0.13648507 
   57400   -948.41362    37.697735   -910.71588    1350.1962     1683.638    2.1881717    22.397245   0.14582096 
   57500   -951.61378    46.389179    -905.2246    1661.4921    8267.1743    2.2074632    18.495594   0.13343516 
   57600   -951.52957    40.771284   -910.75829    1460.2795    3054.7853    2.1931849    19.597959   0.13614459 
   57700   -951.50278    40.420056   -911.08272    1447.6998   -6956.7589    2.1688939    18.324007   0.13270782 
   57800   -948.38755    45.030718   -903.35683     1612.837   -4836.1734     2.164758    17.560073   0.12607467 
   57900   -950.02399    40.214958   -909.80903    1440.3539    4432.8362    2.1981095    20.850638   0.14541739 
   58000   -954.03176    43.572677   -910.45908    1560.6153    3897.8155    2.1993981    20.166883   0.12810127 
   58100   -948.39054    45.463518   -902.92703    1628.3383   -3727.9647    2.1701594    22.950641   0.13690699 
   58200   -951.32631    41.310839   -910.01547    1479.6045   -4056.2133    2.1800903    21.365479   0.13767846 
   58300    -951.7667    41.101206   -910.66549    1472.0962    -575.7982    2.1875317    21.844429   0.14086836 
   58400   -949.30382     44.17694   -905.12688    1582.2578    2039.2346    2.1871096    20.932141    0.1486188 
   58500   -950.92129    41.576428   -909.34486    1489.1169    772.04245    2.1841849    17.167238   0.13252633 
   58600   -949.31058    36.928881   -912.38169    1322.6586   -159.33806    2.1832474    19.206969   0.12853028 
   58700   -950.65362    43.340434   -907.31319    1552.2972   -1663.5281    2.1839275    19.034957   0.13509025 
   58800   -952.10126     43.46256    -908.6387    1556.6713   -1381.4624     2.184757    16.001546   0.13568431 
   58900   -953.11967    38.363962   -914.75571     1374.058    3146.7855    2.2015818    22.191429   0.14484543 
   59000   -950.62977    43.004687   -907.62509    1540.2719    812.91378    2.1863232    21.631907   0.14267415 
   59100   -952.92687    44.506888   -908.41998    1594.0753   -4076.3046    2.1813797    19.558874   0.14002276 
   59200   -953.70395    38.263374   -915.44058    1370.4553    466.72387    2.1968552    21.821923   0.12407023 
   59300   -948.05344    40.383368   -907.67008    1446.3858    2902.3152    2.1865416    20.043711   0.14012946 
   59400   -949.06693    41.321202   -907.74573    1479.9756    4808.2586    2.1940538     18.52239   0.14570491 
   59500   -952.43733    39.008919   -913.42841     1397.158    1068.3643    2.1943676     21.71681   0.14010024 
   59600   -948.79244    41.737952   -907.05448    1494.9021   -3994.0158     2.173334    20.371985   0.12909982 
   59700    -950.0698    43.559641   -906.51016    1560.1484    41.024454    2.1823964    22.181311   0.13403891 
   59800   -952.23294     41.19234    -911.0406    1475.3602    4687.4968    2.2039352    21.756304   0.13616269 
   59900   -950.47032    39.756658   -910.71366    1423.9393    3414.6988    2.1956471    21.072716   0.13785421 
   60000   -950.35516    46.371449   -903.98371    1660.8571   -8533.1993    2.1600227    22.822901   0.14402003 
   60100   -949.96387    39.007637   -910.95623    1397.1121   -3251.7723    2.1775826    23.555389   0.13831804 
   60200   -952.14583    42.939127   -909.20671    1537.9238    6818.6768    2.2073635    21.711591   0.14315436 
   60300   -947.84966    45.710086   -902.13958    1637.1695    6362.9452    2.1924041    19.314614   0.13101472 
   60400   -950.69191    40.227903     -910.464    1440.8176   -2447.2911    2.1797099    22.732563   0.14339578 
   60500   -949.24191    38.795521   -910.44638    1389.5149   -5586.0263    2.1673397    19.661123   0.13149512 
   60600    -947.6002    43.315375   -904.28482    1551.3996    3249.5055    2.1859698    23.377268   0.13525971 
   60700   -954.89561    44.525651   -910.36996    1594.7473    8710.1222     2.214357    26.175971   0.14471295 
   60800   -952.91614     40.47002   -912.44612    1449.4893   -2912.5445    2.1857112    18.754814   0.13523157 
   60900   -948.08074    40.757271   -907.32347    1459.7776   -7534.2742    2.1607409    21.390826   0.15742592 
   61000    -948.9396    41.110715   -907.82888    1472.4367   -3.5064515    2.1832962    21.931261   0.14484684 
   61100   -953.67455    39.816131   -913.85842    1426.0694    9970.1065    2.2194305    21.275937   0.13553853 
   61200   -952.87833    46.260264   -906.61807    1656.8749    1592.9988    2.1913514    20.645571   0.13430707 
   61300   -949.78285    41.042017   -908.74083    1469.9762   -6571.7316     2.169534    21.169365   0.13627398 
   61400   -953.12436    38.591894   -914.53246    1382.2217   -2988.2041     2.187203     16.16753   0.12955435 
   61500   -949.01146     42.22877   -906.78269    1512.4814    2626.5151    2.1895781    19.128553   0.13992434 
   61600   -946.38119    39.036797   -907.34439    1398.1565    3319.0507    2.1911733    19.749014   0.14680813 
   61700   -954.53794    41.709425   -912.82851    1493.8803   -2616.7993    2.1875221    21.639685   0.13014045 
   61800   -952.30413     45.70432   -906.59981     1636.963   -3719.8237     2.175823    19.049164   0.13309564 
   61900   -950.68792    44.510956   -906.17696     1594.221    1020.8802    2.1888498    17.858073   0.13022456 
   62000   -951.57651    40.156521   -911.41998     1438.261    2702.7829    2.1936852    21.026099   0.14390843 
   62100   -949.05013    41.977827    -907.0723    1503.4935   -306.78059    2.1799224    21.239578   0.13906006 
   62200   -946.19074    41.637602   -904.55314    1491.3079   -686.51268    2.1725231    21.152965   0.13995413 
   62300   -954.46756    42.990957    -911.4766    1539.7802   -202.35825    2.1936085    20.169347   0.13244446 
   62400   -953.39397    45.323997   -908.06998    1623.3412    1620.2973    2.1927657    19.201956    0.1329491 
   62500   -948.75223    44.890891   -903.86134    1607.8289   -1421.1959    2.1768075    20.187443   0.14473037 
   62600   -954.50516    41.942846   -912.56231    1502.2406   -2763.8267     2.188843    20.698371   0.12058719 
   62700   -951.53586    42.369579   -909.16628    1517.5247   -905.98572    2.1849058    22.985987   0.13309368 
   62800   -949.87914    44.656361   -905.22278    1599.4289   -738.63039    2.1836909    23.438072    0.1284292 
   62900    -956.5402    42.660528   -913.87967    1527.9454    1122.5979    2.2030748    20.020719   0.12821225 
   63000   -949.46098    39.424275   -910.03671    1412.0345   -3753.8324    2.1752946    19.871682   0.14300819 
   63100   -949.43861    42.385618   -907.05299    1518.0991   -4592.8152    2.1686993    21.412005   0.11885721 
   63200   -954.77096    40.977968   -913.79299    1467.6822    4793.7825    2.2049012    21.909531   0.12702538 
   63300   -952.89569    41.930035   -910.96565    1501.7818    8061.9267    2.2103441    22.008165   0.15056018 
   63400   -947.42807    40.625606   -906.80247    1455.0619   -1205.0493    2.1763264    21.949992   0.15179866 
   63500   -954.84276    42.721175   -912.12159    1530.1175   -11140.972    2.1663759    21.953239   0.14118698 
   63600   -951.02046    39.328118   -911.69234    1408.5906    850.49888    2.1909954    21.598368   0.12903367 
   63700   -948.67651    43.933599   -904.74291    1573.5422    10849.259    2.2061241    22.124929   0.12997654 
   63800   -951.08153    41.150573   -909.93095    1473.8643    2259.6935    2.1971283    21.216306    0.1385712 
   63900   -951.34177    38.623858   -912.71791    1383.3665   -8847.6733    2.1740188    20.555489   0.12732556 
   64000   -948.56686    44.437422   -904.12944    1591.5873   -7561.4726    2.1697214    17.934317   0.15154216 
   64100   -952.53476     43.69301   -908.84176    1564.9252    7639.0948    2.2130197    21.405451   0.15046217 
   64200    -954.7639    43.577313   -911.18659    1560.7813    5629.0947    2.2108774    19.304463   0.13662455 
   64300   -948.86616    44.602898   -904.26327     1597.514   -5633.7462    2.1707995    20.308643   0.14910317 
   64400   -948.44991    40.030941   -908.41897    1433.7631   -4211.6186     2.176063    21.999329   0.15668088 
   64500   -954.53721    43.225409    -911.3118    1548.1774    430.62793     2.198889    20.105542   0.15422071 
   64600   -951.78119    46.402966   -905.37823     1661.986    3108.5309    2.1950122    20.932691   0.14252606 
   64700    -951.0408    42.614317   -908.42648    1526.2903   -2923.0906    2.1850114    18.449956   0.15621864 
   64800   -952.45347    39.842926   -912.61054    1427.0291   -2713.1531    2.1876164    17.606738   0.14742072 
   64900   -949.76747    43.000937   -906.76653    1540.1376   -304.77841     2.187216    19.568204   0.13759031 
   65000   -949.97193    41.415741   -908.55619    1483.3616    703.38873    2.1937629    21.218765   0.15307944 
   65100   -950.78188    36.875376    -913.9065    1320.7423    2826.9776    2.2004941    18.415774   0.13909387 
   65200   -950.47809    43.254703   -907.22339    1549.2266   -3267.8707    2.1804404    20.760473   0.15116998 
   65300   -951.39811    42.763934   -908.63417     1531.649   -3053.7842    2.1817227    18.467332   0.14876327 
   65400   -952.46555    38.128845   -914.33671     1365.637    4686.3098    2.2049586    18.818193   0.14325883 
   65500   -950.36095    44.153345    -906.2076    1581.4127    1278.2529    2.1892786    22.032383   0.14609737 
   65600   -950.21536    41.541724   -908.67364    1487.8739   -1447.9766    2.1816431    20.060577   0.13716144 
   65700   -954.62957    40.631411   -913.99816    1455.2698   -3882.3642    2.1832066    20.425529   0.13352527 
   65800   -949.40371    43.416636   -905.98707    1555.0265     12.71083    2.1842629     19.99721   0.14405912 
   65900   -948.36097    40.911764   -907.44921     1465.311    10322.927    2.2081099    19.854093   0.14968367 
   66000   -955.10226    42.439727   -912.66253    1520.0371   -2216.9114    2.1935034    18.014473   0.13080715 
   66100   -947.51317    42.293455   -905.21972    1514.7982   -8560.2899    2.1547486    20.032679   0.13148142 
   66200   -951.88277    45.441968    -906.4408    1627.5665   -5457.9823    2.1718731    22.534559   0.16170051 
   66300   -952.66352    41.759349   -910.90417    1495.6685    10090.936    2.2150533    20.221486   0.15674051 
   66400    -945.8741    42.155829   -903.71827    1509.8689    7361.9162    2.1946162    22.933545   0.16463204 
   66500   -947.30773    40.610526   -906.69721    1454.5218   -7395.7442     2.164031    22.153133   0.15038139 
   66600    -950.7093    38.914441   -911.79486    1393.7742   -4970.4314      2.17551    18.610278   0.14461411 
   66700   -950.87503    46.406796   -904.46823    1662.1232    547.98047    2.1844237    19.403645   0.15596973 
   66800   -949.58904    42.325048   -907.26399    1515.9297    7878.4891    2.2046491    21.261592   0.15823778 
   66900   -952.71187    40.859041   -911.85282    1463.4227    37.311908    2.1935299    22.330905   0.15318028 
   67000   -947.55975    41.286549    -906.2732    1478.7345   -5934.4793    2.1675375    21.128708   0.15060672 
   67100   -950.50816    44.813782   -905.69438    1605.0672   -2806.3581    2.1796002    19.308103   0.14751374 
   67200   -955.05176    43.373069   -911.67869    1553.4661    5398.7776    2.2083629     22.39323    0.1293425 
   67300   -946.98351    39.894748   -907.08877    1428.8852    6017.9887    2.1954262    20.482777    0.1492985 
   67400   -947.68626    41.310905   -906.37535    1479.6068    -2534.702    2.1745699    21.006936   0.14986645 
   67500   -953.01028    39.104455   -913.90583    1400.5798   -992.28701    2.1918656    18.466319   0.13131025 
   67600   -951.02571    43.245272   -907.78044    1548.8888    2279.4312    2.1928892    17.488201   0.14560752 
   67700   -951.49151    43.909039   -907.58248    1572.6625   -875.51885    2.1890724    22.943813   0.16129318 
   67800   -953.56771    38.406114   -915.16159    1375.5677   -268.32017    2.1987792    21.408235   0.14505307 
   67900   -952.20057    44.240694   -907.95988    1584.5412    -2643.717    2.1833608    18.902149   0.14594131 
   68000   -950.17024    42.429455   -907.74079    1519.6692   -814.10703    2.1886723    21.298936   0.14299509 
   68100   -951.89093    37.766496   -914.12443    1352.6589     3972.015    2.2041849     20.50783   0.13837166 
   68200   -949.60029    42.671681   -906.92861    1528.3449   -474.28132    2.1851326     20.77914   0.14070088 
   68300    -949.9786    42.682866   -907.29573    1528.7455   -1311.0555    2.1854739    20.837985   0.13878241 
   68400   -950.37016    37.846934   -912.52322    1355.5399    2696.9106    2.1947193    17.603511   0.13923749 
   68500   -950.13262    43.174745   -906.95787    1546.3628    901.62134    2.1889133    18.802372   0.15320049 
   68600   -952.68353    47.046489   -905.63704    1685.0346    347.31839    2.1881199    20.490783   0.14460936 
   68700   -951.19158    39.503484    -911.6881    1414.8715    -1943.956    2.1830197    20.642647   0.14621137 
   68800   -948.69987    41.380049   -907.31982    1482.0833   -2396.0163    2.1771311    20.962988   0.15248364 
   68900   -948.06836    44.255802   -903.81256    1585.0823    4031.0613    2.1860903    21.550666   0.12792918 
   69000   -952.86799    41.684019   -911.18397    1492.9704    3929.8891     2.200487      20.7391   0.12649065 
   69100   -950.07631    41.614948   -908.46136    1490.4965   -1142.9136    2.1818819    20.224038   0.13640317 
   69200   -947.17046    42.984088   -904.18637    1539.5341   -5761.2531    2.1623488    19.370247   0.13261509 
   69300    -954.1683    41.110881   -913.05742    1472.4427    975.07181    2.1983497    21.190983   0.12958172 
   69400   -950.15555    41.488094   -908.66745    1485.9531    7785.3121    2.2055566     20.68402   0.13641591 
   69500   -947.41995     41.46883   -905.95112    1485.2631   -855.26259    2.1778419    22.025815   0.14876857 
   69600   -950.75742     36.58943   -914.16799    1310.5007   -6163.8878    2.1726984    23.067688   0.14405478 
   69700   -950.89199     39.87536   -911.01663    1428.1908   -3205.7503    2.1800507    23.647813   0.15295123 
   69800   -948.92961    42.984191   -905.94542    1539.5378    9141.2435    2.2061548    23.512007   0.15211375 
   69900   -949.73379    37.444206   -912.28958    1341.1156    7132.8327    2.2062156    20.412428   0.13530956 
   70000   -950.60184    37.388856   -913.21298    1339.1332    -7007.425    2.1726339    20.394893   0.13011032 
   70100   -948.13914    41.188405   -906.95074    1475.2193   -6797.3462    2.1634702    18.918881   0.12781161 
   70200   -951.97159     42.00634   -909.96525    1504.5148    5314.4326    2.2053946    19.662128   0.14679816 
   70300    -953.5183    40.389018   -913.12928    1446.5882    10977.577    2.2187141    20.157892   0.13208387 
   70400   -946.99195    42.701916   -904.29004    1529.4278   -3542.8553    2.1662486    18.746746   0.12658201 
   70500   -949.54467    40.040181   -909.50449    1434.0941   -7459.6222    2.1676473    22.590165   0.14932043 
   70600   -949.11295    37.729094   -911.38385    1351.3193    4140.0614     2.194771    21.917606   0.15130989 
   70700   -945.97303    42.989038   -902.98399    1539.7115    3828.6292    2.1869049    21.042297   0.15951975 
   70800   -950.01256    41.503938   -908.50862    1486.5206    795.47307    2.1863177    20.652995   0.15073353 
   70900   -952.89215     41.26386   -911.62829    1477.9218   -2652.6348    2.1825532    19.808809    0.1215598 
[...]
  186800   -952.33098    41.876612   -910.45437    1499.8684   -7893.4937    2.1692772     22.25148   0.12359536 
  186900   -950.72577    41.362567    -909.3632    1481.4571   -2795.6261    2.1793983    19.959493   0.14075187 
  187000   -949.64718    43.302379    -906.3448    1550.9342    4654.9159    2.1965937    18.251266   0.13747106 
  187100   -948.18509    48.750503   -899.43458    1746.0662    613.57046    2.1834232    17.347399   0.16733735 
  187200    -950.1641    43.094673   -907.06942    1543.4949   -2552.8822      2.17942    17.634436   0.14427075 
  187300   -948.30124     39.31246   -908.98878    1408.0297   -3324.1261    2.1745989    20.047867   0.13276572 
  187400   -951.39466    42.215623   -909.17903    1512.0105    917.03916    2.1884969     20.88844   0.12713308 
  187500   -948.10452    39.052283   -909.05224    1398.7112    5981.4876    2.1971757    20.033807    0.1243693 
  187600   -945.71605    46.529188   -899.18686    1666.5068   -3688.5949     2.165326    21.582373   0.13270944 
  187700   -952.37656    45.769829   -906.60674    1639.3093   -747.84531    2.1858348    22.013781    0.1374914 
  187800   -952.37077    42.944374   -909.42639    1538.1117    1051.2407    2.1933545    21.175554   0.13192419 
  187900   -950.71255     39.89247   -910.82008    1428.8036    1698.8705    2.1903987    19.210318   0.13634234 
  188000   -947.23085    45.076738   -902.15412    1614.4853   -2056.1849    2.1702176    16.485889   0.15830931 
  188100   -950.71692    45.432863   -905.28406    1627.2404    327.72784    2.1875811    18.752201   0.13580615 
  188200   -952.59899    43.115741   -909.48325    1544.2495   -1413.7853    2.1856989    18.272575   0.14649116 
  188300   -951.92899    41.626819   -910.30217    1490.9217    -3761.902    2.1801496    19.109671   0.13847181 
  188400   -950.44361    48.988836   -901.45478    1754.6025   -1520.9118    2.1751121    21.905133   0.12635791 
  188500   -948.91656    42.707489   -906.20907    1529.6274    10596.301    2.2052669    20.582025   0.12967917 
  188600   -952.67379    42.748346   -909.92544    1531.0907   -3984.2046    2.1791883    21.218627   0.11727757 
  188700   -949.48469    40.138564   -909.34612    1437.6178   -9800.7988    2.1585379    19.071774   0.13536579 
  188800     -945.661    44.412768   -901.24823    1590.7043    265.55226    2.1748864    20.489897   0.14501374 
  188900   -953.67084    46.140433   -907.53041     1652.583    10915.937    2.2147415    18.787392   0.13925159 
  189000    -949.8409    39.757064   -910.08383    1423.9538    -1475.225    2.1820033    17.215189   0.14217597 
  189100   -951.53311    42.578055   -908.95505    1524.9915   -10730.751    2.1591014    16.586613   0.13997035 
  189200   -948.49903    46.639107   -901.85992    1670.4437   -638.23871    2.1754322    17.983652   0.16146559 
  189300   -950.26246    42.748125   -907.51433    1531.0828    6190.5205    2.2017682    17.192779   0.13776101 
  189400   -951.87093    41.964607   -909.90632      1503.02   -258.60392    2.1865632    19.522671   0.13521365 
  189500   -952.09609    43.178999   -908.91709    1546.5151   -4943.9008    2.1766385    17.907049   0.13051638 
  189600   -946.10701    41.066429   -905.04058    1470.8505    1249.6488    2.1813294    17.509645   0.13668019 
  189700   -945.00094    45.676565   -899.32437    1635.9689    134.80656    2.1758262    19.378654   0.14628138 
  189800   -950.65941    42.664699   -907.99471    1528.0948     1202.403    2.1922743    17.232195   0.15831719 
  189900   -951.24164    41.857011   -909.38462    1499.1663   -332.39855    2.1908432    18.361564   0.14624184 
  190000   -949.66539    38.868502   -910.79689    1392.1288   -1129.1716    2.1873904    17.325524   0.15868065 
  190100    -955.9133     37.44737   -918.46593     1341.229   -1803.1044    2.1960837    17.688276   0.14231608 
  190200   -955.31672    40.643556   -914.67317    1455.7048    -1853.401    2.1951581    18.430953   0.13943096 
  190300   -951.28915    41.148807   -910.14034     1473.801    4691.5748    2.2014749    19.837961   0.14286341 
  190400   -949.30455      41.3331   -907.97145    1480.4017    1157.1495    2.1915361    19.525341   0.13131276 
  190500   -947.82924    39.400202   -908.42904    1411.1724   -4445.5689    2.1751623    19.991832   0.14123569 
  190600    -955.7761    39.665343   -916.11076    1420.6687   -528.53447    2.1987528    19.651949   0.12703026 
  190700   -950.58131    41.247476   -909.33383     1477.335    11482.876    2.2172215    19.718777   0.14499097 
  190800   -950.86498    43.376436   -907.48855    1553.5866    1613.8311    2.1914787    18.210173   0.16042684 
  190900   -948.64846    37.654743   -910.99371    1348.6563   -16918.445    2.1403635    15.005184   0.14721894 
  191000   -952.00496    37.480257    -914.5247    1342.4069   -4975.7527    2.1789265    15.801499   0.14959673 
  191100   -951.84556    45.548883   -906.29668    1631.3958    12294.819    2.2153229    18.267042   0.13586792 
  191200   -953.29584    44.742032   -908.55381    1602.4973    5349.4556     2.202848    19.706057    0.1304881 
  191300   -952.76469    39.156362   -913.60833    1402.4389   -7868.2133    2.1743348    22.291122   0.14283179 
  191400   -951.53835    43.745998   -907.79235     1566.823   -6825.8474    2.1715833    20.786992   0.12632201 
  191500   -950.10739    44.002519   -906.10487    1576.0106    7167.1296    2.1993675    19.188593   0.14098455 
  191600   -949.56937    39.637443   -909.93192    1419.6695    6809.0729    2.1997577    21.160363   0.14007544 
  191700   -951.43335    39.603432   -911.82992    1418.4513   -3904.7449    2.1780058    18.321536   0.13184061 
  191800   -947.10789    44.636028   -902.47186    1598.7007   -6773.6503     2.153517    18.489101    0.1548256 
  191900   -950.40272    41.928713   -908.47401    1501.7345    6562.1344    2.1989692     20.82741   0.14740816 
  192000   -952.42754    42.312617   -910.11492    1515.4845    9674.0303    2.2111481    19.553648   0.15723678 
  192100   -947.22155    42.191527   -905.03002    1511.1475   -482.18337    2.1750471    20.401157   0.14323583 
  192200    -948.9105    44.132664   -904.77784     1580.672   -9290.8251    2.1548029    20.366026   0.14008568 
  192300   -950.20811    39.046529   -911.16158     1398.505   -119.98996     2.187636       22.442   0.13062245 
  192400   -950.33218    43.022989   -907.30919    1540.9274    8108.8258    2.2059744    19.440933   0.12958057 
  192500   -952.46582    47.996996   -904.46882    1719.0783   -2058.1317    2.1823993    20.592681   0.13688421 
  192600   -951.96863    38.528091   -913.44054    1379.9365   -2707.6518    2.1852808    19.658289   0.14031706 
  192700   -953.52628    43.284779   -910.24151    1550.3038   -4169.1887    2.1823662    20.733836   0.15327819 
  192800   -949.00506    42.562053   -906.44301    1524.4184    2141.6345     2.187239    20.952392   0.15854102 
  192900   -955.26406    42.064937   -913.19913    1506.6135    304.43636    2.1984679    18.180212   0.13842277 
  193000   -953.86116    41.083065    -912.7781    1471.4464    -1988.844    2.1896101    18.843442   0.14247066 
  193100   -951.25163    43.600017   -907.65162    1561.5945   -2940.9845    2.1802479    18.808706   0.13137904 
  193200   -950.59361    40.831931   -909.76168    1462.4517    560.22073    2.1885988    20.983128   0.13284923 
  193300   -955.28015    39.464906   -915.81524    1413.4898    2773.4527    2.2077463    23.047268   0.13434434 
  193400   -949.29068    41.996845   -907.29384    1504.1747    95.173618    2.1833872    17.846011   0.12633909 
  193500   -951.96472    43.008364   -908.95636    1540.4036   -3284.6713    2.1845874    20.846541   0.12978129 
  193600   -954.19455    40.413855    -913.7807    1447.4777    1142.3693    2.1965599    18.385331    0.1404736 
  193700   -952.58544    43.914651   -908.67079    1572.8636    2506.2383    2.1983917    19.571273   0.14616524 
  193800   -949.76146     43.25311   -906.50835    1549.1695    3875.8204    2.1903028    19.834589   0.14466176 
  193900   -953.10764    42.317902   -910.78974    1515.6738   -8076.4821     2.172378    20.929327   0.14794852 
  194000   -949.46438    40.227242   -909.23714    1440.7939   -5928.4892    2.1693457    20.335019   0.13557732 
  194100   -951.36854    48.686925   -902.68161    1743.7891    7293.8348    2.2021309    21.838192   0.13589886 
  194200    -952.6176    44.418575   -908.19902    1590.9123    9344.6123    2.2120638     19.04933   0.12697227 
  194300   -951.87623    40.573221   -911.30301    1453.1856    -8003.544    2.1703797    22.547214   0.13291367 
  194400   -944.95515    41.038232   -903.91691    1469.8406   -11568.642    2.1476406    17.599674   0.15295265 
  194500   -950.63046    44.759509   -905.87095    1603.1233    3507.8435    2.1964946    18.623104   0.14914234 
  194600   -953.58198    43.828839   -909.75314    1569.7901    7593.3466    2.2140206    19.732179   0.14421604 
  194700   -950.82402    41.898692   -908.92532    1500.6592   -569.63242     2.185226    19.809369   0.15514713 
  194800   -946.32811    43.797009    -902.5311      1568.65   -8884.0119    2.1566152    21.267579   0.15148643 
  194900    -950.1805    39.363604    -910.8169    1409.8615    854.63671    2.1895773    19.149033   0.14862455 
  195000   -954.52946     43.92475   -910.60471    1573.2252    1500.8237    2.2001452    19.477067   0.14176717 
  195100   -951.57356    43.491843   -908.08172    1557.7201    1686.0552    2.1915003    19.242148   0.13536893 
  195200   -948.03302     42.41998   -905.61304    1519.3299   -4464.3181    2.1726271    22.810669   0.14701607 
  195300    -955.1666    40.162306    -915.0043    1438.4681    363.01916    2.1970208    19.506084   0.13681372 
  195400    -953.8723    42.348181   -911.52412    1516.7583   -50.780123    2.1919367    21.031096   0.14832548 
  195500   -950.35781    42.517194   -907.84061    1522.8117    -48.77681    2.1845891    18.520285   0.15769323 
  195600    -946.8096    38.285214   -908.52439    1371.2375    605.24262    2.1786892    18.155355   0.15048824 
  195700   -956.40192    40.537208   -915.86471    1451.8958     1588.091    2.2024862    19.896819   0.14019721 
  195800   -951.81491    43.098948   -908.71596     1543.648    4306.5982    2.1962936    20.962644   0.13009756 
  195900   -950.65805    42.280768   -908.37728    1514.3438   -2905.8458    2.1782243    21.580497   0.13513812 
  196000    -955.5928    40.634981   -914.95782    1455.3977   -7626.3242    2.1761523    19.970629   0.12242517 
  196100   -953.63445      42.1247   -911.50975     1508.754   -486.27821    2.1904378    19.405031   0.13303502 
  196200    -951.6494    44.760073   -906.88933    1603.1435    8151.3727    2.2060084     20.46238   0.14741706 
  196300   -951.86749    40.810815   -911.05667    1461.6954    583.27793    2.1902632    22.546544   0.14234152 
  196400   -951.08338    35.853853   -915.22953     1284.155    -7724.311    2.1714599    21.201509   0.14799543 
  196500   -948.96304    42.374925   -906.58811    1517.7161   -4923.3133    2.1733424    17.725256   0.15855564 
  196600   -949.53023     42.27782   -907.25241    1514.2382    12587.264    2.2143194     20.20166   0.13631051 
  196700   -951.83196    41.329467    -910.5025    1480.2716    6598.9018    2.2070681    19.649434   0.14247438 
  196800   -946.55856    39.774461    -906.7841    1424.5769   -5202.6342    2.1666143    18.838279   0.14903988 
  196900   -949.67871    45.775915    -903.9028    1639.5273   -7968.6635    2.1617098     22.89325   0.12691369 
  197000   -951.02799    41.386187    -909.6418    1482.3031    3002.0017    2.1963829    18.706545   0.13583483 
  197100    -952.3082    42.492726   -909.81548    1521.9354    6467.0166    2.2072107    19.369305   0.12383329 
  197200     -947.324    45.848702    -901.4753    1642.1342     -1014.03    2.1747492    23.143115   0.12977603 
  197300   -951.35122    42.416599   -908.93463    1519.2087   -4208.0904    2.1780289    20.342596   0.15129411 
  197400   -951.36723    41.040306   -910.32692    1469.9149   -1309.2407    2.1858199     20.32897   0.14004406 
  197500   -949.84618    44.016783   -905.82939    1576.5215    4088.0502     2.190964    17.826595   0.14217583 
  197600   -950.32299    47.026065   -903.29692    1684.3031   -554.19299    2.1828562    18.316161    0.1496885 
  197700    -952.5283    41.068744   -911.45956    1470.9335   -1155.2994    2.1917484    21.181795   0.12715097 
  197800   -950.65048    41.581986    -909.0685    1489.3159    2021.7006    2.1913256    18.144758   0.13150915 
  197900   -950.27541    44.572608    -905.7028    1596.4292   -209.13816    2.1875632    22.222611   0.13983209 
  198000    -950.6361    41.331378   -909.30472    1480.3401   -1829.1115    2.1864416     21.91773   0.11971361 
  198100   -953.37758    40.271962   -913.10561    1442.3956    -2832.523    2.1912986    19.612248   0.12809208 
  198200   -949.01841    39.867147   -909.15127    1427.8966    11693.838    2.2141424    21.201153   0.14930904 
  198300   -951.44122    45.167587   -906.27363    1617.7392    4630.7216    2.2032334    23.305181   0.14075247 
  198400   -952.70344    43.265052   -909.43839    1549.5973   -13334.813    2.1595811    20.707167   0.15375395 
  198500    -952.4792    38.659612   -913.81959    1384.6471   -8157.8503    2.1770477    19.852254   0.15368403 
  198600   -952.13852    44.336533   -907.80198    1587.9738    9341.6897    2.2175721    18.274856   0.15498468 
  198700   -953.03907    44.661761   -908.37731    1599.6223    5664.4887     2.213837    19.743016   0.14712787 
  198800   -956.08899    39.959896    -916.1291    1431.2186   -5600.5394     2.186598    20.820995   0.12902095 
  198900   -951.18104    41.610795   -909.57025    1490.3478    -9913.037    2.1641468    17.714964   0.13155928 
  199000   -946.00535    38.475728   -907.52962    1378.0611    5910.9285    2.1984256    22.362684   0.12716486 
  199100   -953.48449    41.835624   -911.64887    1498.4004    8833.6966     2.216061    19.806183   0.12463559 
  199200   -957.87238    42.422679    -915.4497    1519.4265   -2930.4276    2.1977088    19.381279   0.12603842 
  199300   -948.17005    42.009634   -906.16042    1504.6328   -9931.8984    2.1593165    20.330379   0.15257431 
  199400   -949.99871    40.968555   -909.03015    1467.3451   -435.54899     2.186819    18.640913    0.1538764 
  199500   -952.10946    41.589046   -910.52042    1489.5688    9281.0544    2.2141441    18.433654   0.15666078 
  199600   -946.10255    44.858126   -901.24442    1606.6554    2640.4957    2.1811824    19.824103   0.16843812 
  199700   -952.27787    45.203896   -907.07397    1619.0396   -7377.0128    2.1737872     17.78628   0.14462006 
  199800   -950.37234    39.367069   -911.00527    1409.9856    -2056.779    2.1872387    21.325974   0.14391385 
  199900   -950.52432    43.775796   -906.74853    1567.8902    2708.3946    2.1957871    21.786493    0.1353018 
  200000   -951.11024    47.170214   -903.94003     1689.466   -658.30989     2.184235    19.413925   0.13820633 
  200100   -951.33785    40.291618   -911.04623    1443.0996   -3061.9849    2.1832051    19.501126   0.13498032 
  200200   -949.76784    40.997578   -908.77026    1468.3846   -688.78431    2.1835291     16.04955   0.14918818 
  200300   -947.26559    44.838632   -902.42696    1605.9572    1857.8557    2.1867458    18.347517   0.15951543 
  200400    -952.3787    41.184613   -911.19408    1475.0835    6631.2451    2.2060377    17.402626   0.13231195 
  200500   -951.10748    40.852403   -910.25508    1463.1849   -7090.2125    2.1702766    18.802574   0.15042626 
  200600   -945.83289    39.163542   -906.66935    1402.6961   -11749.172    2.1514288    16.002378   0.16027572 
  200700   -955.72896    42.487241   -913.24172    1521.7389    5487.3312    2.2140565    18.253085   0.14004126 
  200800   -954.43391     42.10849   -912.32541    1508.1734    16215.678    2.2366301    21.096594   0.14564807 
  200900   -949.90249    41.844277   -908.05821    1498.7102   -1823.5582    2.1822444    17.212313   0.14105638 
  201000   -949.64844    41.093471   -908.55497    1471.8191   -15202.866    2.1511999    19.679666   0.14752775 
  201100   -952.88192    36.901252   -915.98067     1321.669    432.26753    2.1981877    19.577434   0.13671065 
  201200   -955.18298    45.490552   -909.69242    1629.3066    7265.1279    2.2126261    17.562166   0.13983976 
  201300   -949.91133    42.144486   -907.76684    1509.4626     3182.891    2.1955549    16.627422   0.15067751 
  201400   -948.62408    36.873681    -911.7504    1320.6815   -4045.5167    2.1750196    19.662827   0.14792271 
  201500   -954.23889    39.290256   -914.94863    1407.2345   -3631.8641    2.1868781    18.566401   0.13077875 
  201600   -952.38796    46.140049   -906.24791    1652.5692    490.99007    2.1905357    19.479763   0.14411277 
  201700   -950.96051    42.553435   -908.40707    1524.1097    3355.9052    2.1992217    19.236277   0.14213265 
  201800   -951.38581    39.702002   -911.68381    1421.9817   -506.56938     2.190948     20.85261   0.13757305 
  201900   -951.11421    45.668142   -905.44607    1635.6672   -4579.1974      2.17619     19.60865   0.15802144 
  202000   -942.71202    37.723772   -904.98825    1351.1287     4076.576    2.1869555    14.377463   0.15463781 
  202100   -952.24697    42.241751   -910.00522    1512.9463    1912.3834    2.1992403    20.608398   0.16028617 
  202200   -952.72586    42.697011   -910.02885    1529.2521    692.38364    2.1934017    21.056438    0.1375962 
  202300   -945.94475     44.49194   -901.45281    1593.5399   -7601.5159    2.1583562    17.457662   0.14150752 
  202400   -951.58759    41.751892    -909.8357    1495.4013     381.5255    2.1933809    18.081262    0.1420166 
  202500   -954.18901    44.652301   -909.53671    1599.2835    7530.8481    2.2128409    19.578859   0.13209365 
  202600   -951.32864    44.909771   -906.41887    1608.5051    1612.2188    2.1890397    18.998477   0.14372995 
  202700   -948.52382    45.941149   -902.58267    1645.4454   -13082.727    2.1462282    20.596855   0.14870225 
  202800   -953.00341    41.035867   -911.96754    1469.7559    -1438.251    2.1878938    18.456074   0.13168297 
  202900   -952.81314    44.090263   -908.72288    1579.1533    10989.364    2.2191472    18.776183   0.14840722 
  203000   -948.96116    42.210726   -906.75043    1511.8351    4952.7783     2.192524    18.796922   0.15512776 
  203100   -945.71141     45.75145   -899.95996     1638.651   -8985.7353    2.1502309    18.852875   0.16066891 
  203200   -952.06595    43.403943     -908.662    1554.5718   -4484.1026     2.180048    17.624153   0.14971096 
Loop time of 143.412 on 1 procs for 200000 steps with 217 atoms

Performance: 361.475 ns/day, 0.066 hours/ns, 1394.579 timesteps/s
100.0% CPU use with 1 MPI tasks x no OpenMP threads

MPI task timing breakdown:
Section |  min time  |  avg time  |  max time  |%varavg| %total
---------------------------------------------------------------
Pair    | 139.66     | 139.66     | 139.66     |   0.0 | 97.38
Neigh   | 0.62446    | 0.62446    | 0.62446    |   0.0 |  0.44
Comm    | 0.86172    | 0.86172    | 0.86172    |   0.0 |  0.60
Output  | 0.070232   | 0.070232   | 0.070232   |   0.0 |  0.05
Modify  | 1.8877     | 1.8877     | 1.8877     |   0.0 |  1.32
Other   |            | 0.3092     |            |       |  0.22

Nlocal:    217 ave 217 max 217 min
Histogram: 1 0 0 0 0 0 0 0 0 0
Nghost:    957 ave 957 max 957 min
Histogram: 1 0 0 0 0 0 0 0 0 0
Neighs:    4120 ave 4120 max 4120 min
Histogram: 1 0 0 0 0 0 0 0 0 0
FullNghs:  8240 ave 8240 max 8240 min
Histogram: 1 0 0 0 0 0 0 0 0 0

Total # of neighbors = 8240
Ave neighs/atom = 37.9724
Neighbor list builds = 1053
Dangerous builds = 8
Total wall time: 0:02:25
