LAMMPS (3 Mar 2020)

# ---------- 1. Initialize simulation ----------
units metal
atom_style atomic
dimension 3
boundary p p p
read_data /home/modeler/RemLabs/Project/arrhenius_4/T1700.0/n3_T1700.0_timestep3.000000e-03_eqsteps3200_time600_rseed3332/20201205-140738/lammps.data
  orthogonal box = (0 0 0) to (17.469 17.469 17.469)
  1 by 1 by 1 MPI processor grid
  reading atoms ...
  217 atoms
  read_data CPU = 0.00107548 secs

pair_style meam/c
pair_coeff * * library.meam Li Si LiSi.meam Li Si
Reading potential file library.meam with DATE: 2012-06-29
Reading potential file LiSi.meam with DATE: 2020-11-07

group Li type 1
1 atoms in group Li
group Si type 2
216 atoms in group Si

velocity all create 1700.0 3332 dist gaussian

# ---------- 2. Specify equilibration ensemble  ----------
fix 1 all npt temp 1700.0 1700.0 0.15 tchain 2 iso 1.0 1.0 1.0 pchain 2
# fix 1 all nvt temp 1700.0 1700.0 0.15

# ---------- 3. Run equilibration -------------
timestep 0.003
run 3200
Neighbor list info ...
  update every 1 steps, delay 10 steps, check yes
  max neighbors/atom: 2000, page size: 100000
  master list distance cutoff = 6
  ghost atom cutoff = 6
  binsize = 3, bins = 6 6 6
  2 neighbor lists, perpetual/occasional/extra = 2 0 0
  (1) pair meam/c, perpetual
      attributes: full, newton on
      pair build: full/bin/atomonly
      stencil: full/bin/3d
      bin: standard
  (2) pair meam/c, perpetual, half/full from (1)
      attributes: half, newton on
      pair build: halffull/newton
      stencil: none
      bin: none
Per MPI rank memory allocation (min/avg/max) = 8.895 | 8.895 | 8.895 Mbytes
Step Temp E_pair E_mol TotEng Press Volume 
       0         1700   -951.04357            0   -903.57924   -114721.17    5330.9442 
    3200    1676.2295   -943.64361            0   -896.84296   -17569.547    4737.4458 
Loop time of 2.29478 on 1 procs for 3200 steps with 217 atoms

Performance: 361.446 ns/day, 0.066 hours/ns, 1394.468 timesteps/s
100.0% CPU use with 1 MPI tasks x no OpenMP threads

MPI task timing breakdown:
Section |  min time  |  avg time  |  max time  |%varavg| %total
---------------------------------------------------------------
Pair    | 2.1799     | 2.1799     | 2.1799     |   0.0 | 94.99
Neigh   | 0.064629   | 0.064629   | 0.064629   |   0.0 |  2.82
Comm    | 0.015435   | 0.015435   | 0.015435   |   0.0 |  0.67
Output  | 2.5021e-05 | 2.5021e-05 | 2.5021e-05 |   0.0 |  0.00
Modify  | 0.029864   | 0.029864   | 0.029864   |   0.0 |  1.30
Other   |            | 0.004956   |            |       |  0.22

Nlocal:    217 ave 217 max 217 min
Histogram: 1 0 0 0 0 0 0 0 0 0
Nghost:    957 ave 957 max 957 min
Histogram: 1 0 0 0 0 0 0 0 0 0
Neighs:    4273 ave 4273 max 4273 min
Histogram: 1 0 0 0 0 0 0 0 0 0
FullNghs:  8546 ave 8546 max 8546 min
Histogram: 1 0 0 0 0 0 0 0 0 0

Total # of neighbors = 8546
Ave neighs/atom = 39.3825
Neighbor list builds = 109
Dangerous builds = 0

# ---------- 4. Describe computed properties----------
compute msdli Li msd
compute msdsi Si msd
thermo_style custom step pe ke etotal temp press density c_msdli[4] c_msdsi[4]
thermo 100

# ---------- 3. Run production -------------
timestep 0.003
run 200000
Per MPI rank memory allocation (min/avg/max) = 9.663 | 9.663 | 9.663 Mbytes
Step PotEng KinEng TotEng Temp Press Density c_msdli[4] c_msdsi[4] 
    3200   -943.64361     46.80065   -896.84296    1676.2295   -17569.547    2.1288493            0 5.7752933e-32 
    3300   -940.79276    44.514541   -896.27822    1594.3494    4955.2053    2.1826911   0.28990992   0.11595681 
    3400   -942.69432    46.707429   -895.98689    1672.8907    14568.221    2.2042617   0.24123414    0.1165773 
    3500   -935.68598     49.09746   -886.58853     1758.493   -11216.918    2.1246039   0.98547963   0.13413809 
    3600   -942.65613     50.55591   -892.10022    1810.7294   -8690.0216    2.1453938   0.19329081   0.15749441 
    3700   -945.22194     49.66264    -895.5593    1778.7357    9780.4756    2.1989807   0.58478854   0.14377048 
    3800   -946.26624    49.224763   -897.04147    1763.0525   -971.43119    2.1728687   0.24380871   0.11474362 
    3900   -943.95736    52.190647   -891.76671    1869.2797   -12707.932    2.1329536  0.064202827   0.13375682 
    4000   -936.50082    49.787882   -886.71294    1783.2214     1412.652    2.1577724   0.44988618    0.1187147 
    4100   -947.82213    52.441877   -895.38025    1878.2779    8470.6553    2.1966818   0.14924724   0.12047681 
    4200    -949.6777    52.578098   -897.09961    1883.1568   -6301.4311    2.1598709   0.16210396   0.11635324 
    4300   -944.06618     49.82411   -894.24207    1784.5189   -8238.4166     2.144638   0.36721929   0.13585732 
    4400    -940.3719    56.269947   -884.10196    2015.3854    5544.8057     2.167045   0.42392727    0.1446659 
    4500   -943.50063    49.463996   -894.03664     1771.621     10261.86    2.1915834   0.45740502   0.15179675 
    4600   -946.17261    48.961066   -897.21154    1753.6078   -12765.716    2.1407085   0.22370683   0.15322239 
    4700   -942.04866    46.329372   -895.71929    1659.3501   -1820.8741    2.1586852   0.54449577   0.14419784 
    4800   -953.18711    50.165502   -903.02161    1796.7463    7184.2028    2.2066297   0.15115604   0.13270122 
    4900   -949.01468    45.999498   -903.01518    1647.5352   -519.36126    2.1787342   0.17896157   0.12274816 
    5000   -943.32725    45.518188   -897.80906    1630.2964   -9214.3509    2.1493637  0.077911149   0.14467811 
    5100   -943.93161     48.97141    -894.9602    1753.9783    1852.3445    2.1752171   0.20212644   0.12899343 
    5200   -945.61797    44.579359   -901.03861     1596.671    9167.8296    2.1972523   0.25117858    0.1473447 
    5300   -945.24436    42.210892   -903.03347    1511.8411   -3377.9594    2.1715504   0.25828154   0.13726702 
    5400   -943.42754    47.051585   -896.37596    1685.2172   -5154.7919    2.1556446   0.17330712   0.14726466 
    5500   -944.62914    49.183978   -895.44516    1761.5917    3445.7543    2.1795515   0.17946915    0.1420015 
    5600   -948.80154    45.276455   -903.52508    1621.6384    5043.5738    2.1917621   0.33037292   0.14890769 
    5700   -942.31663    44.243639   -898.07299    1584.6467   -2985.7848    2.1581202   0.25970849   0.15269138 
    5800   -941.62448    46.666831   -894.95765    1671.4367    1634.7585    2.1694671   0.62322562   0.13720784 
    5900    -947.5374     50.01943   -897.51797    1791.5146    3278.6702    2.1809215   0.20648239   0.12997044 
    6000   -945.32699    43.040429   -902.28656    1541.5521   -18.287137    2.1714543   0.36191255    0.1262422 
    6100    -949.3527    46.037492    -903.3152     1648.896   -4227.5655    2.1694158   0.20686686   0.12133729 
    6200   -942.40812    48.025128   -894.38299    1720.0859    2562.7731    2.1703018    0.9109673    0.1420863 
    6300   -941.06836     45.35826    -895.7101    1624.5684    1000.6935     2.167282   0.14507276   0.14684254 
    6400   -942.35098    44.883666   -897.46731    1607.5701    316.32123     2.165996   0.14893171   0.13378172 
    6500   -950.98418    48.615814   -902.36837    1741.2421   -1121.6171     2.182964   0.20680676   0.13996967 
    6600   -948.29828    42.175897   -906.12238    1510.5877    5278.5513    2.1969363   0.34297643   0.14390722 
    6700   -942.72178    45.166402   -897.55538    1617.6967   -3896.1309    2.1605971   0.17890542   0.15877769 
    6800   -942.70698    45.898882    -896.8081    1643.9315   -5712.2399    2.1560566   0.48518236   0.15359208 
    6900   -942.66322    49.848749   -892.81448    1785.4014    8715.2423    2.1864738   0.63346559   0.14154265 
    7000    -936.3705     52.21414   -884.15636    1870.1211    2677.4404    2.1580963    0.1122172   0.14236015 
    7100    -939.7627    44.612146   -895.15055    1597.8453   -5447.9452    2.1504534   0.23314816   0.13921774 
    7200   -943.35233    46.571522    -896.7808     1668.023   -2178.4836    2.1661927   0.30960124   0.13148216 
    7300   -941.52372    46.053746   -895.46997    1649.4782     12173.83    2.1961917   0.35736024    0.1548669 
    7400   -943.19207    45.052544   -898.13953    1613.6187   -2329.8301    2.1626953   0.52569561   0.15439538 
    7500   -948.35444    43.515812   -904.83863    1558.5786   -8447.8031    2.1619988    1.4656833   0.15807574 
    7600   -942.23497    44.703106   -897.53186    1601.1031    11820.881    2.1888037    1.6301751    0.1806151 
    7700    -944.9716    50.989985   -893.98161    1826.2764    3562.3502     2.177445    2.3940001   0.16538236 
    7800   -940.61458    45.412865   -895.20172    1626.5241   -10002.798    2.1374526    9.2658881   0.16545454 
    7900   -949.69633    44.280465   -905.41587    1585.9657    1008.9637    2.1873164    14.520635     0.133494 
    8000   -943.74998     46.45897   -897.29101    1663.9918    13489.459    2.2025657    15.326806   0.13345734 
    8100   -945.78385    50.143462   -895.64039     1795.957    -7307.816    2.1536983     14.11582   0.12933318 
    8200   -942.86627    44.880121   -897.98615    1607.4432   -10968.804     2.139523      14.3848   0.12885721 
    8300   -946.09239    43.376344   -902.71604    1553.5833    13969.759    2.2134479    12.698445   0.14954958 
    8400   -946.21851     53.53731    -892.6812    1917.5123    3035.2899    2.1787567    12.874905   0.14811419 
    8500   -943.93723    48.101609   -895.83562    1722.8252   -13819.441    2.1305644    13.558204   0.14437888 
    8600   -942.39712    43.637691   -898.75943    1562.9438    1152.2525    2.1691155    13.558272     0.142357 
    8700   -947.27544    44.364792   -902.91064     1588.986    10660.319    2.2002116    13.837318   0.13704154 
    8800   -939.64406    46.798639   -892.84542    1676.1575   -2383.9639    2.1517326    15.098644   0.13812583 
    8900    -944.5107    47.653681   -896.85702     1706.782   -2335.9073    2.1641839    13.877376   0.13031592 
    9000   -948.47296    48.828641   -899.64432    1748.8649    1991.8877    2.1865617      13.4292   0.13603787 
    9100   -941.47412    52.196693   -889.27743    1869.4963    -449.0181    2.1611987    11.989729   0.13723392 
    9200   -944.42739    50.434726   -893.99266     1806.389   -1743.2745    2.1649884    12.585771   0.12327528 
    9300   -946.20732    47.219415    -898.9879    1691.2282   -2495.9938    2.1675487    12.357102   0.15011435 
    9400   -942.45843    48.600246   -893.85818    1740.6846    1706.8456    2.1714281     12.89364    0.1679999 
    9500    -940.0996    49.693875   -890.40572    1779.8544   -599.23873    2.1557914    17.003049   0.15855953 
    9600   -948.19338    49.106183   -899.08719    1758.8054   -4850.7953    2.1670867      15.5128   0.15440212 
    9700   -942.20699     46.40615   -895.80084       1662.1    4462.3781    2.1806137    12.489868   0.14856969 
    9800   -942.51244    53.395981   -889.11646    1912.4504    39.306045    2.1645293    16.469761   0.14534778 
    9900   -943.07673    44.861362   -898.21537    1606.7713   -5746.9146    2.1564344    14.251723   0.14728245 
   10000   -941.58693    43.120001   -898.46693    1544.4021    -2064.369    2.1634071    15.096736   0.14978435 
   10100   -945.46541     52.37563   -893.08978    1875.9051    9949.3487    2.1953582    13.901647   0.14920961 
   10200   -944.28092    45.220242   -899.06067    1619.6251   -1658.1127    2.1662518     15.56116    0.1432188 
   10300   -943.10536    40.346499   -902.75886    1445.0653   -9675.5948    2.1460073    16.440317   0.15434562 
   10400   -942.51672    47.002368   -895.51436    1683.4544    9548.6829     2.187042    17.724211   0.16218381 
   10500   -943.76366    48.573508   -895.19015    1739.7269    8617.0088      2.18937    16.958473   0.14967376 
   10600   -945.59047    42.917699   -902.67277    1537.1563   -7252.6969    2.1522426     15.26938   0.12760051 
   10700   -947.49526    47.659484   -899.83578    1706.9899   -3086.4154    2.1674491    14.951914   0.12326419 
   10800   -942.16318    48.250028   -893.91315     1728.141    6961.2728    2.1833657    14.678211   0.13590911 
   10900   -943.82912    45.302103   -898.52702     1622.557   -2319.4839    2.1647123    11.625184   0.13404092 
   11000   -947.30204    44.610218   -902.69183    1597.7762   -5847.4572    2.1638273    14.628257   0.13716926 
   11100    -941.4745    48.507191   -892.96731    1737.3517    4170.6374    2.1744146    12.652314    0.1435006 
   11200   -943.86963     49.87079   -893.99884    1786.1908     5966.239    2.1833483     15.16107   0.14619254 
   11300   -944.06683    45.550556   -898.51627    1631.4557   -6465.6211     2.157845    14.706217    0.1542744 
   11400   -943.53174    47.538954   -895.99279    1702.6729    -2894.392     2.160587    16.515958   0.15419548 
   11500   -937.74391    49.538743   -888.20517    1774.2981    4835.0242    2.1669044    13.704406   0.13293402 
   11600   -943.77344    47.659813   -896.11363    1707.0016     1484.673    2.1749075    14.127957   0.14605873 
   11700   -944.41077    46.013721   -898.39705    1648.0446   -4678.1843    2.1600246    14.465273   0.14223201 
   11800   -939.59494    49.172326   -890.42261    1761.1744    1219.5264    2.1650631    12.279918   0.14463182 
   11900   -939.79268    47.191176    -892.6015    1690.2168    6370.3319    2.1775162    12.459055   0.16496805 
   12000   -943.44101    45.088895   -898.35212    1614.9207   -3688.4032    2.1598541    12.743455    0.1267875 
   12100   -947.85536    51.669844   -896.18551    1850.6264   -6415.4794    2.1627375     15.89105    0.1371897 
   12200   -939.46838     51.69332   -887.77506    1851.4673    9291.6848    2.1845298    15.857013   0.16228105 
   12300   -945.35164    48.595181   -896.75646    1740.5032   -337.75731    2.1714039    13.522323   0.14459804 
   12400   -942.94427    44.091063   -898.85321     1579.182   -18742.743    2.1228756    13.262071   0.15207059 
   12500   -945.69078    51.899946   -893.79084    1858.8679    6496.5513    2.1842134    12.441414   0.14088781 
   12600   -942.43686    44.059539   -898.37732    1578.0529    14661.422    2.2021984     12.96321   0.14290422 
   12700   -949.59484    45.100424   -904.49441    1615.3336    -8577.784    2.1602004    14.746087   0.12341795 
   12800   -945.89005    48.965734   -896.92432     1753.775   -8503.4192    2.1505953    15.080269   0.12585617 
   12900   -946.54861    51.997392   -894.55121     1862.358    5764.0015    2.1832444    15.250725   0.14220064 
   13000   -946.58827    44.361247   -902.22702     1588.859    3417.8307    2.1832776    14.781271   0.12875329 
   13100   -941.16493    42.240198   -898.92473    1512.8907    -4921.142    2.1525634    15.195663   0.14832824 
   13200   -944.66654    50.170684   -894.49586     1796.932    1236.5534    2.1692918     15.12966   0.14004194 
   13300   -945.44629    48.126192    -897.3201    1723.7057    4472.3744    2.1801795    14.370384   0.15355854 
   13400   -951.91445    48.460003   -903.45445    1735.6616    -5652.394    2.1722612    13.453341   0.14426496 
   13500   -942.87148    46.173679    -896.6978    1653.7737   -1280.2123    2.1649296     12.74875   0.13593361 
   13600    -941.6645    46.945559   -894.71894    1681.4197    6068.2036    2.1810385    15.298771   0.15222136 
   13700   -941.99062    44.773404   -897.21722     1603.621   -340.42733    2.1632562    14.640519    0.1305428 
   13800   -944.74703    45.908782   -898.83825    1644.2861   -7082.5439    2.1547945    16.075944   0.12799182 
   13900    -952.2278    43.358859   -908.86894    1552.9571    8588.7811    2.2110134    15.956564   0.12145704 
   14000   -948.62285    48.140015   -900.48283    1724.2008   -1189.6348    2.1761733    13.599424   0.13176076 
   14100   -943.05821    45.558687   -897.49952    1631.7469   -9609.8277    2.1408456    14.770924   0.14326148 
   14200    -943.9736    48.877231   -895.09636    1750.6052    3197.9327    2.1765556    13.524693   0.13753398 
   14300   -948.61773    46.870616   -901.74712    1678.7355    9890.4179     2.202274    13.899224   0.14388552 
   14400   -945.77535    42.685754    -903.0896    1528.8489   -6134.2398    2.1572057    17.637617   0.14378584 
   14500   -945.38803    48.373881   -897.01415     1732.577   -8263.9572    2.1509358    14.633054   0.12554295 
   14600   -944.86813    49.711697   -895.15644    1780.4927    6709.4711    2.1906572    12.439297   0.13659693 
   14700   -946.27053    44.136523   -902.13401    1580.8102    3491.1086    2.1849445    14.918746   0.12820357 
   14800   -945.64851    42.707389   -902.94112    1529.6238    -7100.054    2.1578761     17.10092   0.11307962 
   14900   -941.60414     45.65688   -895.94726    1635.2639    548.59695    2.1687878    14.075716   0.13306456 
   15000   -943.50196    47.535243   -895.96671      1702.54    5703.2167     2.184954    13.700314   0.14013043 
   15100   -943.92454    43.043399   -900.88114    1541.6585   -1568.8534    2.1688267    14.180284   0.15066434 
   15200   -949.78919    42.897109   -906.89208    1536.4189   -4907.6618    2.1708331    11.929911   0.14339485 
   15300   -945.47359    48.141784   -897.33181    1724.2641    1701.9586    2.1746065    14.810066    0.1409922 
   15400   -948.75704    52.654784   -896.10226    1885.9034    1576.3382    2.1811929     15.79764   0.12153822 
   15500   -945.07884    47.463285   -897.61555    1699.9627   -7509.1752    2.1530648     10.56496   0.12964339 
   15600   -947.35722    40.199473   -907.15774    1439.7993   -6915.9087    2.1661266    15.115413   0.11090139 
   15700   -946.26318    45.152554   -901.11062    1617.2007    12418.883    2.2080752    14.021353   0.13967677 
   15800   -944.95395    49.177742   -895.77621    1761.3684    4469.6905    2.1816015    13.632788   0.13387799 
   15900   -941.53411    44.724802   -896.80931    1601.8802   -12522.749    2.1320124    12.578312   0.12189062 
   16000   -941.63285    40.744777   -900.88807    1459.3302    3108.5853    2.1776644    12.423168   0.14945205 
   16100   -943.67218    39.652807   -904.01938    1420.2198    19746.634    2.2204598    13.593266   0.15285032 
   16200    -941.7415    45.618122   -896.12338    1633.8757   -4787.1946     2.153896     15.91171   0.15862712 
   16300   -944.76635    47.599256   -897.16709    1704.8327   -12204.798    2.1423892    13.471511   0.14495608 
   16400   -944.55419    49.690238   -894.86396    1779.7241    7686.1967    2.1886522    14.446887   0.13741055 
   16500   -941.33426    54.921271   -886.41299    1967.0808    -1545.329     2.155272    16.289586    0.1199292 
   16600    -947.6216    51.225911   -896.39569    1834.7263   -7139.2292    2.1541436    12.783833   0.11615998 
   16700   -942.00698    45.370557   -896.63643    1625.0088    961.57568    2.1659617    19.495974   0.15539346 
   16800   -938.26951    48.332024   -889.93749    1731.0778    5328.1954    2.1686209    17.080881    0.1805504 
   16900   -942.89496    49.442312   -893.45265    1770.8443    932.61762    2.1648545    19.126261   0.15777989 
   17000   -943.92604    45.416257   -898.50979    1626.6456   -4762.0559    2.1567386    24.529035   0.16359563 
   17100   -943.10736    49.264306   -893.84306    1764.4688   -30.833401    2.1658666      32.0541   0.17254268 
   17200   -937.43966    46.403819   -891.03584    1662.0165    9115.3266    2.1765838    38.094236   0.18357416 
   17300   -946.28697    45.610365   -900.67661    1633.5979    630.03148    2.1711854    36.685336   0.16642771 
   17400   -945.32931    48.928683   -896.40063     1752.448   -12010.921    2.1398481    32.035731   0.16112524 
   17500    -940.3377     49.15237   -891.18533    1760.4596    7659.2244    2.1774954    30.866681   0.15746034 
   17600   -943.35456    44.246681   -899.10788    1584.7557    13155.644    2.1996862    39.566578   0.15620683 
   17700   -945.18345    48.351405   -896.83205     1731.772   -15654.938    2.1308142    44.253895    0.1483421 
   17800   -939.93657    48.141769    -891.7948    1724.2636     -6013.75    2.1424802    34.848008   0.17822285 
   17900   -941.78394    46.318176   -895.46577    1658.9491    16224.267    2.1955439    37.479205    0.1793144 
   18000   -942.72694    43.750702   -898.97623    1566.9915    4262.2956     2.174104    40.696795   0.16977707 
   18100   -938.12918    48.476685    -889.6525    1736.2591   -10234.051    2.1303267    29.186437   0.17855448 
   18200   -943.40554    47.375541      -896.03    1696.8201    2583.0686    2.1733277    33.094372   0.16886019 
   18300   -944.27163    46.661555   -897.61007    1671.2477    5382.7221    2.1818361    32.613389   0.15217056 
   18400   -940.72942    48.604322    -892.1251    1740.8305   -2104.2752    2.1568164    33.595892   0.13876721 
   18500   -945.29271    49.041153   -896.25155    1756.4762   -5599.8066    2.1578633    34.324875   0.12821873 
   18600   -944.19055    44.292799   -899.89775    1586.4074     4998.894    2.1839275     35.07767   0.14158791 
   18700   -942.94286    49.265813   -893.67704    1764.5228    3210.6936    2.1759899     31.89495   0.15226553 
   18800   -940.69103    44.454862   -896.23616     1592.212   -3208.7898    2.1545647    35.563892   0.14070749 
   18900   -946.59158    43.929779    -902.6618    1573.4054   -1285.0241    2.1758643    34.501586   0.15094267 
   19000   -945.76838    51.749929   -894.01845    1853.4948    4160.5152    2.1794281    34.397686   0.13631888 
   19100   -946.39538    49.978316   -896.41706     1790.042   -2502.2658     2.168147    32.269311   0.14248515 
   19200   -946.55489     42.51189     -904.043    1522.6217   -7805.8221    2.1635277      32.7095   0.14188927 
   19300    -944.8217    49.210251   -895.61145    1762.5327    3480.4745    2.1809412    32.677329   0.13290734 
   19400   -945.05373    51.640365   -893.41337    1849.5706    10483.109    2.1979016    32.456076   0.14026982 
   19500   -944.10135    43.370491   -900.73085    1553.3737   -13585.592    2.1402126    36.017439   0.13291826 
   19600   -940.90281    45.543908    -895.3589    1631.2176   -8998.2306    2.1452062    33.191009    0.1759422 
   19700   -939.55756     49.94386    -889.6137     1788.808    15607.895    2.1998373    34.280267   0.16857381 
   19800   -946.44354    49.116977   -897.32656     1759.192   -182.58721    2.1781135    34.697195   0.16634839 
   19900   -944.69971    46.121549   -898.57816    1651.9066   -11131.396    2.1466432    35.685432   0.15478969 
   20000   -939.69674    50.330382   -889.36635    1802.6518    907.74612    2.1658166    33.550899     0.149602 
   20100   -945.34778    49.375151   -895.97263    1768.4388    6674.7121    2.1915902    31.183552   0.15043089 
   20200   -946.83733    47.927046   -898.91028     1716.573   -6917.1992    2.1610582    33.363515   0.14358617 
   20300   -941.08558    47.992806   -893.09277    1718.9282   -4751.2383    2.1509376    33.438174   0.14259098 
   20400   -941.91799    47.026836   -894.89116    1684.3307    7233.8393    2.1830898    32.722653   0.17141644 
   20500   -946.22387    45.076077   -901.14779    1614.4616    5840.7843    2.1911207    34.781006   0.16340512 
   20600   -945.55839    49.465219   -896.09318    1771.6648   -7045.9347    2.1562297     32.17841   0.16961054 
   20700   -942.74126     48.52593   -894.21533    1738.0228     -2777.84    2.1620811    29.332314   0.17058334 
   20800   -948.06528    45.036575   -903.02871    1613.0468    7918.4526    2.2025626    30.758024   0.16059182 
   20900   -941.29611    45.944241   -895.35187    1645.5561    -399.2569    2.1643337    33.326701   0.15622748 
   21000   -943.76615    48.811514   -894.95464    1748.2514   -6175.2585    2.1559327    32.640127   0.14157649 
   21100   -945.70427    45.442308   -900.26197    1627.5787     4020.676    2.1887494    35.730361   0.14483429 
   21200   -948.76969    47.856406   -900.91329    1714.0429    7820.8508    2.1999093    31.977989   0.14749904 
   21300   -942.45311    49.599448   -892.85366    1776.4724   -13563.967    2.1347138    34.391759   0.14468866 
   21400   -945.68684    47.242661   -898.44418    1692.0608   -9005.3712    2.1555398    35.738277   0.16696852 
   21500   -944.85357    48.160071    -896.6935    1724.9191     18640.45    2.2227101    31.314383    0.1813895 
   21600   -941.35802    53.069829   -888.28819    1900.7688   -1019.6447    2.1592462    36.976806   0.15001486 
   21700   -944.02784    48.527469   -895.50037     1738.078   -13825.795    2.1380061    30.355881   0.14660805 
   21800   -942.54547    44.600763   -897.94471    1597.4376    2691.6409    2.1804324    35.019155   0.14883869 
   21900   -943.48318    49.942209   -893.54097    1788.7488    7022.3206    2.1914639    32.860661   0.16498149 
   22000   -938.69951    48.001917    -890.6976    1719.2546   -3377.7042    2.1472692    37.543025   0.13053719 
   22100   -943.13213    42.875446   -900.25668     1535.643   -1696.8411    2.1692741    36.833794   0.13974002 
   22200   -944.28802    48.577706   -895.71032    1739.8773    4966.3223    2.1872062     38.13046   0.15057813 
   22300   -945.66661    51.981022   -893.68559    1861.7717   -3162.7865    2.1655073    33.648259    0.1358353 
   22400   -947.44286    43.807731   -903.63513    1569.0341   -5701.5659    2.1668049    33.444839   0.13792758 
   22500   -947.51214    48.100782   -899.41136    1722.7956    -2939.412    2.1698571     32.37911   0.14875665 
   22600   -944.24821    50.192027   -894.05618    1797.6964    5457.6581    2.1815014    33.880047    0.1312111 
   22700   -946.60925    47.342762   -899.26649     1695.646   -2931.7165    2.1700102    33.449843    0.1319698 
   22800   -946.02191    42.246852   -903.77505     1513.129   -3728.1929    2.1665415    34.788661   0.13900113 
   22900    -943.1197     48.04001   -895.07969    1720.6189    2355.9812    2.1721596    36.289047   0.13932485 
   23000   -944.21883    48.426397   -895.79244    1734.4579    7201.8244    2.1895174    33.614987   0.15237245 
   23100   -947.95501    45.177088   -902.77792    1618.0795   -5811.7352    2.1641732    34.570387   0.12859274 
   23200   -939.50074    45.269985   -894.23076    1621.4067   -8875.5929    2.1406581      33.9503   0.13880587 
   23300   -943.33249    50.470698    -892.8618    1807.6774    16488.282    2.2087456    32.774961   0.13929404 
   23400   -942.76827    45.725885   -897.04238    1637.7354    3933.5009    2.1781084    34.091339   0.14465551 
   23500   -943.42926    50.815514   -892.61375    1820.0274    -17714.28    2.1241129    30.269343   0.15052274 
   23600   -937.00585     49.18176   -887.82409    1761.5123   -323.38626    2.1536796    35.198238   0.18306329 
   23700   -944.27656     49.80997   -894.46659    1784.0125    10877.824    2.1960084    31.489176   0.16344039 
   23800   -949.01097    52.237396   -896.77357    1870.9541   -6167.5375    2.1625015    31.830503   0.14563802 
   23900   -941.71937    50.124773    -891.5946    1795.2876   -7056.6034    2.1451318    55.700962   0.15880104 
   24000   -940.87191    53.379867   -887.49205    1911.8732   -906.29861     2.161112    58.746022   0.13722601 
   24100   -944.18906    48.720589   -895.46847    1744.9948    4293.1946    2.1796987    58.079964   0.14712411 
   24200   -943.23036    45.965736   -897.26462     1646.326    531.02339    2.1720938    58.251638   0.15147901 
   24300   -941.68871    46.172811    -895.5159    1653.7427    -2406.907    2.1603333    58.172024   0.14174188 
   24400   -939.81879    52.840164   -886.97863    1892.5431   -4032.7902    2.1486946      55.3975   0.15139724 
   24500   -942.44854    46.534545     -895.914    1666.6986    6245.8954    2.1855619    59.265832   0.13474835 
   24600   -945.18584    47.591766   -897.59408    1704.5644     1126.851    2.1747854    55.050284    0.1506944 
   24700   -945.05652    52.157741   -892.89878    1868.1011   -10327.074    2.1472901    63.269901   0.14490749 
   24800   -940.76156    52.446207   -888.31535    1878.4329   -25.820969    2.1620271    61.740382   0.16679437 
   24900    -947.6503    51.379211   -896.27108     1840.217    11810.017    2.2067272    57.377371   0.15451855 
   25000   -943.93019    46.829402   -897.10079    1677.2593   -3875.6631    2.1602862    60.591149   0.15049945 
   25100    -942.5612    50.560312   -892.00088     1810.887   -15963.957    2.1272153    57.642147    0.1558312 
   25200   -946.03244     47.57101   -898.46143    1703.8211    11101.937    2.1998827    59.624047   0.13998503 
   25300   -945.31602    45.247236   -900.06879    1620.5919    8890.7226    2.1981794    63.902791   0.15758621 
   25400   -944.74612    47.863779   -896.88235     1714.307   -12146.153    2.1422645    57.793612   0.14939658 
   25500   -941.73526    47.023108   -894.71215    1684.1972   -1900.2944    2.1618209    56.655299   0.13953964 
   25600   -949.92774    46.636778   -903.29096    1670.3602    8905.3436    2.2053048    56.595526   0.14952936 
   25700   -940.43702    42.601457   -897.83557    1525.8297    2291.7694    2.1713823     57.45984   0.14435641 
   25800   -942.02763    46.756537   -895.27109    1674.6496   -3205.6976    2.1549925    59.492652   0.15107976 
   25900   -943.91417    45.756316   -898.15785    1638.8253    2856.9609    2.1771277     61.69271   0.14620919 
   26000   -948.49667    44.130541   -904.36613    1580.5959    4422.0279    2.1927896    56.998037    0.1460493 
   26100   -941.40769    47.341524   -894.06617    1695.6017   -4912.2419    2.1507105    56.277139   0.14276417 
   26200   -941.91312     46.05041   -895.86271    1649.3587     1633.764    2.1714434    58.179542    0.1471375 
   26300   -945.48876    46.461288   -899.02747    1664.0749    5832.2058    2.1862056    58.001923   0.13742735 
   26400   -940.80616    45.835149   -894.97101    1641.6488   -1955.9874    2.1630481    60.685064   0.14701957 
   26500   -934.37575    43.427235   -890.94851    1555.4061   -1398.7137    2.1481896    62.376804   0.16317348 
   26600   -944.69719    47.597267   -897.09992    1704.7615    2203.3679    2.1780179    57.191061   0.14615704 
   26700   -944.12297    46.489195   -897.63377    1665.0744    6660.5409     2.187202    59.039525   0.13313258 
   26800   -937.63674    49.736107   -887.90064     1781.367   -7023.1606    2.1329343      55.5024   0.14052074 
   26900    -942.0727    46.605569   -895.46713    1669.2425    -1285.671    2.1625209    59.162087   0.14570106 
   27000   -944.30657    47.634464    -896.6721    1706.0938    14726.806    2.2052051    59.239767   0.15856424 
   27100   -944.03317    47.449959   -896.58321    1699.4855   -2035.7376    2.1576155    63.447396   0.14085898 
   27200   -940.66823    50.994142   -889.67409    1826.4252   -17877.417    2.1149479     60.29802   0.14367649 
   27300   -947.99524    47.244682   -900.75056    1692.1332    10695.527    2.2062091    55.440937    0.1324342 
   27400   -943.48181    45.515988   -897.96583    1630.2176    6415.8082    2.1841685    59.591483   0.15254069 
   27500   -942.04499    46.662313   -895.38268    1671.2748    -9732.473    2.1419055    60.142657   0.14762325 
   27600   -943.08269    51.706175   -891.37652    1851.9277   -1551.1937    2.1609536    57.779047   0.12199684 
   27700   -949.53964    47.432461   -902.10718    1698.8587    11929.097    2.2113842    58.211728   0.13335531 
   27800   -945.29319    47.105132   -898.18806     1687.135    -7322.101    2.1565702    55.736485   0.11763878 
   27900     -940.309    45.134551   -895.17445    1616.5559   -4803.7278    2.1513203    60.142366   0.15044378 
   28000   -944.03629    45.912601   -898.12369    1644.4229    8355.5269    2.1904582    54.844802   0.16643575 
   28100   -948.30714     44.74719   -903.55995    1602.6821    6699.0573    2.1959708    58.230697    0.1390638 
   28200   -941.76587    45.970792   -895.79507     1646.507   -6601.5966    2.1479394    61.122713   0.14764842 
   28300   -942.77618      46.8507   -895.92548    1678.0222   -1492.4414    2.1630484    56.156308   0.12750325 
   28400    -948.8258    46.067508    -902.7583    1649.9711    7892.4637    2.2005741    54.945737   0.13541253 
   28500   -943.79978    48.920372   -894.87941    1752.1503    -1858.523    2.1647477     53.95646   0.15037307 
   28600   -943.94906    49.246159    -894.7029    1763.8188    -4441.436    2.1578279    60.646926     0.139601 
   28700   -945.27733    46.995731    -898.2816    1683.2167    2471.3322     2.177235    59.294716   0.13580056 
   28800   -948.26973    46.534739   -901.73499    1666.7056     1347.748    2.1864022    62.165638   0.13282493 
   28900   -938.11521    47.210476   -890.90474     1690.908   -4422.5624    2.1443124    60.321462   0.16529293 
   29000    -942.3928    46.679192   -895.71361    1671.8794    3110.3797    2.1778285    61.487385   0.16320115 
   29100   -946.37283    48.332162   -898.04067    1731.0828    5614.2639     2.194163    60.164657   0.15955775 
   29200   -939.85208    48.737743   -891.11434    1745.6092   -7056.4055    2.1416163    60.268792   0.15749726 
   29300   -939.21565    47.587263   -891.62838    1704.4032   -6278.0559    2.1438522    58.273143   0.14423518 
   29400   -943.55775    47.007511   -896.55024    1683.6386     16524.28    2.2075391    62.381359   0.13753408 
   29500   -945.63793    48.010645   -897.62728    1719.5672    4388.5052     2.185703    57.163596   0.14309182 
   29600   -936.11311    45.779856   -890.33326    1639.6684   -15186.345    2.1163004    57.681094   0.13773017 
   29700   -947.50531    51.451909    -896.0534    1842.8208    -1301.167    2.1690768    57.418347   0.13486545 
   29800   -946.45821     48.26701    -898.1912    1728.7493    11206.575     2.203427    58.442884   0.16304412 
   29900   -941.56128    45.741105   -895.82018    1638.2805   -3231.1304    2.1604158    63.600183   0.15570951 
   30000    -939.2028    45.741884   -893.46092    1638.3084   -7530.7024    2.1441652    59.519228   0.17152763 
   30100   -948.62583    45.439639   -903.18619    1627.4831     7727.175    2.2006531    58.588612   0.15531441 
   30200   -945.61909    49.526175   -896.09291     1773.848    1824.5467    2.1778968    57.982733   0.14516979 
   30300   -940.53183    45.133728    -895.3981    1616.5265   -5977.0602    2.1500896    56.643098   0.14865551 
   30400   -947.19298    45.471072   -901.72191    1628.6089   -2506.3854    2.1738418    56.843315   0.13552199 
   30500   -946.54829    45.433122   -901.11517    1627.2497    7199.3168    2.1945532    58.644312   0.14498536 
   30600   -940.81768    46.658923   -894.15875    1671.1534    -735.2368    2.1591863    60.610923   0.13524076 
   30700   -941.78763    43.675803   -898.11182    1564.3089   -5648.9736    2.1535398    58.937891   0.16160237 
   30800   -945.51474    43.705593   -901.80914    1565.3758     5734.856    2.1935543    57.988189   0.15574793 
   30900    -941.1954    49.909382   -891.28602    1787.5731    1898.4878    2.1712661    60.641127   0.16624229 
   31000   -940.97238     45.40468    -895.5677     1626.231   -5064.2904    2.1568515    56.454059   0.15485723 
   31100    -945.1482    45.756603   -899.39159    1638.8356   -1154.3345    2.1737142    59.250612   0.12979491 
   31200   -945.80531     50.57074   -895.23457    1811.2605    14333.788    2.2109992    56.950895   0.15509756 
   31300   -937.24039     46.56456   -890.67583    1667.7737   -4733.9538    2.1445259    55.016288   0.15264283 
   31400   -945.38905    45.918418   -899.47063    1644.6312    -15340.66    2.1386025    59.512505   0.14411151 
   31500   -945.36302    49.179046   -896.18398    1761.4151    10716.927     2.201048    62.961462   0.15624165 
   31600   -942.48784    51.184689   -891.30315    1833.2499    7401.0235    2.1848096    56.943865   0.14382398 
   31700   -940.99463    47.634365   -893.36027    1706.0902   -10283.705    2.1384294    53.932137   0.14617006 
   31800   -949.42398    49.607444   -899.81653    1776.7588   -3282.1227    2.1726739    55.544458    0.1565038 
   31900   -940.86496    47.262609   -893.60235    1692.7752    11634.993    2.1935894    59.395941   0.14954255 
   32000    -945.4962    50.067775   -895.42843    1793.2461   -4552.6841    2.1577736    68.267847   0.13818497 
   32100   -949.79724    46.117008   -903.68023     1651.744   -4550.3892    2.1723949    62.434753   0.12822257 
   32200   -945.88767    50.318368   -895.56931    1802.2215    865.55175    2.1774981    57.120348   0.13995545 
   32300   -942.94912    47.902494   -895.04663    1715.6936    2501.8519    2.1736814    60.648969   0.15135108 
   32400   -946.34715    42.801849    -903.5453     1533.007   -2441.2733    2.1691576    62.711321   0.16200101 
   32500   -944.07866    47.350383   -896.72828     1695.919   -2567.1746    2.1646951    58.792933   0.15109185 
   32600    -943.5522    49.687013   -893.86518    1779.6086    5169.3896    2.1828175    56.996155   0.15187037 
   32700   -944.71762    44.435463   -900.28216    1591.5171   -577.84191    2.1718629    62.996596   0.15087785 
   32800   -940.78293    45.026203   -895.75672    1612.6753   -6154.2968    2.1479388    59.531706   0.15300104 
   32900   -943.03317    51.106351   -891.92682    1830.4442    2904.3111    2.1760757    60.044308   0.14140259 
   33000   -943.21534    46.231135   -896.98421    1655.8316    7199.5777    2.1855524    62.240899   0.14799695 
   33100   -946.98465    46.750137   -900.23451    1674.4204   -12274.406    2.1471544    58.676713   0.14712649 
   33200   -942.35444    51.774678   -890.57976    1854.3812   -6831.6594    2.1469496    58.398847   0.15784936 
   33300     -939.975    44.827237   -895.14776    1605.5491    20554.595    2.2113162    57.226325   0.16958157 
   33400    -943.1623    43.969593    -899.1927    1574.8314    -2651.323    2.1628946    62.426749    0.1734148 
   33500   -943.48085    48.830042   -894.65081     1748.915   -12693.135    2.1361435    62.935783   0.14783311 
   33600   -942.35139    52.611753   -889.73963    1884.3622    5168.2887    2.1756486    61.823579   0.16356109 
   33700   -947.06765    47.103804   -899.96384    1687.0875    7443.0048    2.1949035    59.606308    0.1500661 
   33800   -944.14326    46.783182   -897.36008    1675.6039    -8738.484    2.1459452    61.796801     0.142058 
   33900   -940.67173    47.402628    -893.2691    1697.7902   -2054.6455    2.1533782    56.790787   0.15401463 
   34000   -947.14263    45.020684   -902.12194    1612.4776    8601.8142    2.1963893    60.341976   0.14688402 
   34100   -945.78054    47.499994   -898.28054    1701.2775   -1842.4405    2.1674247    60.083992    0.1421007 
   34200    -941.8946    47.349323   -894.54528     1695.881   -5867.7186    2.1507833    56.969746   0.15393093 
   34300   -944.22026    44.903991   -899.31627    1608.2981    2330.2133    2.1761343    56.698648    0.1387439 
   34400   -949.01564    46.987376   -902.02827    1682.9174    4295.8611     2.190825    61.315948   0.13838833 
   34500   -942.02271    49.037011    -892.9857    1756.3279   -5832.6262     2.147773    59.593573   0.14723262 
   34600   -946.28155    48.379168   -897.90238    1732.7663   -4605.4593    2.1603411    62.411361   0.13046483 
   34700   -945.20828    45.630795   -899.57749    1634.3296    7847.7907    2.1943941    60.836108   0.14213306 
   34800    -941.1844    51.708819   -889.47558    1852.0224   -1469.5366    2.1549615    57.744529   0.13697445 
   34900   -946.42228     49.86056   -896.56172    1785.8244   -8256.8437    2.1502384    55.766731    0.1277327 
   35000   -943.01298    44.623894   -898.38909    1598.2661    4362.0019    2.1810519    59.939413   0.14315685 
   35100   -939.02234    47.700667   -891.32167    1708.4649    11578.038    2.1851148    58.847355   0.15327111 
   35200   -942.54303     50.19496   -892.34807    1797.8014   -11657.033    2.1355362     65.83098    0.1719598 
   35300   -946.43609     46.22054   -900.21555    1655.4521   -13057.285    2.1455934    59.086016   0.13494202 
   35400   -945.94677    51.171143   -894.77563    1832.7648    15297.899    2.2124425    56.381542   0.13973196 
   35500   -940.23918    48.626406   -891.61277    1741.6215     4444.691    2.1791446    56.117613   0.15337044 
   35600    -942.0196    42.977645   -899.04195    1539.3034   -14349.569    2.1298289    61.616354   0.12705553 
   35700   -943.17975    43.864197   -899.31555    1571.0565   -1121.3938    2.1727619    61.028894   0.14000196 
   35800   -941.18945    48.571179   -892.61827    1739.6435    9804.8373    2.1926751    63.334193     0.136767 
   35900   -947.09544    49.121857   -897.97358    1759.3668   -6375.8018    2.1604706    57.921989   0.12272603 
   36000   -947.33382     44.70857   -902.62525    1601.2988   -6754.4122    2.1638183    58.591267   0.15212987 
   36100   -941.27757    47.642341   -893.63523    1706.3759    5485.6071    2.1767238    58.817139     0.150005 
   36200   -945.59731    49.337443   -896.25987    1767.0883    2707.1974    2.1794516    58.792873   0.13212945 
   36300   -950.26654    46.947507   -903.31904    1681.4894   -6510.9211    2.1676462    62.163141   0.13234257 
   36400   -943.57924    49.407917   -894.17133    1769.6124   -2686.4405    2.1585933    60.876629   0.12465917 
   36500   -943.40104    48.682794   -894.71824    1743.6411    8914.5474    2.1892101    56.594095   0.13492892 
   36600   -947.55756    46.584861    -900.9727    1668.5008    -1094.745    2.1752245    56.885189   0.13782496 
   36700   -939.27056    46.911444   -892.35911    1680.1978   -6791.1628     2.140499    60.716822   0.12809751 
   36800      -941.37     47.84126   -893.52874    1713.5004    5998.0559    2.1781991    62.473058   0.15338459 
   36900   -947.47333    48.554947   -898.91838    1739.0621    5424.5014    2.1911643    59.326365   0.15244238 
   37000   -940.19301    46.262282   -893.93073    1656.9472    -5354.974    2.1473014    59.813504   0.14637147 
   37100   -937.59197    46.031984   -891.55999    1648.6987   -2784.9364    2.1508055    60.490898   0.15410475 
   37200   -944.46251    45.865601   -898.59691    1642.7395     13926.06    2.2054617    57.049683   0.14606456 
   37300   -942.36602    45.841735   -896.52429    1641.8847    2814.8703    2.1742424    59.192866   0.15452676 
   37400   -937.85487    45.416392   -892.43848    1626.6505   -16473.376    2.1177803    59.076984   0.15465501 
   37500   -949.00769     46.82094   -902.18675    1676.9563    2943.5265    2.1896941    66.905915   0.13740779 
   37600   -948.52042    51.433413   -897.08701    1842.1583    15888.163    2.2132986     58.41044   0.14163625 
   37700   -938.93961    44.194246   -894.74536    1582.8776   -7552.4026    2.1459195    61.140715   0.16665877 
   37800   -941.70865     45.05856   -896.65009    1613.8342   -8934.3086    2.1478824    63.213711   0.16004238 
   37900   -947.41521     45.89242   -901.52279       1643.7     9321.011    2.2004569    58.810997   0.13748534 
   38000   -941.94932    48.668881   -893.28044    1743.1428    3491.5802    2.1693285    67.920466   0.14751398 
   38100   -943.21934     47.46052   -895.75882    1699.8637   -3356.3748    2.1601904    65.399932   0.15319398 
   38200   -945.69482    43.413921    -902.2809    1554.9292    572.79639    2.1790502    61.838905   0.16025578 
   38300   -941.76577    48.598925   -893.16685    1740.6372     5503.078    2.1715033    55.341661    0.1564843 
   38400   -943.58085    48.144881   -895.43597     1724.375    2848.3241    2.1721055    59.815865    0.1493686 
   38500   -943.85944    41.899655   -901.95978    1500.6937   -1158.1068    2.1681863    61.813372   0.13524276 
   38600   -940.49186    47.038439   -893.45342    1684.7463    1342.3036    2.1643712    62.153744   0.14274387 
   38700   -943.27812    49.266392   -894.01173    1764.5435    6449.4482    2.1822661    60.426564   0.14130637 
   38800   -944.35082    43.693048   -900.65777    1564.9265   -269.18365    2.1715339    59.101611   0.14672896 
   38900   -935.58809    42.199924   -893.38817    1511.4482   -1572.4855    2.1480946    61.423367   0.15483482 
   39000   -943.63806    50.680952    -892.9571    1815.2079      4898.45    2.1785283    60.212433    0.1439619 
   39100   -949.23654    49.774398   -899.46214    1782.7384    5356.9403    2.1922958    58.558157   0.14920405 
   39200   -942.70543    48.512379   -894.19305    1737.5375   -7997.6432    2.1436817    57.343179   0.14357464 
   39300   -939.09707    46.286686   -892.81038    1657.8212   -4678.8477    2.1487921    56.662614     0.144452 
   39400   -946.54379    46.994433   -899.54936    1683.1702    13738.902    2.2088074     55.18198    0.1409173 
   39500   -945.53462    50.462223    -895.0724    1807.3738    979.65388    2.1728986    59.615098   0.15289447 
   39600   -944.00255    50.236877   -893.76567    1799.3028   -16959.328    2.1242188    60.823143   0.13682708 
   39700    -946.1527    44.947495    -901.2052    1609.8563    3640.3917    2.1833816    58.557551   0.14252129 
   39800    -945.8157    48.493373   -897.32233    1736.8568    12479.784    2.2065694    56.953198   0.13580224 
   39900   -943.52308    49.947252   -893.57583    1788.9294   -6986.3917    2.1493269    54.628583   0.13544806 
   40000    -946.0299    44.806166   -901.22373    1604.7944   -7388.2376    2.1586904    55.220594   0.15068033 
   40100   -942.76828    44.135142   -898.63314    1580.7607    7314.5606    2.1872564    59.184285   0.15390769 
   40200   -940.30251    47.868094   -892.43442    1714.4615    3099.4104    2.1675446    63.878991   0.15821571 
   40300   -944.27894    44.439594   -899.83934    1591.6651   -4245.3844    2.1612108    57.539599   0.14671683 
   40400   -945.76288    46.440618   -899.32226    1663.3345   -1759.9898    2.1716691    59.719364   0.14318939 
   40500   -935.86446    44.196489   -891.66797     1582.958    5129.7802    2.1734365    53.733819   0.16680895 
   40600   -948.79997    49.896326   -898.90365    1787.1055   -4721.8873    2.1708948    55.946111   0.13863471 
   40700   -948.03861    48.371524   -899.66708    1732.4926   -5956.1505    2.1630479    59.774047   0.11932452 
   40800   -941.43562    50.193358   -891.24226    1797.7441   -519.09077    2.1610907     55.62128   0.14972679 
   40900   -946.18039      48.0194   -898.16099    1719.8808    5991.2459    2.1879286    55.691204   0.14802806 
   41000   -945.96301    46.072586   -899.89042    1650.1529   -4274.7597    2.1655933    59.355756   0.16159362 
   41100   -938.33621    46.637284   -891.69892    1670.3784   -5433.3603    2.1409382    60.241236   0.15399839 
   41200   -948.72528    49.682842   -899.04244    1779.4592    10972.203    2.2006831    61.311962   0.13570383 
   41300   -944.88087    46.035227   -898.84564    1648.8149    7817.8974    2.1890469     59.50093   0.14501995 
   41400   -939.93237    46.223521   -893.70884    1655.5589   -12386.045    2.1277916    60.193193   0.14740324 
   41500   -941.48391    47.433986   -894.04993    1698.9133   -272.88585    2.1604062    59.254867   0.13703533 
   41600   -947.43139    47.566303   -899.86509    1703.6525    16158.022    2.2188714    54.858459   0.14252583 
   41700   -941.49749    47.573358   -893.92413    1703.9052   -4532.2777    2.1572168    57.022801   0.14458732 
   41800   -941.51008    46.652697   -894.85739    1670.9304   -10683.123    2.1397854    57.925266   0.13978012 
   41900   -944.38078    43.480179    -900.9006    1557.3023    7338.3255    2.1913907     57.04314   0.14725145 
   42000   -942.96354    49.385973   -893.57757    1768.8265    3762.6063    2.1799507    56.828194   0.16114237 
   42100   -944.04915    50.288899   -893.76025     1801.166   -5606.4367    2.1540755     62.47356   0.14882838 
   42200   -944.27449    43.614615   -900.65988    1562.1173   -1892.6107    2.1693321    59.127878   0.15143353 
   42300   -941.65975    46.448161   -895.21159    1663.6047     7274.078    2.1807529    66.144461   0.16017975 
   42400   -941.63095    49.313632   -892.31732    1766.2355    598.90106    2.1638613    59.773224   0.13774359 
   42500   -945.54092    44.654671   -900.88625    1599.3684   -4202.8686    2.1653833    61.542985   0.14516187 
   42600    -944.8748    49.372763   -895.50204    1768.3533   -875.48917    2.1695993     55.72495   0.13504411 
   42700   -941.69736    50.087343   -891.61002     1793.947    4398.2686    2.1748038    55.480701   0.14020771 
   42800   -945.50579    44.825756   -900.68004     1605.496   -842.12616     2.172833    58.899006   0.13477791 
   42900   -944.08293    47.959858   -896.12307    1717.7482   -7699.7954     2.148442    63.306919   0.14410783 
   43000   -939.76344    47.967235    -891.7962    1718.0124    5493.0097    2.1675527    61.941209   0.16165745 
   43100   -944.35278    44.397687   -899.95509    1590.1642    12140.043    2.1978703    57.177071   0.13393613 
   43200   -942.93184    46.796827   -896.13502    1676.0926   -7461.2444    2.1424365    59.835931   0.14286438 
   43300   -942.78524    49.218724   -893.56652    1762.8362   -9037.9049    2.1388385    61.452461    0.1304837 
   43400   -949.44104    50.184188   -899.25685    1797.4156    12176.538    2.2053772    57.838891   0.12856062 
   43500   -945.92859    46.060701   -899.86789    1649.7273    5760.8453    2.1828645    61.532515   0.13300956 
   43600   -939.39996    46.263486   -893.13648    1656.9903   -11794.177    2.1220842    59.829213   0.13924499 
   43700    -946.6369    47.362407   -899.27449    1696.3497   -261.74363    2.1719206     57.86751   0.13041319 
   43800   -947.95714    48.574572   -899.38257     1739.765    9740.6369    2.1965687     60.21788    0.1388176 
   43900    -941.0875    48.676152   -892.41135    1743.4033   -4676.5426    2.1493515    56.865209   0.13588961 
   44000   -942.95527    44.700185   -898.25508    1600.9985   -4998.2925    2.1532786    61.976467   0.13103088 
   44100   -945.81186    46.276264    -899.5356     1657.448    3467.6063    2.1844511     60.81007   0.14415077 
   44200   -943.59853    52.441608   -891.15692    1878.2682    976.23367    2.1687722    64.817988   0.13218414 
   44300   -944.52163    46.823193   -897.69844     1677.037   -4355.3773    2.1576389    60.088342   0.14817128 
   44400   -943.82862    43.617404   -900.21122    1562.2172    -187.9779    2.1686088    56.667081   0.13336247 
   44500   -939.21723    48.020935   -891.19629    1719.9357    3778.9968    2.1676419    60.022293   0.14307052 
   44600   -943.04549    45.540482   -897.50501    1631.0949     1421.516    2.1719793    53.338758   0.13888053 
   44700    -943.5731    42.856931   -900.71617    1534.9798   -3666.1514    2.1644946    55.357507   0.15152153 
   44800   -941.72006    49.755351    -891.9647    1782.0562   -1142.9756    2.1619871    59.120134   0.15209781 
   44900   -944.09053    46.586928    -897.5036    1668.5748    8632.3122    2.1889267    59.505353   0.15509322 
   45000   -943.59914    42.917338   -900.68181    1537.1434   -2277.4498    2.1689266    65.443148   0.14835528 
   45100   -944.13178    51.202122   -892.92966    1833.8743   -12177.118    2.1380132    59.223994   0.13744723 
   45200   -946.90925    50.377591   -896.53166    1804.3426    8914.3399    2.1976615    55.991043   0.14090974 
   45300   -944.63372    45.078561   -899.55516    1614.5506    9388.8091    2.2024529    55.242893   0.14313505 
   45400   -942.88168      48.4641   -894.41758    1735.8083    -12054.52    2.1319257    58.875335    0.1549897 
   45500   -941.47691    48.426444   -893.05046    1734.4596    -5392.515    2.1536306    61.696307    0.1476641 
   45600   -946.41739    47.130125   -899.28727    1688.0302    14187.602    2.2132518     57.15148   0.14661487 
   45700   -944.70458    50.566776    -894.1378    1811.1185    748.59222    2.1687779    59.291887   0.13505173 
   45800   -938.94829     45.57295   -893.37534    1632.2578   -9882.1521     2.137892    60.429113   0.15414975 
   45900   -946.38445    45.830294   -900.55415    1641.4749    3960.8455    2.1881445     60.14128   0.13399692 
   46000   -945.68023    49.482002   -896.19823    1772.2659    7177.5041    2.1940068    62.823077    0.1497384 
   46100    -939.7289    46.677885   -893.05101    1671.8325   -4152.4698    2.1516015    59.372636   0.14397269 
   46200    -946.4586    44.871516   -901.58708     1607.135   -3661.8071    2.1697498    58.143233   0.14729793 
   46300   -942.64164    45.945762   -896.69588    1645.6106    7181.3581    2.1884344    57.973394     0.156842 
   46400   -943.04024    50.466526   -892.57371    1807.5279   -744.37649    2.1691191    57.519953   0.15135052 
   46500    -947.5604     46.31634   -901.24406    1658.8833     -4786.62     2.161585    58.357564   0.13340843 
   46600   -945.10268     48.20131   -896.90137    1726.3961   -925.81254    2.1712939    61.904858   0.14491413 
   46700   -942.89901    51.100847   -891.79816     1830.247    2675.1369    2.1719632    64.697823    0.1371112 
   46800   -943.82857    43.128424   -900.70015    1544.7038     928.2727    2.1743695    59.507749   0.15427734 
   46900   -941.78929     45.14765   -896.64164    1617.0251   -2508.4776    2.1593064     58.07968   0.15383773 
   47000   -943.69733    51.890664   -891.80667    1858.5354    2267.2877    2.1677716    60.573665   0.14619631 
   47100   -944.23571    44.233469   -900.00224    1584.2824    6883.7715     2.189993    57.080633   0.16090007 
   47200   -941.47029    44.568179   -896.90212    1596.2705   -7143.1462    2.1504292    58.975982   0.15958067 
   47300      -942.72    49.924828   -892.79518    1788.1263   -5461.7214    2.1512632    60.379663   0.13794776 
   47400   -946.89744    48.481316   -898.41612    1736.4249    13618.716    2.2109377    53.109982   0.15438791 
   47500   -947.45055    47.069361   -900.38119    1685.8538    300.42429    2.1783261    61.598416   0.14381279 
   47600   -941.05735    48.274492   -892.78285    1729.0172   -15990.803    2.1167671    61.556435   0.15094703 
   47700   -947.22967    49.394167   -897.83551    1769.1199     2713.925    2.1850112    58.997679    0.1449419 
   47800   -947.81907    48.473356   -899.34572    1736.1398    11109.565    2.2056343    61.427984   0.13754482 
   47900   -943.37542    50.238456   -893.13697    1799.3593   -9079.4414    2.1443968    57.988956    0.1393489 
   48000   -943.88766    48.384511   -895.50315    1732.9577   -7410.8599    2.1471504    53.375534   0.14713528 
   48100   -948.80874    48.810286   -899.99846    1748.2074    8225.0728    2.1963286    58.804163   0.14468501 
   48200   -938.45209    46.724851   -891.72724    1673.5147    4445.0535    2.1709214    53.471961   0.16966305 
   48300   -942.99182    47.461525    -895.5303    1699.8997   -8829.0049    2.1460843    60.950923   0.14582387 
   48400   -947.45368    46.737167   -900.71651    1673.9558   -449.73387    2.1767402    57.490044   0.13898586 
   48500   -943.34172    51.288068   -892.05366    1836.9526    6644.9706    2.1843537    60.588696   0.14077512 
   48600   -941.26971    46.850211    -894.4195    1678.0047   -1011.8584    2.1621056    61.218356    0.1357443 
   48700   -943.98314    42.711594   -901.27155    1529.7744   -6591.1896    2.1563067    59.786696   0.13456546 
   48800   -945.54211    51.569468   -893.97264    1847.0313    638.59713    2.1724477    57.656181   0.15257919 
   48900   -943.02543    49.985082   -893.04034    1790.2843    6612.8694    2.1783077    55.448053   0.14713821 
   49000    -946.0772    44.978622   -901.09858    1610.9711   -3477.7157     2.165054    56.359015   0.14374187 
   49100   -942.03923    46.763873   -895.27535    1674.9123   -2615.3504    2.1586709    59.984447   0.15993209 
   49200   -941.96782    50.169098   -891.79872    1796.8751    5329.2325    2.1756306    59.432336   0.15143947 
   49300   -946.48365     45.60338   -900.88027    1633.3477    4836.6362    2.1819867    59.665811   0.13798247 
   49400   -943.40175    47.400834   -896.00092     1697.726   -6177.4125    2.1494099    63.597202   0.14055707 
   49500   -937.86271    45.307893   -892.55482    1622.7644    1051.1205    2.1628709    59.853883   0.15966818 
   49600   -946.80463    46.102897   -900.70173    1651.2386    10462.775    2.2025549    59.353429   0.14746525 
   49700   -942.65064    46.971622   -895.67902    1682.3531   -6114.7014    2.1506452    58.851629   0.15310622 
   49800   -937.75951    43.581198   -894.17831    1560.9205   -13829.333     2.125488    60.994454   0.15821604 
   49900   -943.95178      45.7743   -898.17748    1639.4694     17025.51     2.216353    59.049958   0.14621821 
   50000   -948.03104    47.587552   -900.44349    1704.4135    9434.6165    2.2014188    61.261497   0.14408505 
   50100   -941.90069    48.468799   -893.43189    1735.9766   -15031.735    2.1219299    60.141917   0.15583883 
   50200   -943.71484    46.876107   -896.83874    1678.9321   -2576.2113     2.160003     59.96514   0.13653121 
   50300   -946.98523    47.476241   -899.50899    1700.4268    13734.584    2.2087073    60.422556   0.15298968 
   50400   -942.53745    51.124452     -891.413    1831.0925   -1772.6217    2.1588707    59.806867   0.13641067 
   50500   -947.08895    51.069984   -896.01896    1829.1416   -11223.706    2.1448535    59.482276   0.13733966 
   50600     -950.029    50.565257   -899.46374    1811.0641    2642.8574    2.1852382    57.017173   0.13784113 
   50700   -949.17595    58.240248   -890.93571    2085.9545    4020.2979    2.1826831     57.36431   0.13433773 
   50800   -944.50211    49.830716   -894.67139    1784.7555   -5685.0442    2.1537208    61.097489   0.14905882 
   50900   -948.03454    47.145461   -900.88908    1688.5794   -6489.3944    2.1616664    58.037748   0.14671325 
   51000   -941.14083    47.871081   -893.26975    1714.5685    10108.834    2.1903962    64.958972   0.16761527 
   51100   -943.32302    49.249813   -894.07321    1763.9497    2776.3224    2.1737431    58.028808   0.15734046 
   51200   -945.53304    43.520491   -902.01255    1558.7462   -5854.3428    2.1586325    61.586244   0.13638154 
   51300   -942.85464    47.395078   -895.45956    1697.5198   -540.02597    2.1683538    61.315211   0.13571645 
   51400   -942.53711    49.583998   -892.95311     1775.919    6725.5276    2.1819433    59.162786   0.15145842 
   51500   -947.42898    45.342357   -902.08663    1623.9988   -1347.8977     2.173821    58.257601    0.1425778 
   51600   -943.15636    47.066426   -896.08993    1685.7487   -5861.8936    2.1523139    58.005862   0.15182325 
   51700   -940.21707    47.301004   -892.91607    1694.1504    4940.1657    2.1754898    62.557044    0.1521928 
   51800   -946.47111    45.493048   -900.97806     1629.396    6468.0458    2.1917292    52.401257     0.144774 
   51900   -941.34545    46.546807   -894.79864    1667.1378   -4831.2732    2.1514009     61.99729   0.15874291 
   52000   -943.87078    50.613167   -893.25761    1812.7801   -3642.2987    2.1570849     58.55134    0.1488477 
   52100   -946.68358    48.564476    -898.1191    1739.4034    9174.3614     2.199122    56.631606   0.13374327 
   52200   -939.87438    46.620339   -893.25404    1669.7715    1899.9037     2.175863    59.010441   0.16257099 
   52300    -939.7373     48.30463   -891.43267    1730.0967   -20740.433     2.113096    69.944994   0.16362155 
   52400   -943.92615    45.919403   -898.00675    1644.6665    4404.4951    2.1789444     83.54785   0.16706572 
   52500   -944.97466    50.633159    -894.3415    1813.4961    20559.505    2.2199955    85.902587   0.17190507 
   52600   -941.34037    49.892015   -891.44835     1786.951   -5510.8277    2.1518249    88.449838   0.17932886 
   52700   -944.50418    47.289545   -897.21463      1693.74   -14285.225    2.1319977    58.280108   0.16905434 
   52800   -944.75876    46.056271   -898.70249    1649.5686    8184.2111    2.1940536    55.188636   0.16327528 
   52900   -938.63908    46.804348   -891.83473     1676.362    9821.0353    2.1873215    58.472955   0.18627768 
   53000   -943.58062    47.892909   -895.68772    1715.3503   -10831.925    2.1476749    61.218105   0.16144616 
   53100    -946.2036    44.823364   -901.38024    1605.4104   -4069.4024    2.1694201    68.373608    0.1787971 
   53200    -938.2193    47.225184   -890.99412    1691.4348    9922.3304    2.1843266    65.483889   0.18781122 
   53300   -944.75254    49.655322   -895.09722    1778.4735     1147.276    2.1733009    67.744612   0.17072562 
   53400   -943.35432    42.118442   -901.23587    1508.5298   -7711.4741    2.1539675    56.834015   0.16493204 
   53500   -939.58757    46.917823   -892.66974    1680.4263   -605.25154    2.1599196    77.303443    0.1561478 
   53600   -944.16465    50.860892   -893.30376    1821.6527     8610.462    2.1883208    82.136507   0.15871728 
   53700   -948.07153    47.160306   -900.91122    1689.1111   -1935.7468     2.173734    62.546715   0.16587921 
   53800   -943.10439    49.627516   -893.47687    1777.4776   -7823.8631    2.1470229    62.179393    0.1813112 
   53900   -937.59252     46.08791   -891.50461    1650.7018    6652.6207    2.1755334    60.871974   0.17837172 
   54000   -947.33022    48.283529   -899.04669    1729.3409    3841.3072    2.1889564    60.393201   0.16285512 
   54100   -940.43637    46.936118   -893.50026    1681.0815   -8842.8553    2.1404274    53.662408   0.17702179 
   54200   -940.73165    49.300603   -891.43104    1765.7688   -5369.4424    2.1509297    57.610238   0.18138562 
   54300   -946.85398    49.123958   -897.73002     1759.442    7699.9122    2.1966635      58.3778   0.16407771 
   54400    -944.2094    48.859375   -895.35003    1749.9656     1079.674    2.1729882    54.798526   0.18318535 
   54500   -937.83962    46.476528   -891.36309    1664.6207   -12477.449    2.1200323    59.641239    0.1615404 
   54600   -945.79073    44.916141   -900.87459    1608.7333    6128.7197    2.1895135    52.866685   0.14341177 
   54700   -945.60688    49.982501   -895.62438    1790.1919    16334.724    2.2099346    63.391849   0.13904127 
   54800   -939.92695    46.450811   -893.47614    1663.6996   -11734.724    2.1311659    62.636966   0.13437563 
   54900    -942.4453    48.236849   -894.20845     1727.669    -11343.36     2.136181    58.932739   0.14689822 
   55000   -945.74004    45.671068   -900.06897     1635.772    13430.377    2.2029096    62.244569   0.13986586 
   55100   -943.23438     51.80548    -891.4289    1855.4844    1023.4158    2.1671677    56.889749   0.15115999 
   55200   -940.49742    45.610783   -894.88664    1633.6129   -8455.7709    2.1459123     53.60402   0.15433364 
   55300   -942.02123    42.181171   -899.84005    1510.7766    1520.8291    2.1679672    54.729326   0.16061898 
   55400   -943.69322    53.438812   -890.25441    1913.9845      6626.05    2.1816683    64.141599   0.13944177 
   55500   -940.22367    46.686314   -893.53736    1672.1345    3367.6868    2.1674544    59.619851    0.1497311 
   55600   -943.68128    43.216743   -900.46454     1547.867   -6720.2762    2.1540058    63.357673   0.11769444 
   55700   -946.54949    52.246575   -894.30291    1871.2829   -1191.4976    2.1708991    55.153515   0.12750354 
   55800   -942.12469    51.170735   -890.95396    1832.7502    7282.1095    2.1791432    56.615432   0.12794777 
   55900   -946.31514    46.232667   -900.08247    1655.8865   -2152.7573    2.1715366    59.048168   0.14202263 
   56000   -941.09878    44.958405   -896.14037     1610.247    -3938.655    2.1555959    58.377158   0.14708424 
   56100   -941.98925    50.935396   -891.05385    1824.3212    2937.4684    2.1699252    55.898289   0.14153176 
   56200   -945.53835    45.123435   -900.41492    1616.1578    8773.4509    2.1927232    61.379972   0.13948488 
   56300   -943.41047    46.776176   -896.63429     1675.353   -8946.1837    2.1462802    56.177158   0.13084925 
   56400   -940.46182     47.26132    -893.2005    1692.7291   -4499.8165    2.1533754    56.428245   0.13495487 
   56500   -948.25954    48.081948   -900.17759     1722.121    13325.751    2.2137014    56.124229   0.13530169 
   56600   -945.04864    45.730167   -899.31847    1637.8887   -2236.4204    2.1684022    58.091661   0.12117241 
   56700   -940.01861    45.736364   -894.28224    1638.1107   -15670.997    2.1188041    55.249245   0.14593254 
   56800   -941.57437    46.741552   -894.83281    1674.1129    12131.538    2.1934343    68.160079   0.15176887 
   56900    -944.1232    42.755911   -901.36729    1531.3617    13583.283    2.2073627    57.862373   0.17414333 
   57000   -941.60699    49.935816   -891.67117    1788.5198   -13296.448     2.128659    59.761126   0.13573722 
   57100   -946.46669    50.710885   -895.75581      1816.28   -4593.1179    2.1607996    59.310839   0.13995037 
   57200   -945.76492    47.137409   -898.62751     1688.291    7849.7915    2.1894008    57.806277   0.14511805 
   57300   -940.22259    49.333159   -890.88943    1766.9348    1100.0537    2.1628986    63.778684    0.1578728 
   57400   -940.09322    46.428036   -893.66519    1662.8839   -3588.2501    2.1544413    60.675107   0.15225336 
   57500   -944.32401    45.354961   -898.96905    1624.4502    17.969626    2.1713717     61.71153   0.14797791 
   57600   -945.25924    51.490181   -893.76906    1844.1915    4807.5353     2.180104    59.367177    0.1407525 
   57700   -941.86808    50.867703   -891.00038    1821.8966   -1645.8454     2.153563    61.536951   0.15189218 
   57800   -943.15343    42.688136    -900.4653    1528.9342    743.73875    2.1675297    57.269353   0.14780022 
   57900   -941.22393    45.228998   -895.99493    1619.9387    5606.3434    2.1803554    58.594605   0.15900978 
   58000   -945.10431    52.814221   -892.29009    1891.6139   -1525.3368    2.1628684    63.288791    0.1525765 
   58100   -948.57188    46.744671   -901.82721    1674.2246   -6127.4106    2.1601228    60.083181   0.14767787 
   58200   -944.43413    44.996912   -899.43722    1611.6262   -1000.8983    2.1686704    61.442554   0.15484383 
   58300   -947.25611    53.737196   -893.51891    1924.6715    4948.7035    2.1846236    56.961486   0.13204735 
   58400   -943.26287    44.508191   -898.75468     1594.122   -474.16265    2.1680858    58.709787    0.1393853 
   58500   -947.23908    43.586318   -903.65276    1561.1039   -10103.282    2.1575745    58.703416   0.13133972 
   58600    -943.6354    48.736413   -894.89899    1745.5616    5099.8757    2.1793934    58.275486   0.15492756 
   58700   -944.78461    49.231804    -895.5528    1763.3047    7571.9552     2.188594    58.535779   0.15521402 
   58800   -944.53036    41.542915   -902.98744    1487.9165   -7763.4123    2.1531323    60.301638   0.15293622 
   58900   -936.48735    40.872418   -895.61493    1463.9018   -1925.8392    2.1523488    58.782062   0.15927171 
   59000   -944.98269    53.012984   -891.96971    1898.7328    13350.812    2.2018472     57.17712   0.15657615 
   59100   -949.41435    50.427513   -898.98684    1806.1306   -2067.2509    2.1729335    56.004117   0.13552185 
   59200   -941.40039    45.193983   -896.20641    1618.6846   -9072.8594    2.1421879    56.700649   0.14780482 
   59300   -940.18004     50.26133   -889.91871    1800.1786    2900.3802    2.1659327    58.849664   0.13979508 
   59400   -942.35627    45.139545   -897.21673    1616.7348    6578.6331    2.1879752    53.249231   0.13726433 
   59500    -944.1276    45.502917   -898.62468    1629.7495   -1581.5397    2.1661622    58.704829      0.13774 
   59600   -939.11181     49.87115   -889.24066    1786.2037   -3285.1084    2.1464659    59.506359   0.14540553 
   59700   -942.97471    45.614941   -897.35977    1633.7618    5962.3775    2.1852922    58.036765   0.17483199 
   59800   -940.73947    42.123169    -898.6163    1508.6991    2451.0235    2.1724916    65.129959   0.15802744 
   59900   -939.34513    46.806858   -892.53827    1676.4519   -4629.4681    2.1563838    56.406773   0.15407723 
   60000   -942.17762    47.450957   -894.72667    1699.5212    911.36399    2.1679137    57.078837   0.14201506 
   60100    -945.7124    45.623137   -900.08927    1634.0553    4583.7952    2.1852064    55.170445   0.13925952 
   60200   -944.20628     49.13839   -895.06789    1759.9589   -881.86819    2.1692583    55.316433   0.12612581 
   60300   -943.86244    48.957146    -894.9053    1753.4674   -6980.4074    2.1512625    54.419027   0.14553804 
   60400   -948.22143    44.185716   -904.03571    1582.5721    5136.4296    2.1948568    59.707191   0.13030515 
   60500   -946.98813     51.27281   -895.71532    1836.4061    4729.1002    2.1891666    63.459802   0.13541704 
   60600   -943.86113    48.310175   -895.55095    1730.2953   -9315.8838     2.147032    59.092425   0.15647185 
   60700    -946.5188    45.429631   -901.08916    1627.1246   -6444.4155    2.1575226    55.211275   0.15232183 
   60800   -947.74081    47.755408    -899.9854    1710.4255    16865.322    2.2248454    57.341919   0.17253876 
   60900   -941.64312    49.293662   -892.34945    1765.5202    3897.3835    2.1746687    59.587233   0.15990957 
   61000     -944.827    46.883237   -897.94376    1679.1875   -15462.164     2.134534    57.508355   0.15539106 
   61100   -941.09276    44.771206   -896.32155    1603.5422    4555.9092    2.1777157     51.91245   0.15141573 
   61200    -939.9796    51.820928   -888.15868    1856.0377    6537.4526      2.18005    60.930212   0.15721767 
   61300   -944.73557    47.562634   -897.17293    1703.5211   -3209.8565    2.1650795    63.192731   0.15001622 
   61400   -943.09253    44.855777   -898.23676    1606.5713   -4954.4418    2.1600765    57.094719   0.15387489 
   61500   -941.61198    51.719977     -889.892     1852.422    4762.6767    2.1724764    57.827374   0.16056597 
   61600   -944.48972    49.078321    -895.4114    1757.8075    2982.5606     2.177743    55.911352   0.16247928 
   61700   -943.06814     43.71913   -899.34901    1565.8607   -5517.3978    2.1552917    54.818069   0.14584622 
   61800   -946.59257    52.564476    -894.0281    1882.6689   -1435.6863    2.1686445    58.730976   0.16291969 
   61900   -941.95383    49.088474   -892.86536    1758.1711    7167.1268    2.1799381     55.94273   0.14971052 
   62000   -945.45314    43.541049   -901.91209    1559.4825     1588.409    2.1774336     61.72295   0.14061885 
   62100   -943.94223    46.898692   -897.04354    1679.7411    -4767.556    2.1572646    57.961752   0.14013891 
   62200   -943.49177    49.857611   -893.63416    1785.7188    861.58541     2.174779    56.892034   0.14530858 
   62300   -945.53642    42.929985   -902.60643    1537.5964    7216.3024    2.1976681    54.662372   0.15441888 
   62400     -946.066    47.168855   -898.89714    1689.4173   -11965.834    2.1444082    58.432176   0.13209691 
   62500   -944.88554    49.384731   -895.50081     1768.782   -5085.0489     2.160486    55.869498   0.14972994 
   62600   -944.13935    48.253489   -895.88586     1728.265    14910.895    2.2095594    54.628047   0.14821894 
   62700   -946.74951    42.614823   -904.13468    1526.3084   -2258.6875     2.173141    56.449704   0.13138471 
   62800   -942.16766    47.310164    -894.8575    1694.4785   -16455.744    2.1230387    59.387191   0.15054215 
   62900   -942.58239     48.85668   -893.72571    1749.8691    11547.053    2.1918804    58.227875   0.14579607 
   63000   -946.32959    47.549318   -898.78028    1703.0441    7581.6777    2.1948444    59.708865    0.1445739 
   63100   -942.21218    47.619418   -894.59276    1705.5549   -7629.5824    2.1470847    58.074861   0.14556356 
   63200   -940.21956    49.118581   -891.10098    1759.2495    -3304.393    2.1525911    57.465369   0.15507419 
   63300   -944.76491     47.16578   -897.59913    1689.3072    5077.4194    2.1878186    55.221252   0.14749998 
   63400   -942.59114    44.387415   -898.20373    1589.7962    3287.5664    2.1755404    59.244811   0.12675941 
   63500   -937.23952    47.868057   -889.37147    1714.4602   -6415.5797    2.1409951    63.458164   0.15302317 
   63600   -945.31847    47.115807   -898.20266    1687.5174    4415.2988    2.1826024    60.966845   0.12263468 
   63700   -947.85936    49.888224   -897.97114    1786.8153    2281.2787    2.1802341     53.60485   0.13740434 
   63800    -942.9559    49.705453   -893.25045    1780.2691   -8417.3115     2.150237    59.451781   0.14501911 
   63900   -942.61918    51.986673   -890.63251    1861.9741   -4979.7178    2.1534514    52.659098   0.14748369 
   64000    -946.8459    47.312807   -899.53309    1694.5732      12452.4     2.200513    58.391481   0.13840125 
   64100   -949.68836    53.605682   -896.08268    1919.9611   -6107.0813    2.1659293    60.936559   0.13873941 
   64200   -940.09621    45.538551   -894.55766    1631.0257   -12095.527    2.1300189     58.24975    0.1337337 
   64300   -951.35236    46.738338   -904.61402    1673.9978    6330.2384    2.2008357    56.530739   0.14114701 
   64400   -944.03488    45.901299   -898.13358    1644.0181    11586.575    2.2003955    58.827579   0.13626567 
   64500   -939.44874    43.951709   -895.49703    1574.1908   -7750.6452    2.1395549    58.854675   0.14930535 
   64600   -943.45768     46.53769   -896.91999    1666.8113   -8323.9188    2.1476746     64.48386   0.14631842 
   64700   -949.13245    46.441138   -902.69132    1663.3531    13144.239    2.2160473    54.889012    0.1405993 
   64800   -943.60919    50.805875   -892.80332    1819.6822   -452.34626    2.1632719    57.984802    0.1490021 
   64900   -941.52416    45.332693   -896.19147    1623.6527   -5922.0056    2.1516672    55.387494   0.15837347 
   65000   -944.76221    45.424133   -899.33807    1626.9277    2355.3209    2.1790401    55.754181   0.15008751 
   65100    -945.7833    47.210183   -898.57311    1690.8975    6183.3593    2.1846085    60.830275    0.1401942 
   65200   -941.18085    50.205455    -890.9754    1798.1773   -7105.4636    2.1454492    65.178261   0.14665055 
   65300   -944.34399    47.436668   -896.90732    1699.0094   -3143.3909    2.1620491    64.224214   0.15635174 
   65400   -943.61835    46.363342   -897.25501    1660.5668    9265.5859    2.1919663    61.767079   0.14462801 
   65500   -940.13788    52.125633   -888.01225    1866.9511   -1870.2771    2.1538709    55.972103   0.14397066 
   65600   -939.95803    46.538751   -893.41928    1666.8493   -5509.8823    2.1473155     53.43741   0.15171231 
   65700   -940.84198    43.294245   -897.54773    1550.6429    4240.1861    2.1755521    60.530553   0.13204229 
   65800   -941.68583    46.470289   -895.21554    1664.3972    7996.4099    2.1884283    54.056671   0.15992099 
   65900   -941.56372    54.010414   -887.55331    1934.4571    -8398.022    2.1389677    60.936894   0.14734218 
   66000   -947.23291    48.894889   -898.33802    1751.2376   -3778.3206    2.1690797    57.548099   0.13190374 
   66100   -943.29822     45.87227   -897.42595    1642.9783    7097.7477    2.1879014     57.71393   0.15705822 
   66200    -943.5816     48.45288   -895.12872    1735.4065   -2732.0461     2.165581    57.654726   0.14232687 
   66300   -937.19055    48.225618   -888.96494    1727.2668   -8020.7322    2.1372792    60.775564   0.14610796 
   66400   -947.65744    47.801623   -899.85581    1712.0808    9480.0078    2.2001159    53.524591   0.14779167 
   66500   -946.36137    48.203456   -898.15792     1726.473   -335.99904    2.1750369     51.53755   0.13674233 
   66600   -940.49517    44.050083   -896.44509    1577.7142   -9621.5852     2.138813    54.355681   0.15123908 
   66700   -939.31371    48.668942   -890.64477     1743.145    4579.4214    2.1726653    56.609505   0.15502592 
   66800   -950.30224    49.900795   -900.40145    1787.2655    8758.3512    2.2081982    52.168841   0.14723993 
   66900   -942.70029    44.151454   -898.54883     1581.345   -10533.622    2.1455161    63.373214   0.15080695 
   67000   -940.19595    45.748253    -894.4477    1638.5365   -7791.7584    2.1504302    63.938248   0.14302599 
   67100   -945.51597    46.271798   -899.24417     1657.288    8572.0314    2.2011119    59.984641   0.15388027 
   67200    -947.5492    45.597022   -901.95218      1633.12    3687.9796    2.1904452    57.091965   0.12371614 
   67300   -944.12944     49.06392   -895.06552    1757.2917   -9520.7273    2.1517743    62.116658   0.14079002 
   67400   -945.64207    49.604563    -896.0375    1776.6556   -3335.0956    2.1699074    60.426733    0.1448799 
   67500   -949.07282    46.222606   -902.85022    1655.5261    7957.6137    2.2037482    55.158993   0.12650068 
   67600   -939.58648    46.280567   -893.30591    1657.6021   -1982.3796    2.1635394     57.67997   0.16302872 
   67700   -940.02451    44.493533   -895.53098     1593.597   -1080.3034    2.1636044    56.389092   0.15189223 
   67800   -943.63784    43.738945    -899.8989    1566.5704    7660.2045    2.1885792    58.158104   0.14588845 
   67900   -941.50618    45.724809   -895.78137    1637.6968    6823.4656    2.1807331    61.877104   0.13796514 
   68000   -939.06601    47.068506    -891.9975    1685.8232   -2862.7789    2.1530522    63.621276   0.13830955 
   68100   -943.62981    45.390261   -898.23955    1625.7145   -2550.4696    2.1683695    57.695446   0.14069627 
   68200   -947.70326    49.966658    -897.7366    1789.6245    3820.2063    2.1914589    57.199874   0.13453103 
   68300   -937.30096    48.935302   -888.36566    1752.6851   -36.693837    2.1575234    56.608754   0.14513628 
   68400    -944.1856    46.601151   -897.58445    1669.0842   -7794.3933    2.1556542    60.710644   0.15362528 
   68500    -947.7089     50.20054   -897.50836    1798.0013    5582.4385    2.1922357    62.902725   0.14912458 
   68600   -942.81404    51.876428   -890.93761    1858.0255    10296.641    2.1929319    59.118407   0.16247286 
   68700   -941.26281    47.830751   -893.43206    1713.1241   -14141.017    2.1301472     59.63682   0.16244649 
   68800   -943.88104    42.953969   -900.92707    1538.4554   -6425.3525    2.1610032     58.96078   0.14467796 
   68900   -944.97209    51.169576   -893.80252    1832.7086    14248.084    2.2085746    55.823418   0.16575213 
   69000   -948.69001    53.447524   -895.24249    1914.2965   -3829.5822    2.1716267    58.239214   0.14667027 
   69100    -947.6059    43.462774   -904.14312    1556.6789   -8454.8696     2.158803    56.907576   0.15528442 
   69200   -941.93813    45.103583   -896.83455    1615.4468    2495.0126    2.1713479    63.965568     0.167406 
   69300   -939.62346    47.073831   -892.54963    1686.0139    8982.8203    2.1789121    58.941134   0.16727236 
   69400   -943.20236    43.957837   -899.24453    1574.4103   -3750.9022    2.1612565    59.693135   0.17019816 
   69500   -944.49792    44.296624   -900.20129    1586.5444   -5172.1761    2.1605288    61.535324   0.15248819 
   69600    -940.7109    48.047319   -892.66358    1720.8807    4959.0088    2.1750909    57.961651   0.15483149 
   69700   -943.63822    45.895532   -897.74269    1643.8115    3319.2908    2.1753817    57.819299   0.15536509 
   69800    -946.4886    44.799641   -901.68896    1604.5607   -4697.8049     2.163669    54.561575    0.1366144 
   69900   -943.26169    51.687353   -891.57434    1851.2535   -4021.9031    2.1572804    57.028366    0.1444346 
   70000   -944.57627    49.892163    -894.6841    1786.9564    8703.5182    2.1908445    59.024681   0.15214087 
   70100    -946.2218    46.565171   -899.65663    1667.7956   -4312.1879    2.1637987     56.83014   0.14601972 
   70200   -939.39272    47.300249   -892.09247    1694.1234   -8952.5292    2.1347011    61.434713    0.1510444 
   70300   -938.49093    46.277502   -892.21343    1657.4923     12966.09     2.186712    60.112804   0.16396118 
[...]
  186800   -942.04004    50.911614   -891.12842    1823.4694    15558.199    2.1991577    192.32317   0.14248727 
  186900   -946.83796    48.532847   -898.30511    1738.2706   -12071.643    2.1434217    191.56917   0.12547448 
  187000   -946.02313    47.868578   -898.15455    1714.4789    -6999.532    2.1566238    186.54559   0.14505953 
  187100   -935.62523    46.945725    -888.6795    1681.4256    9349.9706    2.1763703    185.99739   0.16483976 
  187200   -943.38166    47.087935   -896.29372    1686.5191    3624.1558    2.1795339    186.29184   0.14237287 
  187300   -944.33319    45.150056   -899.18313    1617.1113   -5219.1593     2.159528    193.68784   0.13084497 
  187400   -939.73185    49.000769   -890.73108    1755.0299   -1083.8306    2.1589921     189.6437   0.15516081 
  187500   -941.52306    45.047396   -896.47566    1613.4344    8398.7169    2.1872633    194.56508   0.14595954 
  187600   -946.09204      46.5188   -899.57324    1666.1347   -5379.4832    2.1633644    200.89816   0.15125718 
  187700   -942.41537     49.84547    -892.5699     1785.284   -3488.0828    2.1550498    189.44198   0.14961453 
  187800   -951.84179    54.950536   -896.89126    1968.1289    74.579916     2.183027    191.81004   0.12874682 
  187900   -947.32569    46.972891   -900.35279    1682.3986    2099.0057    2.1816811     192.3164   0.14938942 
  188000   -939.77762    46.234339   -893.54328    1655.9463   -3775.3141    2.1530895    195.23418   0.14616736 
  188100   -943.36041    48.256247   -895.10417    1728.3638   -1227.5786    2.1664643    201.07232   0.14523285 
  188200   -950.62072     49.88864   -900.73208    1786.8301    8174.6426    2.1986494    193.54615   0.12350684 
  188300   -940.81442    47.769543   -893.04488    1710.9318   -172.02242    2.1589317    196.49081   0.13602071 
  188400   -939.53567    43.793584   -895.74209    1568.5274   -10134.374    2.1377254    198.19951   0.14543008 
  188500   -945.21951    44.151188   -901.06832    1581.3354    10231.943    2.1969191    198.02041   0.14520266 
  188600   -939.92372    46.844792   -893.07893    1677.8106    14217.107     2.197672    193.99551   0.16539033 
  188700   -939.78013     45.39306   -894.38707    1625.8148   -9457.7421    2.1382885    191.84517     0.156074 
  188800   -942.93186    42.519639   -900.41222    1522.8993   -3859.4924    2.1575251    194.04208   0.13183235 
  188900   -942.58315    45.897817   -896.68533    1643.8934    11681.338    2.1993469    185.90364   0.13797712 
  189000   -944.56854    52.955592   -891.61295    1896.6773    -1995.728    2.1607242    197.85893   0.13214133 
  189100   -945.33605    44.959968   -900.37608     1610.303   -6433.3341    2.1589742    194.69598   0.12689967 
  189200   -943.85394    46.837212   -897.01673    1677.5391    2973.7314    2.1734419     194.1673   0.13970659 
  189300   -942.52457    51.845757   -890.67881     1856.927    4764.8753    2.1728015     196.7736   0.13338919 
  189400   -945.78687    45.678038   -900.10884    1636.0217   -1174.0789    2.1719643    194.62084   0.15519813 
  189500   -943.98816    46.162042   -897.82612    1653.3569   -3836.3295    2.1593991    193.65337   0.15802371 
  189600   -941.47506    49.921782   -891.55328    1788.0172    2381.5921    2.1657609    196.69422   0.15813147 
  189700   -946.85142    46.444306   -900.40712    1663.4666     4736.652    2.1867919    185.39414   0.13734005 
  189800   -942.81354    45.482701   -897.33084    1629.0254   -2912.3569    2.1600129    197.09698   0.13649897 
  189900   -942.92286    49.770402   -893.15246    1782.5953   -3746.4724    2.1566801    187.39639   0.13472887 
  190000   -947.22313    46.716914   -900.50621    1673.2304    5295.1195    2.1903299    193.10742   0.13555542 
  190100   -940.92419     43.34656   -897.57763    1552.5166    4329.8571    2.1703991    188.39408   0.14650774 
  190200   -940.19796    46.569292   -893.62867    1667.9432   -7770.9361    2.1412813     193.4471   0.14891624 
  190300   -946.41128    46.414032   -899.99725    1662.3823    2201.6105    2.1771628    187.90848   0.14171707 
  190400   -949.41181    51.037866   -898.37394    1827.9913     15080.81    2.2169863    183.18649   0.15685346 
  190500   -939.95144    48.431465   -891.51997    1734.6394   -10676.757    2.1298753    191.92303   0.15170781 
  190600   -944.85337     46.64851   -898.20486    1670.7804   -15474.317    2.1329595    200.59771   0.13285064 
  190700   -944.39542    46.579234   -897.81619    1668.2992    14997.535    2.2075993      191.777   0.14087997 
  190800   -946.37627    54.595968    -891.7803    1955.4296    1966.5666    2.1785397    186.34422   0.14022301 
  190900   -943.10278    48.590172   -894.51261    1740.3237    -11535.07    2.1357846    194.29719   0.13547925 
  191000   -946.48511    45.927028   -900.55808    1644.9396   -1173.1769    2.1747345    184.38158   0.14939291 
  191100   -943.42741    50.248183   -893.17922    1799.7077    9264.8994    2.1894627    185.21641   0.15944618 
  191200   -944.74982    50.443895   -894.30592    1806.7174   -3948.4069    2.1608166    195.25211    0.1481174 
  191300   -946.99051    44.701391   -902.28912    1601.0417   -6586.8133    2.1603563     190.7663   0.13553495 
  191400   -944.65163    49.683374   -894.96826    1779.4783    3535.0996    2.1774529    169.40337   0.14323803 
  191500   -939.74466    47.811345   -891.93332     1712.429    6090.2383    2.1801997      193.891   0.14898697 
  191600   -945.67688    44.422974   -901.25391    1591.0698   -6580.0908    2.1626571    187.67265   0.15172948 
  191700   -945.21686    48.444987   -896.77187    1735.1238   -5593.0817     2.161095    203.13091   0.15754116 
  191800   -942.29879    51.115924   -891.18286     1830.787    7421.0137    2.1820406      200.301   0.15840075 
  191900   -944.80375    44.399835   -900.40391    1590.2411    2569.3798     2.182752    193.97533   0.14902496 
  192000   -943.26126    46.230318   -897.03094    1655.8023   -7339.8486    2.1489327    188.08201   0.14361785 
  192100   -937.12204    44.969541    -892.1525    1610.6459    2439.3704     2.162621    188.92887   0.16386644 
  192200   -943.24356    43.924509   -899.31905    1573.2166    12229.257    2.1970287    182.53443   0.13471436 
  192300    -940.7729    42.146039   -898.62686    1509.5183    375.81246    2.1657583     199.8164   0.14868458 
  192400   -937.32652    44.659977   -892.66654    1599.5584   -9812.8178    2.1338032    198.64081   0.14751404 
  192500   -947.21191    47.820844   -899.39107    1712.7692    7813.2276    2.1974519     191.8595   0.14515591 
  192600   -944.55355     46.34654   -898.20701     1659.965    14047.847    2.2089135     183.7944   0.16238882 
  192700   -937.35801    44.941486   -892.41652     1609.641   -15135.983    2.1188049    194.81682   0.16959974 
  192800    -941.5916     45.43805   -896.15355    1627.4262   -8518.4848    2.1456705    185.75779   0.15380144 
  192900   -945.58372     47.87663   -897.70709    1714.7673    18358.727    2.2181822    189.42895   0.15343518 
  193000   -944.08827    50.899716   -893.18855    1823.0432    493.78014    2.1684184    188.59345   0.13231033 
  193100   -940.41558    46.688227   -893.72735     1672.203   -10778.474    2.1358097    200.88408   0.15032571 
  193200   -947.56592    46.730459   -900.83546    1673.7156    2127.0777    2.1833327    189.61486   0.13790059 
  193300   -941.31593    47.942095   -893.37383     1717.112    8406.1867    2.1873978    197.11804   0.15011485 
  193400   -942.88377    48.170649   -894.71312     1725.298   -4761.2806    2.1560564    184.15493   0.13544558 
  193500   -947.25032    44.347393   -902.90292    1588.3628   -4249.1852    2.1683386    191.88032   0.14312149 
  193600   -942.37682    47.213741   -895.16308     1691.025    7171.8703    2.1864619    187.53944   0.14742673 
  193700   -942.47411    48.347758   -894.12636    1731.6413    3886.1329    2.1755019    188.06182   0.16035999 
  193800   -948.88958    45.931001   -902.95858    1645.0819    -5386.698    2.1678506    188.53103   0.14872624 
  193900   -945.95767    49.705375    -896.2523    1780.2663   -3623.2836    2.1635131    177.92315     0.144706 
  194000   -942.83915    50.037189   -892.80196    1792.1507    8154.0819    2.1834147    192.31814   0.14190821 
  194100   -939.50305    38.576034   -900.92701    1381.6536    4014.2855    2.1770822    193.95483   0.14872526 
  194200    -944.2741    49.064597    -895.2095    1757.3159   -8451.9701    2.1472888    187.91133    0.1402918 
  194300   -946.41698    53.788768   -892.62821    1926.5186    933.55169    2.1699722     193.4042   0.12434441 
  194400   -944.59667    45.920846   -898.67582    1644.7182    9389.8725    2.1937325     190.4558   0.14029611 
  194500   -942.21052    44.256468   -897.95405    1585.1062   -6640.3707    2.1518586    185.74353   0.13411641 
  194600   -941.88911    50.389132   -891.49998     1804.756   -10860.608    2.1341202    195.34968   0.14550173 
  194700   -945.66252    47.554504   -898.10801    1703.2299    15368.956    2.2098341    184.71366   0.15259717 
  194800   -947.49992    49.382517    -898.1174    1768.7027    5774.5234    2.1878798    198.28568   0.14764983 
  194900    -938.9385    45.174701    -893.7638     1617.994   -14101.036    2.1235903    196.42343   0.15776048 
  195000   -945.64485    47.416833   -898.22802     1698.299   -1688.3525    2.1663352    197.10317   0.13810876 
  195100   -949.14482    48.788479   -900.35634    1747.4264    10878.831    2.2037806    195.58413   0.12857705 
  195200   -944.17769      49.8483   -894.32939    1785.3853   -3793.7777     2.160201    191.87501    0.1475795 
  195300   -939.93056    44.390799   -895.53976    1589.9174   -4689.7156    2.1479167    197.13453   0.16580673 
  195400   -949.85245    47.906487   -901.94596    1715.8366    3585.2841    2.1885836     191.7805   0.14573542 
  195500   -941.35342    49.374737   -891.97868     1768.424    1367.0987    2.1681887    199.01494   0.17149643 
  195600   -939.86222    45.583725   -894.27849    1632.6437   -2459.5684    2.1568001     227.3259   0.17181115 
  195700   -943.73077     43.14036   -900.59041    1545.1313     1106.675     2.171871    205.23436   0.16580399 
  195800   -946.88573    51.929283   -894.95645    1859.9186    2840.2137    2.1776384    212.81914   0.16431081 
  195900   -941.13727    49.142834   -891.99444    1760.1181     2178.706    2.1671895    205.63927   0.18957876 
  196000   -942.06279    43.279054   -898.78374    1550.0987    -4358.238     2.154867    200.46656   0.18532492 
  196100   -942.83275    48.275049    -894.5577    1729.0372    3930.4449    2.1707235    225.09746   0.16622796 
  196200   -943.92127    55.292705   -888.62856    1980.3842    4787.2194     2.173199    210.38142   0.16537408 
  196300   -941.54679    44.613639   -896.93315    1597.8988   -1922.4249    2.1590216    220.88327   0.17250436 
  196400   -943.83354    47.410681   -896.42286    1698.0787    -11493.01    2.1417726    230.67497    0.1589492 
  196500   -939.57732    52.063887   -887.51344    1864.7396    7241.0094    2.1745662    215.34826   0.16865189 
  196600   -945.41479    49.349851   -896.06494    1767.5327    9034.1961    2.1914933    195.62687   0.15375647 
  196700   -944.40516    46.237523   -898.16763    1656.0604   -15572.736    2.1297678    194.64715   0.15225485 
  196800   -939.92741    47.504494   -892.42291    1701.4387   -2512.7725    2.1514218     157.0856   0.15880062 
  196900   -946.17478    46.913334   -899.26145    1680.2655    10781.348    2.1984675    144.44228   0.14589502 
  197000   -945.09386    44.480775   -900.61308    1593.1401   -121.68536    2.1710603    146.30885   0.14625628 
  197100   -940.00632    45.049759   -894.95656     1613.519   -3205.9043    2.1487834    153.66013   0.14307005 
  197200   -945.26833    49.798039   -895.47029    1783.5852    532.88994    2.1695715    150.77015   0.14303357 
  197300   -947.23612    43.878943   -903.35718    1571.5846    6833.9648     2.196237    152.45388   0.14382779 
  197400   -942.94463    47.818459   -895.12617    1712.6838   -4796.1438     2.153026    153.01519   0.13153077 
  197500   -944.31759    48.602019   -895.71557    1740.7481   -5640.0707    2.1592574    145.22415   0.14276419 
  197600   -949.08101    46.923271   -902.15774    1680.6214    4900.7029    2.1921823    146.17741    0.1418956 
  197700   -943.89042    49.049883   -894.84054    1756.7889    438.68619    2.1687577    147.54507   0.14344073 
  197800   -945.39702    50.907301   -894.48972    1823.3149   -7736.4437    2.1541955    143.24485   0.15892472 
  197900   -943.67343    44.574273   -899.09916    1596.4888    155.37617    2.1692066    153.53271   0.13914408 
  198000   -946.92341    48.131072   -898.79234    1723.8805    8223.6513    2.1926701    150.68546   0.13860096 
  198100   -939.77773     49.57192   -890.20581    1775.4864   -6078.6659     2.142878     148.9889   0.14475196 
  198200   -942.63254    44.541375   -898.09117    1595.3105   -9761.8887     2.142854    151.64349   0.14984469 
  198300   -948.16978    51.944511   -896.22527     1860.464    12671.084    2.2085035    143.46268   0.14269604 
  198400   -942.02602    50.950369   -891.07565    1824.8575    6353.7773    2.1805813    146.44726    0.1456342 
  198500   -937.99142    46.554851   -891.43657    1667.4259   -18297.381    2.1096757      151.493   0.16389978 
  198600   -943.50969    44.069986    -899.4397    1578.4271    1019.8717    2.1716338    147.69868   0.14462562 
  198700   -946.17615    52.370659   -893.80549    1875.7271    10180.109    2.2000403    146.45921   0.16302959 
  198800   -945.04483    50.660684   -894.38414     1814.482   -4712.5135    2.1570927    148.85723   0.14081903 
  198900   -947.22895    44.202364   -903.02659    1583.1684   -5872.3392    2.1636286    153.77862   0.14427568 
  199000   -942.17051    46.556897   -895.61361    1667.4992    5033.7302    2.1801615     153.6993   0.16000742 
  199100   -942.58023    48.563821   -894.01641      1739.38     5117.917    2.1752268    155.34284   0.14484081 
  199200   -947.69976    44.748188   -902.95157    1602.7178   -5125.4972    2.1638546    151.51723    0.1350521 
  199300   -940.01676    43.537775   -896.47899    1559.3652   -1668.5205    2.1582953    147.37173   0.14956852 
  199400   -943.00569    50.148121   -892.85757    1796.1238    5925.9354    2.1816964    153.24502   0.15074515 
  199500   -947.92795    47.360199   -900.56775    1696.2706    689.23277    2.1772887    151.70657   0.14132916 
  199600   -941.17707    45.944493   -895.23257    1645.5651   -7533.0241    2.1471499    157.09888   0.15863472 
  199700   -941.53549    49.068108   -892.46739    1757.4417    1187.3277     2.166456    153.96328   0.18161889 
  199800    -943.9718    45.224855   -898.74695    1619.7903     7065.344    2.1919935    143.95073   0.15382459 
  199900   -945.53257    47.683423   -897.84915    1707.8473   -4718.8129    2.1632547    145.89616   0.15472033 
  200000   -943.30475    52.289659   -891.01509     1872.826   -12326.287    2.1315046    155.67117   0.13106758 
  200100   -947.43485    48.295969   -899.13888    1729.7865    8137.6588    2.1982808    155.36904   0.14514456 
  200200   -945.07971    47.330007    -897.7497    1695.1892    7023.8432    2.1956187    154.07964   0.15873166 
  200300   -939.53067    46.601133   -892.92953    1669.0836   -14135.973    2.1232497    144.39685   0.14845074 
  200400   -942.78562    43.525682   -899.25994    1558.9321   -3921.8792    2.1592021    144.33854   0.15073243 
  200500   -946.45869    47.223509   -899.23518    1691.3748    14706.175     2.211856    146.43899   0.14383223 
  200600    -943.4976    49.447867   -894.04974    1771.0433   -2160.1489    2.1632497    155.89192    0.1396747 
  200700   -939.13879    43.624012   -895.51478    1562.4539      -7214.8    2.1424105     152.7743   0.15158408 
  200800   -949.17715    47.289362   -901.88779    1693.7335    2201.8559    2.1882089    142.64999   0.14305358 
  200900   -944.51139    51.510712   -893.00068    1844.9269    1949.6334      2.17583    146.24892   0.14302563 
  201000   -941.63415    45.935789   -895.69836    1645.2534   -2106.7737    2.1630152    152.36897   0.16154888 
  201100   -946.97715    45.151106   -901.82604    1617.1489    -2663.807    2.1721836    152.06996   0.14374631 
  201200    -941.1094    48.275311   -892.83409    1729.0466    4060.4732      2.17367    153.91063   0.13994706 
  201300   -947.50683     53.08344   -894.42339    1901.2563    601.13018    2.1758124    146.30949   0.13064502 
  201400    -945.8062    44.643484   -901.16272    1598.9677   -3252.8361    2.1660717    151.80148   0.14455494 
  201500   -943.25331    49.739899   -893.51341    1781.5028   -3442.8141    2.1642339    145.85748   0.14567831 
  201600   -944.23006    50.825966   -893.40409    1820.4018    5380.6161     2.183731    146.39719   0.15154238 
  201700   -947.70028    47.296567   -900.40372    1693.9915   -3843.6145    2.1720469    149.22903   0.14094846 
  201800   -943.31364    48.971527   -894.34211    1753.9825   -6489.1989    2.1535809    152.15475   0.14371384 
  201900   -937.63371    45.620325   -892.01339    1633.9546    5614.9912    2.1769869    150.90099   0.16033123 
  202000   -945.45702    45.115433   -900.34158    1615.8712    7171.0585    2.1943193    145.04756   0.13583136 
  202100   -938.51044    43.145295   -895.36515     1545.308   -6678.2278    2.1424677    153.44128   0.14713755 
  202200   -943.67633    50.089306   -893.58702    1794.0173   -6712.4086    2.1489702    156.54043   0.14263725 
  202300   -943.65194    43.632767   -900.01917    1562.7675    17169.726    2.2157476    150.91069   0.15199696 
  202400   -944.50729    47.799261   -896.70803    1711.9962    1073.7643     2.174051    158.11657   0.15530866 
  202500    -944.0918    50.287996   -893.80381    1801.1336    -14676.99    2.1275471    152.64078   0.15337978 
  202600   -945.55162    46.207477   -899.34414    1654.9843    3067.9356    2.1813485    149.48467   0.15079919 
  202700   -947.20744    47.760926   -899.44652    1710.6232    10705.156    2.2013351    155.10549   0.16010289 
  202800   -938.11539    46.231808   -891.88358    1655.8557   -3853.3497    2.1448967     153.9798   0.15881399 
  202900   -946.47961    47.139771   -899.33984    1688.3757   -5167.7705    2.1600265    155.56852   0.14215351 
  203000   -947.78203    49.489784   -898.29224    1772.5446    2765.1892    2.1839978    149.47824   0.13760125 
  203100   -938.70385    47.896107   -890.80775    1715.4648    2608.7314    2.1620525    156.88909   0.15137362 
  203200   -945.84457    46.498534   -899.34603    1665.4089   -4687.0649    2.1614579    155.03174   0.13874017 
Loop time of 141.105 on 1 procs for 200000 steps with 217 atoms

Performance: 367.386 ns/day, 0.065 hours/ns, 1417.385 timesteps/s
100.0% CPU use with 1 MPI tasks x no OpenMP threads

MPI task timing breakdown:
Section |  min time  |  avg time  |  max time  |%varavg| %total
---------------------------------------------------------------
Pair    | 135.48     | 135.48     | 135.48     |   0.0 | 96.02
Neigh   | 2.472      | 2.472      | 2.472      |   0.0 |  1.75
Comm    | 0.91148    | 0.91148    | 0.91148    |   0.0 |  0.65
Output  | 0.068787   | 0.068787   | 0.068787   |   0.0 |  0.05
Modify  | 1.8653     | 1.8653     | 1.8653     |   0.0 |  1.32
Other   |            | 0.3038     |            |       |  0.22

Nlocal:    217 ave 217 max 217 min
Histogram: 1 0 0 0 0 0 0 0 0 0
Nghost:    947 ave 947 max 947 min
Histogram: 1 0 0 0 0 0 0 0 0 0
Neighs:    4157 ave 4157 max 4157 min
Histogram: 1 0 0 0 0 0 0 0 0 0
FullNghs:  8314 ave 8314 max 8314 min
Histogram: 1 0 0 0 0 0 0 0 0 0

Total # of neighbors = 8314
Ave neighs/atom = 38.3134
Neighbor list builds = 4184
Dangerous builds = 20
Total wall time: 0:02:23
