LAMMPS (3 Mar 2020)

    # ---------- Initialize simulation ---------------------
    units metal
    atom_style atomic
    dimension  3
    boundary   p p p
    read_data /home/modeler/RemLabs/Lab4/Problem2A_size_5/temp_2300/lammps.data
  orthogonal box = (0 0 0) to (20.45 20.45 20.45)
  1 by 1 by 1 MPI processor grid
  reading atoms ...
  500 atoms
  read_data CPU = 0.0013415 secs

    pair_style eam
    pair_coeff * * /usr/share/lammps-stable/potentials/Ag_u3.eam
Reading potential file /usr/share/lammps-stable/potentials/Ag_u3.eam with DATE: 2007-06-11

    velocity  all create 2300 87287 dist gaussian

    # ---------- Describe computed properties------------------
    compute msdall all msd
    thermo_style custom step pe ke etotal temp press density c_msdall[4]
    thermo 100

    # ---------- Specify ensemble  ---------------------
    #fix  1 all nve
    fix  1 all nvt temp 2300 2300 0.25

    # --------- Compute RDF ---------------
    compute rdfall all rdf 100 1 1
    fix 2 all ave/time 1 25000 25000 c_rdfall[*] file /home/modeler/RemLabs/Lab4/Problem2A_size_5/temp_2300/lammps.rdf mode vector

    # --------- Run -------------
    timestep 0.005
    run 100000
Neighbor list info ...
  update every 1 steps, delay 10 steps, check yes
  max neighbors/atom: 2000, page size: 100000
  master list distance cutoff = 7.55
  ghost atom cutoff = 7.55
  binsize = 3.775, bins = 6 6 6
  2 neighbor lists, perpetual/occasional/extra = 1 1 0
  (1) pair eam, perpetual
      attributes: half, newton on
      pair build: half/bin/atomonly/newton
      stencil: half/bin/3d/newton
      bin: standard
  (2) compute rdf, occasional, copy from (1)
      attributes: half, newton on
      pair build: copy
      stencil: none
      bin: none
Per MPI rank memory allocation (min/avg/max) = 3.769 | 3.769 | 3.769 Mbytes
Step PotEng KinEng TotEng Temp Press Density c_msdall[4] 
       0        -1425    148.35187   -1276.6481         2300    18528.097    10.472245            0 
     100   -1328.0199    93.041331   -1234.9786    1442.4831    82916.043    10.472245      0.12585 
     200   -1299.8443    130.75568   -1169.0886    2027.1944    107092.18    10.472245   0.18858959 
     300   -1270.1041    156.77595   -1113.3281    2430.6043    129861.79    10.472245   0.24014974 
     400   -1267.7386    155.18566    -1112.553    2405.9489    130695.44    10.472245   0.24297135 
     500   -1277.8834     139.2722   -1138.6112    2159.2317    122643.95    10.472245   0.24067759 
     600   -1274.8526    150.42567   -1124.4269    2332.1515    125141.41    10.472245   0.23285271 
     700   -1267.8203    156.51094   -1111.3094    2426.4957    131474.47    10.472245   0.25070668 
     800   -1271.6289    143.47427   -1128.1546    2224.3793    127036.59    10.472245   0.24757269 
     900   -1273.5993    143.55865   -1130.0406    2225.6875    124721.09    10.472245   0.23878182 
    1000   -1267.3661    151.26091   -1116.1051    2345.1008    130538.43    10.472245    0.2561522 
    1100   -1271.6093    149.65726    -1121.952    2320.2384    128474.96    10.472245   0.23996999 
    1200   -1270.6763    137.00109   -1133.6752    2124.0212    127244.25    10.472245   0.24823466 
    1300   -1267.4902    149.10004   -1118.3902    2311.5994    130062.31    10.472245   0.25239622 
    1400   -1265.3211    144.05402    -1121.267    2233.3675    130057.44    10.472245   0.27147473 
    1500   -1278.7745    135.91892   -1142.8556    2107.2435    119925.89    10.472245   0.22014936 
    1600   -1268.5581    140.89795   -1127.6602    2184.4368    129823.34    10.472245   0.31624386 
    1700   -1268.4605    149.09948    -1119.361    2311.5908    130840.91    10.472245   0.23570306 
    1800   -1273.9088    140.12948   -1133.7793    2172.5227    124482.25    10.472245    0.2355618 
    1900   -1273.5213    144.31898   -1129.2023    2237.4754    126662.72    10.472245   0.21996578 
    2000    -1266.094    146.91469   -1119.1793    2277.7184    132663.74    10.472245   0.25913026 
    2100    -1280.132    148.22789   -1131.9042    2298.0778    121972.99    10.472245   0.22164489 
    2200   -1273.0623     136.2235   -1136.8388    2111.9657    125149.48    10.472245   0.28338011 
    2300   -1271.2457    153.71077   -1117.5349    2383.0828    128329.09    10.472245   0.27618776 
    2400    -1273.403    147.47802    -1125.925    2286.4522    125737.61    10.472245   0.22717118 
    2500   -1272.9361    140.87921   -1132.0569    2184.1463    125569.98    10.472245   0.24211321 
    2600   -1272.8237    152.01259   -1120.8111    2356.7547    126638.98    10.472245   0.22544173 
    2700   -1272.6601    144.32486   -1128.3352    2237.5666    125888.38    10.472245   0.23532914 
    2800    -1283.932    139.96622   -1143.9657    2169.9915    117852.56    10.472245   0.20736343 
    2900   -1280.3428    154.01147   -1126.3313    2387.7447     121149.4    10.472245   0.22972518 
    3000   -1265.8356     148.0188   -1117.8168    2294.8362    133016.34    10.472245   0.24993596 
    3100   -1272.0836     163.4556    -1108.628    2534.1634    128503.28    10.472245   0.27358454 
    3200   -1278.5723     150.5272   -1128.0451    2333.7257    122648.96    10.472245   0.26686413 
    3300    -1271.244      150.089    -1121.155    2326.9319    127084.15    10.472245   0.25352813 
    3400   -1263.9656    156.52825   -1107.4373    2426.7641    133447.14    10.472245   0.26729185 
    3500   -1266.6919    138.47004   -1128.2219    2146.7953    129781.04    10.472245   0.26446047 
    3600   -1275.5648    156.42485     -1119.14     2425.161    125677.69    10.472245   0.23715674 
    3700   -1273.3136    152.69013   -1120.6235     2367.259    126404.14    10.472245   0.23931795 
    3800   -1275.4752    144.07733   -1131.3979     2233.729    124841.77    10.472245   0.21600325 
    3900   -1265.0519    153.19851   -1111.8534    2375.1408    132966.98    10.472245   0.26084426 
    4000   -1276.2936    148.56082   -1127.7327    2303.2395    124347.83    10.472245   0.22938488 
    4100   -1275.9462    146.32267   -1129.6235      2268.54    124922.33    10.472245   0.20173221 
    4200   -1270.1814    152.48512   -1117.6963    2364.0806    129794.09    10.472245   0.24194137 
    4300   -1277.6082    148.11281   -1129.4954    2296.2937    123094.15    10.472245   0.21862885 
    4400   -1276.6403    146.95591   -1129.6844    2278.3575    123332.92    10.472245   0.22695707 
    4500   -1266.0705    144.51887   -1121.5516    2240.5744    131732.91    10.472245   0.27245505 
    4600    -1271.532    150.64037   -1120.8916    2335.4801    128241.12    10.472245   0.25799249 
    4700   -1273.4314    143.77396   -1129.6574    2229.0256    126158.58    10.472245   0.25279566 
    4800   -1270.5564    133.10883   -1137.4476    2063.6768    126760.31    10.472245   0.24675153 
    4900   -1269.9344    148.91473   -1121.0197    2308.7264    128194.14    10.472245   0.26323523 
    5000   -1266.6832    143.42904   -1123.2541     2223.678    131035.59    10.472245   0.24308723 
    5100   -1272.8969    133.67666   -1139.2203    2072.4802    124237.03    10.472245   0.25773276 
    5200    -1266.283    144.75672   -1121.5263    2244.2619    131624.38    10.472245   0.25415203 
    5300   -1265.6516    141.99282   -1123.6588    2201.4114    130948.66    10.472245   0.24267008 
    5400   -1276.1231    136.59817   -1139.5249    2117.7744    124382.27    10.472245   0.23013445 
    5500    -1264.963    144.72568   -1120.2373    2243.7808    130178.63    10.472245   0.24629932 
    5600   -1269.4771     149.9803   -1119.4968    2325.2467     129822.1    10.472245   0.23436627 
    5700   -1275.7727    141.54604   -1134.2267    2194.4847    125282.91    10.472245   0.20307684 
    5800   -1276.7041    132.73993   -1143.9642    2057.9575    122304.01    10.472245    0.2300529 
    5900   -1265.4536    144.28034   -1121.1733    2236.8763    130671.82    10.472245   0.24895778 
    6000   -1271.1843    151.55259   -1119.6317     2349.623       129180    10.472245   0.22959928 
    6100   -1276.2972    140.28442   -1136.0127    2174.9249    123816.22    10.472245    0.2124448 
    6200   -1265.2158    143.07465   -1122.1412    2218.1836    130520.44    10.472245   0.26752557 
    6300   -1275.9269    156.04465   -1119.8822    2419.2664    125809.96    10.472245   0.24656943 
    6400   -1277.8201    146.59065   -1131.2294    2272.6946    121894.56    10.472245   0.21072975 
    6500   -1277.9596    143.97133   -1133.9883    2232.0856    123459.02    10.472245   0.22333567 
    6600   -1266.0462     148.8037   -1117.2425    2307.0051    131073.34    10.472245    0.2535219 
    6700   -1273.0058    142.29544   -1130.7103    2206.1031    125960.01    10.472245    0.2677459 
    6800   -1282.0383    147.06629   -1134.9721    2280.0688    120847.32    10.472245   0.24366677 
    6900   -1267.2509    151.08095     -1116.17    2342.3108    131524.69    10.472245   0.24465443 
    7000   -1266.5744    137.39174   -1129.1826    2130.0776    128165.92    10.472245    0.2707796 
    7100   -1275.8548    149.87677    -1125.978    2323.6415    124080.15    10.472245   0.21782483 
    7200    -1262.756    161.94603   -1100.8099    2510.7595     134214.8    10.472245   0.22511885 
    7300   -1266.1582    148.13232   -1118.0259    2296.5963    132341.98    10.472245   0.21207324 
    7400   -1277.4447    146.89512   -1130.5495    2277.4151    123713.18    10.472245   0.22576953 
    7500   -1271.3076    155.16769   -1116.1399    2405.6703    128996.44    10.472245   0.23648293 
    7600     -1268.56    154.24715   -1114.3128    2391.3985    129652.78    10.472245   0.24661671 
    7700   -1277.9971    146.75979   -1131.2373     2275.317    122872.93    10.472245   0.21905665 
    7800   -1264.6773    144.86741   -1119.8099     2245.978    131690.92    10.472245   0.29247933 
    7900   -1268.8357    147.68047   -1121.1552    2289.5909    129902.43    10.472245   0.25800307 
    8000   -1281.8407    145.51704   -1136.3237    2256.0497    120376.46    10.472245   0.21264966 
    8100   -1278.9146    145.00542   -1133.9092    2248.1177    122552.57    10.472245   0.20556727 
    8200   -1269.8134    148.93725   -1120.8761    2309.0755    128066.93    10.472245   0.25629849 
    8300   -1275.2683    150.94008   -1124.3282    2340.1268     125336.3    10.472245   0.21800895 
    8400   -1278.5489    143.42257   -1135.1264    2223.5778    123398.35    10.472245   0.23773897 
    8500   -1270.6017    155.56979   -1115.0319    2411.9043    128489.73    10.472245   0.22397641 
    8600   -1278.0614    150.69567   -1127.3658    2336.3376    123907.53    10.472245   0.23460342 
    8700   -1266.6678    146.83397   -1119.8338    2276.4669    131818.73    10.472245   0.27195704 
    8800   -1263.0281    150.46779   -1112.5603    2332.8045    133648.62    10.472245     0.251286 
    8900   -1276.1485    148.01741   -1128.1311    2294.8146    125351.81    10.472245   0.21063713 
    9000    -1269.218    147.73609   -1121.4819    2290.4532    129128.94    10.472245   0.19790547 
    9100   -1273.2087    159.56757   -1113.6412    2473.8846    128614.59    10.472245   0.22980147 
    9200   -1266.9049    142.74609   -1124.1588    2213.0898    129977.71    10.472245   0.25465037 
    9300   -1265.5806    145.67902   -1119.9016     2258.561    130182.46    10.472245   0.26315915 
    9400   -1263.3153    152.47422    -1110.841    2363.9116    133019.79    10.472245   0.22627305 
    9500   -1270.5739    141.43002   -1129.1439    2192.6859    127537.86    10.472245   0.25372582 
    9600   -1272.3115    156.84998   -1115.4615     2431.752    127665.08    10.472245   0.24729075 
    9700    -1269.066    147.09071   -1121.9753    2280.4474    127998.74    10.472245   0.27128225 
    9800   -1280.5837    146.89745   -1133.6863    2277.4512     122153.5    10.472245    0.2178557 
    9900   -1273.5323    156.28625    -1117.246    2423.0121    127578.56    10.472245   0.22428177 
   10000   -1270.1356    146.93186   -1123.2038    2277.9847    127511.61    10.472245   0.25274403 
   10100   -1273.6977    149.50995   -1124.1878    2317.9545     126984.3    10.472245   0.25618291 
   10200   -1271.3235    156.81627   -1114.5072    2431.2293    128765.14    10.472245   0.22302544 
   10300   -1269.5074    147.28235    -1122.225    2283.4186    128986.54    10.472245   0.24324044 
   10400   -1271.1921    140.97595   -1130.2161    2185.6462    126070.72    10.472245   0.21934618 
   10500   -1266.3083    155.77465   -1110.5337    2415.0805    130597.33    10.472245   0.25517732 
   10600   -1272.9718    157.25136   -1115.7204    2437.9748    127517.62    10.472245   0.23167752 
   10700   -1280.2457    155.20975    -1125.036    2406.3224    122880.97    10.472245   0.20158819 
   10800   -1280.0008     157.1395   -1122.8613    2436.2407    122594.44    10.472245    0.1980879 
   10900   -1266.5763    156.63953   -1109.9368    2428.4893    132790.97    10.472245   0.24061699 
   11000    -1270.714    144.16836   -1126.5456    2235.1402    128431.48    10.472245   0.26517064 
   11100   -1260.4892    144.20014    -1116.289    2235.6329       133832    10.472245   0.28663964 
   11200   -1262.8747    155.61902   -1107.2557    2412.6677    134728.68    10.472245   0.30260749 
   11300   -1267.5536    148.62232   -1118.9313    2304.1931    130730.92    10.472245   0.24185934 
   11400   -1276.0864    142.94691   -1133.1395    2216.2033    123132.72    10.472245   0.20622608 
   11500    -1269.072    154.02165   -1115.0504    2387.9026    130186.75    10.472245   0.24862407 
   11600   -1271.4298    154.47207   -1116.9577    2394.8857    128390.12    10.472245    0.2119551 
   11700    -1278.007    150.00881   -1127.9982    2325.6888    124128.41    10.472245   0.23977454 
   11800    -1267.502    149.40714   -1118.0949    2316.3607    129616.28    10.472245   0.21947583 
   11900   -1265.7787    161.18206   -1104.5967    2498.9151    134718.03    10.472245   0.23952153 
   12000   -1279.9329    154.18424   -1125.7487    2390.4232    122453.44    10.472245   0.24658973 
   12100   -1280.6067    151.30795   -1129.2987    2345.8302    121923.99    10.472245   0.20847549 
   12200   -1275.6745     151.0799   -1124.5946    2342.2945    125268.99    10.472245   0.23363172 
   12300   -1268.1246    155.46296   -1112.6617    2410.2481    130818.54    10.472245   0.23207846 
   12400   -1276.9155    147.70973   -1129.2058    2290.0445    124537.09    10.472245   0.22460887 
   12500   -1268.1924     149.1466   -1119.0458    2312.3212    129966.01    10.472245   0.25408649 
   12600   -1270.3251    147.62438   -1122.7007    2288.7212    128728.41    10.472245   0.23053225 
   12700   -1272.7091    145.42654   -1127.2825    2254.6466    126049.98    10.472245   0.21925492 
   12800   -1271.7061    145.63366   -1126.0724    2257.8577    127740.63    10.472245   0.24687782 
   12900   -1263.9856     152.4897   -1111.4959    2364.1516    134259.26    10.472245   0.24693754 
   13000   -1277.3985    147.20836   -1130.1901    2282.2714    123168.48    10.472245   0.21950532 
   13100   -1265.4933    140.51113   -1124.9821    2178.4398    130590.52    10.472245   0.26980822 
   13200   -1268.0197    153.20468    -1114.815    2375.2364    129795.69    10.472245   0.22009642 
   13300   -1271.3673    146.77099   -1124.5963    2275.4905    126945.41    10.472245   0.22155935 
   13400   -1268.3841    142.69034   -1125.6938    2212.2255    128149.48    10.472245   0.25137033 
   13500   -1267.0617    153.27511   -1113.7865    2376.3284    131412.65    10.472245   0.25443803 
   13600   -1280.8229    149.52843   -1131.2945     2318.241    122984.36    10.472245   0.22263103 
   13700   -1279.0539    152.27695   -1126.7769    2360.8532    124011.34    10.472245   0.21552977 
   13800   -1271.7341    149.83481   -1121.8993     2322.991    128904.62    10.472245   0.26149205 
   13900   -1268.6944    149.99719   -1118.6972    2325.5086    130002.72    10.472245   0.25259537 
   14000   -1270.1608    151.82804   -1118.3327    2353.8935    130881.54    10.472245   0.23641483 
   14100   -1276.1779    142.30711   -1133.8708     2206.284    122926.91    10.472245   0.20630358 
   14200   -1270.4614    153.27236    -1117.189    2376.2858    128819.82    10.472245    0.2241507 
   14300   -1271.1986    151.55436   -1119.6442    2349.6503    129949.12    10.472245   0.22913905 
   14400   -1280.1153    148.19407   -1131.9212    2297.5536    121727.47    10.472245   0.23203526 
   14500   -1281.7215    155.89107   -1125.8304    2416.8853    121680.41    10.472245     0.204044 
   14600   -1275.1278    150.44622   -1124.6816    2332.4701    126348.98    10.472245   0.21293323 
   14700   -1269.8934    152.66364   -1117.2298    2366.8483    128950.54    10.472245   0.23205456 
   14800   -1278.8693    152.21983   -1126.6495    2359.9676    122232.78    10.472245   0.21225259 
   14900   -1277.8733    145.29822   -1132.5751    2252.6572    122249.36    10.472245   0.28728409 
   15000   -1267.4299    149.84545   -1117.5844     2323.156     129590.7    10.472245   0.30800097 
   15100   -1273.2514    148.36704   -1124.8843    2300.2352    126414.93    10.472245   0.23624273 
   15200   -1276.5612    143.93351   -1132.6277    2231.4991    123287.52    10.472245   0.24619153 
   15300   -1272.2072    149.60778   -1122.5994    2319.4712    127062.83    10.472245   0.25933377 
   15400   -1272.4608    153.88008   -1118.5808    2385.7076    128045.45    10.472245    0.2401219 
   15500   -1285.6531    148.31165   -1137.3415    2299.3765    119139.09    10.472245   0.19884989 
   15600   -1279.5349    151.96763   -1127.5673    2356.0576    122848.98    10.472245   0.20881707 
   15700   -1268.2827    144.39374    -1123.889    2238.6345    129297.03    10.472245   0.25135815 
   15800   -1265.3849    137.28013   -1128.1047    2128.3473    130096.52    10.472245   0.25944879 
   15900   -1278.8638    145.15625   -1133.7076    2250.4561    121322.36    10.472245   0.24202539 
   16000    -1274.009    157.30287   -1116.7061    2438.7735       128301    10.472245   0.22281223 
   16100   -1268.4467    145.55009   -1122.8966    2256.5621    128785.01    10.472245   0.28446481 
   16200   -1263.2455    159.86472   -1103.3807    2478.4915    134171.82    10.472245   0.25138898 
   16300   -1272.1805    151.40683   -1120.7737    2347.3631    127944.65    10.472245   0.27718527 
   16400   -1277.2296    150.33741   -1126.8922    2330.7831    124928.29    10.472245   0.21787809 
   16500   -1289.2198    147.83001   -1141.3898    2291.9093    115299.85    10.472245   0.18513597 
   16600   -1265.4472    146.48055   -1118.9667    2270.9877    132386.86    10.472245   0.26243986 
   16700   -1273.9204    149.96918   -1123.9512    2325.0742    127113.44    10.472245   0.25688953 
   16800   -1278.8579    149.41958   -1129.4383    2316.5534     122529.7    10.472245   0.24832448 
   16900   -1262.5949    151.12623   -1111.4686    2343.0128    133148.32    10.472245   0.30917068 
   17000   -1274.9788     149.5857   -1125.3931    2319.1289    124106.24    10.472245   0.24380168 
   17100   -1273.6646    148.31236   -1125.3522    2299.3874    126489.65    10.472245    0.2270629 
   17200   -1260.6248    147.48437   -1113.1404    2286.5507    134361.93    10.472245   0.26534542 
   17300    -1269.938    143.48372   -1126.4543    2224.5259    129090.01    10.472245   0.24190899 
   17400   -1268.4934     155.2538   -1113.2396    2407.0053    131507.76    10.472245   0.22987149 
   17500   -1267.3049    155.64066   -1111.6643    2413.0031    131684.79    10.472245   0.22452629 
   17600   -1274.6245    150.82038   -1123.8042    2338.2709    125445.01    10.472245   0.25868373 
   17700   -1270.2598    149.94027   -1120.3195    2324.6261     129048.1    10.472245    0.2545567 
   17800   -1262.7508    153.59555   -1109.1552    2381.2963    133614.56    10.472245   0.28961557 
   17900   -1270.1021    140.55215     -1129.55    2179.0756    128866.14    10.472245   0.22407036 
   18000   -1273.9741    151.90522   -1122.0689    2355.0901    126404.29    10.472245   0.23849275 
   18100   -1270.8952    149.67533   -1121.2199    2320.5186    128662.18    10.472245   0.25279259 
   18200   -1275.8563    149.45529    -1126.401    2317.1071    125419.85    10.472245   0.23556482 
   18300   -1271.6582     147.9149   -1123.7433    2293.2253    129095.09    10.472245   0.20863396 
   18400   -1268.8809    147.03525   -1121.8457    2279.5875    127914.18    10.472245   0.21193785 
   18500   -1277.8857    142.98599   -1134.8997    2216.8091    123196.06    10.472245   0.20761174 
   18600   -1268.5708    151.39468   -1117.1761    2347.1747    129839.78    10.472245   0.26578349 
   18700   -1263.8968    151.49248   -1112.4043    2348.6911    133862.67    10.472245   0.26768301 
   18800   -1272.1801    139.37915    -1132.801    2160.8898    125353.63    10.472245   0.22380975 
   18900   -1269.8833    141.89617   -1127.9871     2199.913     127311.1    10.472245   0.24489584 
   19000   -1268.2755    154.43132   -1113.8442    2394.2539    129671.86    10.472245   0.25906672 
   19100   -1268.6601    138.93888   -1129.7212     2154.064    128499.63    10.472245   0.28356529 
   19200   -1271.3507    143.51553   -1127.8352     2225.019    126817.07    10.472245   0.23856834 
   19300   -1263.0873    151.99466   -1111.0927    2356.4766    133138.81    10.472245   0.26029532 
   19400   -1266.1113     145.9172   -1120.1941    2262.2537    131831.44    10.472245   0.28663719 
   19500   -1272.7378    149.76511   -1122.9727    2321.9105     126152.8    10.472245   0.22982027 
   19600   -1281.3974    143.08561   -1138.3118    2218.3536    119859.64    10.472245   0.20123553 
   19700   -1278.4785    148.58203   -1129.8965    2303.5683    123190.78    10.472245   0.19970691 
   19800   -1261.8702    141.48842   -1120.3818    2193.5913    133499.16    10.472245   0.24590537 
   19900   -1272.5539     140.0721   -1132.4818    2171.6332    125666.26    10.472245   0.20531668 
   20000   -1278.7163     146.8291   -1131.8872    2276.3915    122105.93    10.472245   0.19330668 
   20100   -1267.4053    147.56602   -1119.8393    2287.8164    128723.97    10.472245   0.27083376 
   20200   -1280.2173    149.28991   -1130.9274    2314.5431    122360.32    10.472245   0.23588686 
   20300    -1271.461    148.17247   -1123.2886    2297.2186    126622.92    10.472245   0.23369092 
   20400   -1266.7482    148.21326   -1118.5349    2297.8511    130191.97    10.472245   0.26342019 
   20500   -1274.8867    143.29206   -1131.5946    2221.5544    125606.18    10.472245   0.23058453 
   20600   -1271.1754    158.64215   -1112.5333    2459.5373    130066.14    10.472245   0.21576527 
   20700   -1272.4695    150.44856    -1122.021    2332.5065    128072.58    10.472245   0.26167882 
   20800   -1273.9407     141.6244   -1132.3163    2195.6995    124424.12    10.472245   0.23530502 
   20900   -1261.4354    149.82819   -1111.6072    2322.8885    134804.39    10.472245   0.26108509 
   21000   -1274.8911    149.18126   -1125.7099    2312.8586    125476.85    10.472245   0.23875417 
   21100   -1269.0544    139.74758   -1129.3068    2166.6019    128310.38    10.472245   0.24703213 
   21200   -1271.6555    149.17544   -1122.4801    2312.7684    129059.85    10.472245   0.23757126 
   21300    -1269.968     147.4535   -1122.5145     2286.072    128587.46    10.472245   0.26923622 
   21400   -1277.2459    158.41663   -1118.8293    2456.0408    125942.99    10.472245   0.20735217 
   21500   -1273.3582    145.45332   -1127.9049    2255.0619    125828.23    10.472245   0.24415012 
   21600   -1276.4626    150.62698   -1125.8356    2335.2727     124966.7    10.472245   0.20317122 
   21700   -1264.1553    150.88111   -1113.2742    2339.2126    132520.91    10.472245    0.2740907 
   21800   -1267.0189    140.40038   -1126.6186    2176.7227    129007.26    10.472245   0.27795459 
   21900   -1273.5712    152.96162   -1120.6096    2371.4681    126556.24    10.472245   0.27782134 
   22000   -1265.3003    146.93277   -1118.3675    2277.9988    131070.59    10.472245   0.26484051 
   22100   -1270.4007    138.53622   -1131.8645    2147.8213    125976.87    10.472245   0.27565559 
   22200   -1267.0676     142.0759   -1124.9917    2202.6994    128627.95    10.472245   0.27107877 
   22300   -1271.8743    152.52218   -1119.3521    2364.6552    127419.27    10.472245   0.21808868 
   22400   -1281.6144    143.33558   -1138.2788    2222.2291    120840.58    10.472245   0.19637422 
   22500    -1270.374     141.1836   -1129.1904    2188.8654    126900.24    10.472245   0.23256274 
   22600   -1264.8106    145.97252   -1118.8381    2263.1114    132001.71    10.472245   0.27274799 
   22700   -1274.5424    146.51429   -1128.0282    2271.5108    124873.46    10.472245   0.22583484 
   22800    -1274.973     143.6104   -1131.3626    2226.4898    124803.87    10.472245    0.2271727 
   22900   -1268.0196    151.81731   -1116.2023    2353.7271    129953.08    10.472245   0.29922109 
   23000   -1265.7803    144.04549   -1121.7349    2233.2353    131751.12    10.472245   0.25205142 
   23100   -1281.0023    141.39351   -1139.6088    2192.1198    120476.45    10.472245   0.20647672 
   23200   -1265.4788    143.58836   -1121.8905    2226.1481    132117.72    10.472245   0.24886266 
   23300   -1274.5683     156.8088   -1117.7595    2431.1136    126165.12    10.472245   0.21010787 
   23400   -1279.6273    143.39934    -1136.228    2223.2176    121079.38    10.472245   0.23761435 
   23500   -1269.3313    145.32245   -1124.0088    2253.0329    128457.95    10.472245    0.2371922 
   23600   -1263.5703    163.19849   -1100.3718    2530.1773    135692.52    10.472245    0.2397285 
   23700   -1272.6356    155.39759    -1117.238    2409.2346     127875.4    10.472245   0.26576067 
   23800    -1267.788    140.24766   -1127.5404    2174.3549     128362.1    10.472245   0.24473682 
   23900   -1277.2193    144.86494   -1132.3544    2245.9398    122402.24    10.472245   0.23012736 
   24000   -1274.7589     161.1385   -1113.6204    2498.2398    128318.52    10.472245   0.24375275 
   24100   -1280.8098    152.88391   -1127.9259    2370.2633    121793.44    10.472245   0.20375087 
   24200   -1279.6721    148.35453   -1131.3175    2300.0412     122446.9    10.472245   0.22153115 
   24300   -1268.2345    150.34303   -1117.8915    2330.8703    128718.33    10.472245    0.2572835 
   24400   -1274.2245     146.3624   -1127.8621     2269.156    126011.51    10.472245   0.22393537 
   24500   -1275.4707    144.65257   -1130.8182    2242.6473    125106.41    10.472245   0.24291009 
   24600   -1266.3213     148.2378   -1118.0835    2298.2316     131061.7    10.472245   0.26309681 
   24700   -1270.3505    150.04242    -1120.308    2326.2098    127235.97    10.472245   0.27213763 
   24800    -1272.174    137.75907    -1134.415    2135.7727    125383.73    10.472245   0.21947479 
   24900   -1269.8402    146.96081   -1122.8793    2278.4335    128484.22    10.472245   0.26511471 
   25000   -1259.2023    138.19791   -1121.0044    2142.5763    133689.52    10.472245   0.27801517 
   25100   -1271.5788    145.74535   -1125.8335    2259.5894    127380.02    10.472245   0.22679712 
   25200   -1276.8537    140.35666    -1136.497    2176.0448    122519.81    10.472245   0.22227561 
   25300   -1266.0454    148.35348   -1117.6919     2300.025    129325.01    10.472245   0.27621888 
   25400   -1269.0743    150.11447   -1118.9598    2327.3269    128777.71    10.472245    0.2794818 
   25500    -1284.773    146.68691   -1138.0861     2274.187    118571.28    10.472245   0.20986995 
   25600   -1274.4436    143.30166    -1131.142    2221.7031    125924.18    10.472245   0.23852258 
   25700   -1274.9964    153.40618   -1121.5902    2378.3604    126800.84    10.472245   0.21590873 
   25800   -1263.2055     143.0561   -1120.1494    2217.8961    131526.94    10.472245   0.27831074 
   25900   -1280.8697    148.67809   -1132.1916    2305.0577    122775.66    10.472245   0.21658979 
   26000   -1277.7766    149.22405   -1128.5526     2313.522    123582.82    10.472245    0.2144117 
   26100   -1262.6603    146.71958   -1115.9407    2274.6935    133121.09    10.472245   0.24697846 
   26200   -1270.1383    140.59731    -1129.541    2179.7758    127806.35    10.472245   0.25226316 
   26300   -1272.4764    148.41558   -1124.0609    2300.9878    127197.02    10.472245   0.24146173 
   26400    -1262.308    140.25647   -1122.0515    2174.4915    133016.92    10.472245   0.22688521 
   26500   -1280.8702    139.55573   -1141.3145    2163.6275    119406.71    10.472245   0.24117351 
   26600   -1273.7849    147.22738   -1126.5576    2282.5662    125758.51    10.472245    0.2352397 
   26700   -1266.2685    146.47289   -1119.7956    2270.8689    130225.52    10.472245   0.26861579 
   26800   -1269.6112    146.24535   -1123.3658    2267.3412     128944.3    10.472245   0.26173942 
   26900   -1281.9005    148.32702   -1133.5735    2299.6148    121089.91    10.472245   0.20175001 
   27000    -1270.091    154.39649   -1115.6945    2393.7139    129959.01    10.472245   0.23503767 
   27100   -1276.5981    153.31575   -1123.2824    2376.9585    123786.13    10.472245   0.22953124 
   27200   -1273.4385    143.15359   -1130.2849    2219.4075    125553.27    10.472245   0.21348878 
   27300   -1285.7846    141.39772   -1144.3869    2192.1852    116925.54    10.472245   0.22665873 
   27400   -1270.4373    147.42546   -1123.0119    2285.6373    128140.05    10.472245   0.27570237 
   27500   -1264.5069    146.87906   -1117.6278    2277.1661    130745.61    10.472245   0.24853784 
   27600   -1275.7504      138.801   -1136.9494    2151.9264    123557.47    10.472245   0.23633422 
   27700   -1275.4947    151.22195   -1124.2728    2344.4969    124609.05    10.472245   0.23461728 
   27800   -1271.8952    150.96473   -1120.9304     2340.509    127587.62    10.472245   0.23215212 
   27900   -1278.0411    138.98417   -1139.0569    2154.7661    122446.25    10.472245   0.21383982 
   28000   -1274.0375     151.6851   -1122.3524    2351.6774    125701.34    10.472245    0.2227627 
   28100   -1272.2132    148.87194   -1123.3413     2308.063       128220    10.472245   0.23709735 
   28200   -1284.4123    145.98825    -1138.424    2263.3552    119238.36    10.472245   0.22701247 
   28300   -1264.1817    136.55051   -1127.6312    2117.0355     129142.4    10.472245   0.26123749 
   28400   -1271.5408     147.2926   -1124.2482    2283.5774    128395.89    10.472245   0.24445171 
   28500   -1276.7668    145.72758   -1131.0392    2259.3138    124604.39    10.472245   0.23215798 
   28600   -1267.6855    154.91968   -1112.7658    2401.8253    131239.96    10.472245   0.25770686 
   28700   -1275.5239    153.16642   -1122.3574    2374.6433    124970.79    10.472245   0.23088907 
   28800   -1265.2501    137.19861   -1128.0515    2127.0834    130014.14    10.472245   0.25071378 
   28900   -1273.5336    157.75699   -1115.7766     2445.814    128069.49    10.472245   0.24065304 
   29000   -1269.1756     138.8372   -1130.3384    2152.4877    126891.18    10.472245   0.27132545 
   29100   -1280.8341    152.35129   -1128.4829    2362.0057    121794.18    10.472245   0.19688065 
   29200   -1262.4921    146.66433   -1115.8277    2273.8369    133186.49    10.472245    0.2703494 
   29300   -1271.0962    146.17208   -1124.9241    2266.2053    128738.02    10.472245   0.27456059 
   29400   -1274.4765    144.41554   -1130.0609    2238.9724    125267.13    10.472245   0.26630471 
   29500   -1264.5182    150.95966   -1113.5585    2340.4304    131726.61    10.472245   0.25892446 
   29600   -1269.2682    147.42207   -1121.8461    2285.5847    129226.98    10.472245   0.23161398 
   29700   -1275.2094    149.17606   -1126.0333    2312.7781    125515.33    10.472245   0.24258775 
   29800   -1266.7259    159.16195    -1107.564     2467.596    132060.23    10.472245   0.25588967 
   29900   -1275.9529    155.32287     -1120.63    2408.0762    126004.84    10.472245   0.24769203 
   30000   -1267.3568    140.11036   -1127.2465    2172.2263    130060.02    10.472245   0.25438065 
   30100   -1274.2203    150.91724    -1123.303    2339.7727    126182.78    10.472245   0.22334083 
   30200   -1266.3315    143.49077   -1122.8407     2224.635    130685.61    10.472245   0.28977896 
   30300   -1272.9519    152.22319   -1120.7287    2360.0198    126605.79    10.472245   0.23510326 
   30400   -1266.4544    141.88092   -1124.5735    2199.6765    130432.86    10.472245     0.290819 
   30500   -1264.6423    153.93205   -1110.7103    2386.5134    132397.26    10.472245   0.30181552 
   30600   -1267.6138    149.50807   -1118.1057    2317.9254    131279.09    10.472245   0.29450138 
   30700   -1270.7591     149.3622   -1121.3969    2315.6638    129069.54    10.472245   0.37194682 
   30800   -1265.6322     156.9233   -1108.7089    2432.8887    133873.62    10.472245   0.37316115 
   30900   -1270.5557    144.52775   -1126.0279    2240.7121    127191.66    10.472245   0.42466132 
   31000   -1265.1932    147.88348   -1117.3098    2292.7382    132957.48    10.472245   0.41333093 
   31100   -1262.8575    146.39742   -1116.4601    2269.6989    132826.59    10.472245   0.51274586 
   31200    -1267.009    144.36996    -1122.639    2238.2658    130515.08    10.472245   0.47594537 
   31300   -1268.0428    145.59739   -1122.4454    2257.2955    129551.68    10.472245   0.52798872 
   31400   -1261.2008    156.32179    -1104.879    2423.5632    134524.06    10.472245   0.53130036 
   31500   -1267.1158    149.72654   -1117.3892    2321.3125     130060.6    10.472245   0.52813551 
   31600   -1263.9376    147.19161    -1116.746    2282.0118    133105.77    10.472245   0.55184555 
   31700   -1257.1074    153.72477   -1103.3826    2383.2997     137892.8    10.472245   0.63376062 
   31800   -1262.9321    161.68457   -1101.2476    2506.7059     135832.8    10.472245   0.60227444 
   31900   -1267.3338    148.72981    -1118.604    2305.8594    130270.98    10.472245    0.5693297 
   32000   -1270.7091    153.35233   -1117.3567    2377.5256     128188.2    10.472245   0.57798023 
   32100   -1255.0188    151.21988   -1103.7989    2344.4647     138440.1    10.472245   0.67303301 
   32200   -1267.0487    150.02302   -1117.0257    2325.9089     130375.1    10.472245   0.71399704 
   32300   -1269.0183     143.7407   -1125.2777    2228.5099    128969.24    10.472245   0.70508741 
   32400   -1255.3979    148.94881   -1106.4491    2309.2548    138823.88    10.472245   0.66044412 
   32500   -1267.5639     147.6894   -1119.8745    2289.7293    130363.44    10.472245   0.64504427 
   32600   -1268.4591    146.43805   -1122.0211    2270.3287    129695.95    10.472245   0.62590272 
   32700   -1267.9213    158.50902   -1109.4123    2457.4732    131997.13    10.472245   0.69678882 
   32800   -1270.7773     147.7029   -1123.0744    2289.9386    127120.33    10.472245   0.73665459 
   32900   -1277.7271    148.91825   -1128.8088     2308.781    122456.03    10.472245   0.69126061 
   33000   -1262.1418    153.19046   -1108.9513     2375.016    135008.53    10.472245   0.70310988 
   33100   -1269.2534    150.81987   -1118.4335    2338.2632    130119.35    10.472245   0.75770781 
   33200   -1274.6867    150.43889   -1124.2478    2332.3564    125943.77    10.472245   0.69231508 
   33300   -1275.4493    133.62055   -1141.8287    2071.6104    123720.56    10.472245   0.67532734 
   33400   -1273.4348    146.00973   -1127.4251    2263.6882    125563.03    10.472245   0.69531315 
   33500    -1269.807    146.38045   -1123.4265    2269.4358     129452.2    10.472245   0.71060422 
   33600   -1265.7112    139.02835   -1126.6828    2155.4512    130881.73    10.472245   0.73623122 
   33700   -1277.0643    138.47391   -1138.5904    2146.8553    122521.11    10.472245     0.689455 
   33800   -1268.2883    149.94941   -1118.3389    2324.7678    129621.12    10.472245   0.70255005 
   33900    -1264.586    138.62771   -1125.9583    2149.2397    131877.14    10.472245   0.71697013 
   34000   -1280.8289    152.02979   -1128.7991    2357.0214    121409.73    10.472245   0.66999941 
   34100   -1263.5903    154.10848   -1109.4818    2389.2486    133517.81    10.472245   0.75101499 
   34200   -1268.8858    144.42804   -1124.4578    2239.1662    129787.54    10.472245   0.74438613 
   34300   -1267.5039     136.6172   -1130.8867    2118.0694    129091.37    10.472245   0.63677878 
   34400   -1279.8732    143.21957   -1136.6536    2220.4305    122361.84    10.472245   0.64431988 
   34500   -1274.0111    153.88524   -1120.1259    2385.7876    126856.65    10.472245    0.7549932 
   34600   -1271.9113    144.20746   -1127.7038    2235.7464    126905.03    10.472245   0.68842928 
   34700    -1273.935     140.7155   -1133.2195    2181.6081    124766.09    10.472245    0.6853271 
   34800    -1272.462    147.96747   -1124.4945    2294.0405    127881.97    10.472245   0.74212028 
   34900   -1272.1696    161.20858   -1110.9611    2499.3264    128894.94    10.472245   0.72008564 
   35000   -1270.5006     157.8213   -1112.6793     2446.811    130243.79    10.472245   0.71030747 
   35100   -1274.7879    151.58021   -1123.2076    2350.0512    126181.19    10.472245   0.72015928 
   35200   -1272.1748     153.2293   -1118.9455    2375.6182    127831.17    10.472245   0.68470986 
   35300   -1268.5784    153.35261   -1115.2258    2377.5299    130400.95    10.472245   0.71394651 
   35400   -1267.7353    136.71876   -1131.0165    2119.6439     129409.1    10.472245   0.76071274 
   35500   -1274.1291    158.12629   -1116.0028    2451.5395    127256.95    10.472245   0.67469431 
   35600   -1272.5886    147.49698   -1125.0916     2286.746    125768.95    10.472245   0.75556981 
   35700   -1275.5081    149.44971   -1126.0584    2317.0206    124696.26    10.472245   0.68373873 
   35800   -1263.1384    148.80691   -1114.3315    2307.0549    134140.87    10.472245   0.74257041 
   35900    -1259.042    148.61623   -1110.4257    2304.0985       135533    10.472245   0.79744719 
   36000   -1267.5616    140.75449   -1126.8072    2182.2127     128644.7    10.472245    0.8251965 
   36100   -1265.4799    147.75632   -1117.7235    2290.7668    130105.92    10.472245   0.81610996 
   36200   -1263.0157    144.74022   -1118.2755    2244.0061    132589.07    10.472245   0.83849643 
   36300   -1276.5832    150.35205   -1126.2312    2331.0102    124657.82    10.472245   0.78703317 
   36400   -1275.1207    147.64136   -1127.4793    2288.9845    124603.71    10.472245   0.76267197 
   36500   -1274.7731    153.41952   -1121.3536    2378.5673    125950.55    10.472245   0.78618893 
   36600   -1257.6641    155.80233   -1101.8618    2415.5095    136996.73    10.472245   0.83963993 
   36700   -1273.4437    149.13364     -1124.31    2312.1203    126463.43    10.472245   0.80129369 
   36800   -1274.3349    148.51076   -1125.8242    2302.4634    126270.55    10.472245   0.76710199 
   36900   -1272.8163    155.65963   -1117.1567    2413.2972    128564.98    10.472245   0.91083591 
   37000   -1264.9065    154.32337   -1110.5831    2392.5803    131985.14    10.472245   0.83533132 
   37100   -1275.1618    145.85463   -1129.3071    2261.2837    124173.03    10.472245    0.8114208 
   37200     -1268.39    145.76405    -1122.626    2259.8793    129980.39    10.472245   0.81712034 
   37300   -1263.0159    155.26249   -1107.7534    2407.1401     133547.5    10.472245   0.80671318 
   37400   -1263.2398    147.71436   -1115.5254    2290.1163    131168.53    10.472245   0.83314573 
   37500   -1278.3448    146.68384    -1131.661    2274.1394    122116.13    10.472245   0.79401187 
   37600   -1268.9302    149.04663   -1119.8836    2310.7713    130172.71    10.472245   0.83434961 
   37700   -1273.0274    155.10934   -1117.9181    2404.7657    127265.08    10.472245    0.8672902 
   37800   -1269.7032    142.98442   -1126.7187    2216.7848    128137.06    10.472245   0.86046365 
   37900   -1257.2376    148.05626   -1109.1813     2295.417    136993.87    10.472245   0.86942836 
   38000   -1263.9264    145.65976   -1118.2667    2258.2624    133197.09    10.472245   0.84144404 
   38100   -1274.1842    149.33592   -1124.8482    2315.2564    126860.41    10.472245   0.78469069 
   38200   -1277.0121    141.81944   -1135.1926    2198.7233    123201.85    10.472245   0.81562927 
   38300   -1272.4844    144.01098   -1128.4734    2232.7002     127272.7    10.472245    0.8339124 
   38400   -1266.8473    147.83468   -1119.0127    2291.9817    130287.46    10.472245   0.78471791 
   38500   -1278.7487    145.90402   -1132.8447    2262.0494    120781.12    10.472245   0.80546735 
   38600   -1265.4226    143.30436   -1122.1182     2221.745    130826.01    10.472245   0.86050041 
   38700   -1268.8411    154.00367   -1114.8374    2387.6238    129572.45    10.472245   0.80509982 
   38800     -1275.36    144.44413   -1130.9159    2239.4156    123732.52    10.472245   0.75008231 
   38900   -1273.8391    154.40621   -1119.4329    2393.8645    127991.34    10.472245   0.83431195 
   39000   -1254.4716     153.7365   -1100.7351    2383.4816     139425.4    10.472245   0.89112597 
   39100   -1265.7543    148.01152   -1117.7428    2294.7234    130959.82    10.472245   0.83109016 
   39200   -1271.4003    143.34308   -1128.0572    2222.3454    127416.05    10.472245   0.81429464 
   39300   -1275.2357    146.89011   -1128.3456    2277.3373    124376.64    10.472245   0.78960293 
   39400   -1257.6274    144.68731   -1112.9401    2243.1859    135831.21    10.472245   0.88352944 
   39500   -1261.2629    144.37878   -1116.8841    2238.4025    133479.44    10.472245   0.85063149 
   39600   -1273.0888    140.61235   -1132.4764     2180.009    126084.96    10.472245   0.86302982 
   39700   -1262.4752    142.97801   -1119.4972    2216.6854    132986.68    10.472245   0.78662609 
   39800   -1273.3581    147.85291   -1125.5052    2292.2643    126592.67    10.472245   0.84944349 
   39900   -1286.1368    142.07755   -1144.0593    2202.7249    117231.06    10.472245   0.77583356 
   40000   -1275.0433    148.42383   -1126.6195    2301.1157    126072.45    10.472245   0.80214792 
   40100   -1274.9754    153.96103   -1121.0143    2386.9627    125168.25    10.472245   0.75227715 
   40200   -1272.3965    141.38612   -1131.0104    2192.0053    126015.51    10.472245   0.80095351 
   40300   -1273.8597    149.74006   -1124.1197    2321.5221    126485.01    10.472245   0.80157207 
   40400   -1267.9154    155.33784   -1112.5776    2408.3083    132035.71    10.472245   0.78194435 
   40500   -1270.5921    144.39778   -1126.1943     2238.697     127210.8    10.472245   0.77055192 
   40600   -1272.7649    147.48527   -1125.2796    2286.5645    126918.56    10.472245   0.78295918 
   40700   -1266.9968     156.6729   -1110.3239    2429.0066     131920.8    10.472245   0.80535648 
   40800   -1269.3123    142.06381   -1127.2485     2202.512    127672.15    10.472245   0.82477305 
   40900   -1274.9387    147.23686   -1127.7019    2282.7132    123370.07    10.472245   0.86112705 
   41000   -1273.8082    162.76074   -1111.0475    2523.3906    128630.97    10.472245   0.82174037 
   41100   -1267.7037    147.37514   -1120.3285    2284.8571    129235.09    10.472245   0.85881919 
   41200   -1277.2517    148.86176   -1128.3899    2307.9052    124183.69    10.472245   0.78037474 
   41300   -1279.9493    139.06459   -1140.8848     2156.013    121029.12    10.472245   0.78028325 
   41400   -1272.1112    149.21443   -1122.8968    2313.3729    127804.44    10.472245   0.80524598 
   41500   -1272.8981    148.26202   -1124.6361    2298.6071     125966.7    10.472245    0.7884333 
   41600   -1276.1342    138.82499   -1137.3092    2152.2983    123914.09    10.472245   0.75857814 
   41700    -1263.511    145.12581   -1118.3852    2249.9842    132422.41    10.472245   0.82943891 
   41800   -1269.2536    147.98657    -1121.267    2294.3366    129041.54    10.472245   0.80736174 
   41900   -1281.4726    143.73423   -1137.7384    2228.4097    121835.13    10.472245   0.76135502 
   42000   -1279.7012    139.20607   -1140.4951    2158.2064    121519.92    10.472245   0.77018781 
   42100   -1271.5871    146.75902   -1124.8281     2275.305    128759.66    10.472245   0.77605714 
   42200   -1275.6132    158.07306   -1117.5401    2450.7143    126675.31    10.472245   0.81609741 
   42300   -1272.0706    138.13583   -1133.9348    2141.6139    125861.74    10.472245   0.79488699 
   42400   -1273.7592    150.55933   -1123.1999    2334.2237    126371.66    10.472245   0.82690231 
   42500   -1277.3768    161.43079    -1115.946    2502.7714    125436.49    10.472245   0.77204723 
   42600   -1272.5763     144.5403    -1128.036    2240.9066    127150.28    10.472245   0.74808756 
   42700   -1272.2308    146.52876    -1125.702     2271.735    127370.15    10.472245   0.81526928 
   42800   -1256.0088    147.50955   -1108.4993     2286.941    137224.34    10.472245   0.80838889 
   42900   -1278.0123    149.95097   -1128.0613     2324.792    123776.65    10.472245   0.75058849 
   43000   -1277.6269     151.1299    -1126.497    2343.0697    125231.94    10.472245   0.78159528 
   43100   -1268.9684     162.6133   -1106.3551    2521.1047    131418.48    10.472245   0.79534567 
   43200   -1269.4068    149.74587   -1119.6609    2321.6122    128441.29    10.472245   0.83051449 
   43300   -1275.6764    146.67385   -1129.0026    2273.9846    124338.71    10.472245   0.80178009 
   43400   -1285.8986    147.96605   -1137.9325    2294.0184    117218.02    10.472245   0.78819099 
   43500   -1275.9602     154.8416   -1121.1186    2400.6148     125696.8    10.472245   0.80581614 
   43600   -1273.1732    148.00612   -1125.1671    2294.6396    127066.23    10.472245   0.81326927 
   43700    -1275.916    146.20979   -1129.7062    2266.7898    124709.32    10.472245   0.76402009 
   43800   -1260.8078    153.25635   -1107.5514    2376.0375    134431.83    10.472245   0.85256682 
   43900   -1278.8994    154.29787   -1124.6016    2392.1849    122677.36    10.472245   0.78621246 
   44000   -1271.2697    145.44699   -1125.8227    2254.9638    128421.64    10.472245   0.79378728 
   44100   -1258.8935    154.80314   -1104.0904    2400.0185    136553.64    10.472245   0.84663318 
   44200   -1265.0126    153.93322   -1111.0794    2386.5314    132725.94    10.472245   0.84033119 
   44300   -1276.5858    149.52475   -1127.0611     2318.184    125102.56    10.472245   0.81359107 
   44400   -1280.9507    149.59979   -1131.3509    2319.3473    121507.88    10.472245   0.75491771 
   44500   -1265.9706    155.68759    -1110.283    2413.7307    132467.83    10.472245   0.85332749 
   44600   -1273.4804    149.69989   -1123.7805    2320.8993    125121.36    10.472245   0.83555097 
   44700   -1276.5763    145.41273   -1131.1636    2254.4325    124925.01    10.472245   0.76890869 
   44800   -1285.0896    141.81761    -1143.272     2198.695     117704.1    10.472245   0.75461601 
   44900   -1273.4498    149.81559   -1123.6342     2322.693    126541.75    10.472245   0.76664938 
   45000   -1270.3623    146.68484   -1123.6775    2274.1549    128705.26    10.472245   0.76361209 
   45100    -1274.996    141.97157   -1133.0244    2201.0819    124868.99    10.472245   0.86019718 
   45200   -1267.2193    152.26866   -1114.9506    2360.7247    132194.19    10.472245   0.85041883 
   45300   -1266.2179    145.65469   -1120.5632    2258.1838    130910.98    10.472245   0.81355664 
   45400   -1273.6347    146.94398   -1126.6907    2278.1725    126903.53    10.472245   0.79533909 
   45500   -1274.9599    146.90949   -1128.0505    2277.6378    125637.23    10.472245   0.79019505 
   45600   -1268.1285    158.50581   -1109.6227    2457.4235    131091.08    10.472245   0.83002014 
   45700    -1269.171    146.80466   -1122.3663    2276.0126    128899.52    10.472245   0.81076987 
   45800   -1275.6868    149.33152   -1126.3553    2315.1882    125819.58    10.472245   0.76290245 
   45900   -1260.1251     140.0742   -1120.0509    2171.6657    133460.23    10.472245   0.80994666 
   46000   -1264.0711    154.80659   -1109.2645    2400.0719    133671.46    10.472245   0.85330649 
   46100   -1278.2649    147.71908   -1130.5458    2290.1894    122212.68    10.472245   0.81199611 
   46200   -1269.6611    148.75842   -1120.9027    2306.3031    129026.85    10.472245   0.80061681 
   46300   -1275.1407    156.45932   -1118.6814    2425.6954    127281.31    10.472245   0.78937277 
   46400   -1272.1355    146.74735   -1125.3881     2275.124    127604.24    10.472245   0.80163509 
   46500   -1274.1591    150.37505    -1123.784    2331.3667    126330.43    10.472245   0.78678696 
   46600   -1276.9265    145.45844    -1131.468    2255.1411    122569.81    10.472245   0.78903006 
   46700   -1281.7788    153.72405   -1128.0547    2383.2886    121370.72    10.472245   0.79200966 
   46800   -1265.9788    148.60838   -1117.3704    2303.9768    131337.98    10.472245   0.79026257 
   46900   -1281.5671    150.77269   -1130.7944    2337.5316    121455.31    10.472245   0.76628173 
   47000   -1274.8222    139.23259   -1135.5896    2158.6176    125270.05    10.472245   0.82240913 
   47100   -1273.6604    150.38681   -1123.2736    2331.5491    126399.51    10.472245   0.81351504 
   47200   -1266.1426    148.99542   -1117.1472    2309.9773    131540.85    10.472245   0.82655177 
   47300   -1267.9701    155.33097   -1112.6391    2408.2018    131067.37    10.472245   0.80235886 
   47400     -1271.38    142.08869   -1129.2913    2202.8976    127360.31    10.472245   0.82838062 
   47500    -1276.008    157.23966   -1118.7683    2437.7936    127124.76    10.472245   0.78157889 
   47600   -1267.9583    159.68184   -1108.2764    2475.6562    131711.83    10.472245   0.79959326 
   47700   -1278.4919    148.66993   -1129.8219    2304.9312    122466.91    10.472245   0.78806712 
   47800   -1271.9633    147.37922   -1124.5841    2284.9203    127340.92    10.472245   0.76820746 
   47900   -1262.9305    154.55704   -1108.3735     2396.203    134020.11    10.472245   0.80257848 
   48000   -1275.7739    145.92758   -1129.8463    2262.4146    124928.88    10.472245   0.74238176 
   48100   -1270.2884    145.38109   -1124.9073     2253.942    128288.38    10.472245   0.82462312 
   48200   -1264.8504    154.60801   -1110.2424    2396.9933    133745.67    10.472245   0.76689128 
   48300   -1270.6002    147.88408   -1122.7161    2292.7476    129074.75    10.472245   0.83141338 
   48400    -1267.859    147.42717   -1120.4318    2285.6637    129844.67    10.472245   0.82532461 
   48500   -1274.4488    150.57322   -1123.8756    2334.4392    125924.67    10.472245    0.8447579 
   48600   -1278.8088    145.99515   -1132.8136    2263.4621    123520.34    10.472245   0.76166425 
   48700    -1264.519    153.50337   -1111.0157    2379.8673    132541.49    10.472245   0.81742612 
   48800   -1273.5979    152.63749   -1120.9604    2366.4429    127523.35    10.472245   0.82274469 
   48900   -1277.0925    150.22261   -1126.8699    2329.0033     123718.2    10.472245   0.80064653 
   49000    -1278.593    142.20107   -1136.3919    2204.6399    121782.83    10.472245   0.83836312 
   49100   -1271.3783    150.16034   -1121.2179     2328.038    128261.99    10.472245   0.76566492 
   49200   -1272.0406    150.52902   -1121.5116    2333.7539    127977.68    10.472245   0.81929834 
   49300   -1281.3458    140.49172    -1140.854    2178.1387    119978.75    10.472245   0.81868772 
   49400    -1273.108    143.12136   -1129.9867    2218.9078    127017.44    10.472245   0.78056387 
   49500   -1269.7128    147.63637   -1122.0764    2288.9071    129862.52    10.472245   0.80524551 
   49600   -1260.4893    150.63857   -1109.8507    2335.4523    134559.51    10.472245   0.82950499 
   49700   -1270.7563    149.43185   -1121.3245    2316.7437     127269.7    10.472245   0.86481387 
   49800   -1264.7339     141.8996   -1122.8343     2199.966    130462.84    10.472245   0.80985007 
   49900   -1263.3367    145.50594   -1117.8308    2255.8776    132024.62    10.472245   0.84848145 
   50000   -1284.0361    151.43877   -1132.5974    2347.8583    120066.78    10.472245   0.77051957 
   50100   -1274.9005    147.50496   -1127.3955    2286.8697    125939.36    10.472245   0.79189968 
   50200   -1264.5185    147.63617   -1116.8824     2288.904    132104.95    10.472245   0.82350414 
   50300   -1277.8767    143.28376   -1134.5929    2221.4257    124041.91    10.472245   0.78012063 
   50400   -1279.5035    146.33761   -1133.1659    2268.7715    121171.76    10.472245   0.76492467 
   50500   -1272.1216    150.56176   -1121.5598    2334.2615    127466.06    10.472245   0.78405116 
   50600   -1266.1994    151.77076   -1114.4286    2353.0053     131225.9    10.472245   0.83275532 
   50700   -1266.2956    138.72957   -1127.5661    2150.8189    130385.55    10.472245    0.7712299 
   50800   -1272.0374    150.98215   -1121.0553    2340.7791    126987.37    10.472245   0.76898317 
   50900   -1260.0503    140.34367   -1119.7066    2175.8435    133755.34    10.472245   0.81518166 
   51000   -1278.6752    149.97619    -1128.699     2325.183    123133.49    10.472245   0.85347545 
   51100    -1270.402    153.81817   -1116.5838    2384.7478    129013.43    10.472245   0.79414965 
   51200   -1279.0211    156.92196   -1122.0991    2432.8679     123757.5    10.472245   0.81120076 
   51300   -1271.7845    147.26074   -1124.5237    2283.0835     127340.6    10.472245   0.81785173 
   51400   -1278.7123    146.41895   -1132.2933    2270.0327    122060.38    10.472245   0.79520855 
   51500   -1272.2799    142.26395   -1130.0159    2205.6148    126116.19    10.472245   0.82290288 
   51600    -1274.212    158.31373   -1115.8983    2454.4455    126591.53    10.472245   0.76522628 
   51700   -1268.7284    142.52808   -1126.2003    2209.7099    127711.86    10.472245   0.77117487 
   51800   -1276.8425    134.02841   -1142.8141    2077.9337    120790.55    10.472245   0.79786768 
   51900   -1276.6559    152.77304   -1123.8829    2368.5444    125644.53    10.472245   0.80250401 
   52000   -1270.7909    147.94535   -1122.8456    2293.6975    127667.26    10.472245   0.82731506 
   52100   -1286.8925     152.9282   -1133.9643    2370.9499    119108.44    10.472245    0.7990566 
   52200   -1277.9463    145.60281   -1132.3435    2257.3795    123997.28    10.472245   0.82170464 
   52300   -1262.1988    143.49285    -1118.706    2224.6674    133404.85    10.472245    0.8195822 
   52400   -1284.3339    153.53477   -1130.7991    2380.3541    119969.84    10.472245   0.77035211 
   52500   -1265.8979    133.10539   -1132.7925    2063.6235    130282.58    10.472245   0.81099815 
   52600    -1269.094      154.734     -1114.36    2398.9466    130532.38    10.472245   0.80073886 
   52700   -1281.2609    155.02883   -1126.2321    2403.5175       122539    10.472245   0.79052493 
   52800   -1272.7403    138.13442   -1134.6059    2141.5919     125430.7    10.472245   0.77266425 
   52900   -1260.0609    145.77138   -1114.2895    2259.9929    133745.43    10.472245   0.83894972 
   53000   -1275.9003    149.20818   -1126.6921    2313.2759    125837.94    10.472245   0.84116432 
   53100   -1276.0964    151.92778   -1124.1686    2355.4398    124867.46    10.472245   0.78898474 
   53200   -1258.2787    158.61498   -1099.6637     2459.116    138635.65    10.472245    0.8627376 
   53300    -1268.699    148.54795    -1120.151      2303.04    129712.21    10.472245   0.81575318 
   53400   -1273.5345    143.47267   -1130.0618    2224.3544    125583.22    10.472245   0.80566219 
   53500   -1269.3223    154.90498   -1114.4173    2401.5973     129433.9    10.472245   0.88020312 
   53600   -1265.0422    152.25362   -1112.7886    2360.4916    131985.57    10.472245   0.85795867 
   53700   -1273.9323    153.09064   -1120.8416    2373.4683    126563.49    10.472245    0.8640783 
   53800   -1273.4739    149.78406   -1123.6898    2322.2043    127834.47    10.472245   0.81254939 
   53900   -1279.6324    152.34658   -1127.2858    2361.9328    122118.53    10.472245   0.76188808 
   54000   -1268.0354    148.35406   -1119.6813     2300.034    129802.04    10.472245   0.80438404 
   54100   -1269.1832    155.65614   -1113.5271    2413.2431    128585.73    10.472245   0.80296806 
   54200    -1279.495    146.99083   -1132.5042    2278.8988    121717.02    10.472245   0.81343692 
   54300   -1269.0944    150.65149   -1118.4429    2335.6526    129030.64    10.472245   0.82468588 
   54400   -1268.6331    148.01292   -1120.6202    2294.7451    129815.92    10.472245   0.76807746 
   54500   -1268.8377    145.72177   -1123.1159    2259.2238    129427.75    10.472245   0.82401017 
   54600    -1273.468    157.93896   -1115.5291    2448.6352    128368.53    10.472245   0.78354341 
   54700   -1282.3079    146.65724   -1135.6507     2273.727     120049.6    10.472245   0.75523539 
   54800   -1278.1313    152.95316   -1125.1781     2371.337    124625.15    10.472245   0.82062638 
   54900   -1270.3368    151.73896   -1118.5978    2352.5125    129549.68    10.472245   0.78067045 
   55000   -1272.1316    141.97988   -1130.1517    2201.2107     126938.9    10.472245   0.81900546 
   55100    -1263.859    153.66353   -1110.1954    2382.3504    131710.42    10.472245    0.8003941 
   55200   -1269.5519    148.87853   -1120.6733    2308.1652     127681.8    10.472245   0.85384948 
   55300   -1276.9791     153.2169   -1123.7622    2375.4259    124260.68    10.472245     0.803869 
   55400   -1270.4558    148.53449   -1121.9213    2302.8313    128112.23    10.472245   0.82082902 
   55500   -1275.6573    162.95187   -1112.7055    2526.3538    126455.33    10.472245   0.80612854 
   55600   -1273.1442    140.38224   -1132.7619    2176.4414     124711.8    10.472245   0.82422668 
   55700   -1271.2563    148.80644   -1122.4499    2307.0475     127000.4    10.472245   0.80379357 
   55800   -1272.1565    148.66668   -1123.4899    2304.8808    128044.22    10.472245   0.80099097 
   55900   -1277.8229    135.69574   -1142.1272    2103.7835    121933.83    10.472245   0.76392267 
   56000   -1266.4266    141.07603   -1125.3506    2187.1977    130247.19    10.472245   0.80332706 
   56100   -1274.8982    156.81762   -1118.0806    2431.2503    125216.85    10.472245   0.76513611 
   56200   -1278.2262    144.67782   -1133.5484    2243.0387    122611.65    10.472245   0.82097961 
   56300   -1265.4679    146.68911   -1118.7788    2274.2212    132178.44    10.472245   0.85845966 
   56400   -1264.2411    146.13874   -1118.1023    2265.6883    132259.29    10.472245    0.8060632 
   56500   -1272.5104    144.32927   -1128.1811     2237.635    128246.32    10.472245   0.83382724 
   56600   -1266.5872    161.34378   -1105.2434    2501.4224    132821.78    10.472245   0.83580923 
   56700   -1277.7669    157.69554   -1120.0713    2444.8613    125107.44    10.472245   0.78282154 
   56800   -1276.9508    145.79906   -1131.1517    2260.4221    123383.29    10.472245   0.78368902 
   56900   -1259.6937    140.96489   -1118.7288    2185.4747    134790.46    10.472245   0.83417136 
   57000   -1273.2274    157.01717   -1116.2103    2434.3441    128172.46    10.472245   0.77558718 
   57100   -1274.6733    144.61454   -1130.0588    2242.0577    124745.62    10.472245   0.76254874 
   57200   -1272.9493     147.7978   -1125.1515    2291.4099    126385.64    10.472245   0.80041941 
   57300   -1258.9391    152.57836   -1106.3607    2365.5262    136379.03    10.472245   0.81449873 
   57400   -1269.7956    145.36474   -1124.4309    2253.6886    128863.23    10.472245   0.79593107 
   57500   -1276.1505    152.88928   -1123.2612    2370.3466    125335.36    10.472245   0.84896763 
   57600   -1260.8433    158.12914   -1102.7141    2451.5836    135360.38    10.472245   0.83898716 
   57700   -1268.3202    154.17447   -1114.1457    2390.2717    130209.61    10.472245   0.81233513 
   57800   -1266.7282    138.89919    -1127.829    2153.4487    128398.88    10.472245   0.80178879 
   57900   -1263.4172    149.87145   -1113.5457     2323.559    133551.03    10.472245   0.82031866 
   58000   -1254.9945    145.08264   -1109.9118     2249.315    137209.88    10.472245   0.82381444 
   58100   -1280.0174    148.23569   -1131.7817    2298.1989    122125.88    10.472245   0.78048539 
   58200   -1273.6319    150.80858   -1122.8233    2338.0881    126493.98    10.472245   0.77764945 
   58300   -1265.3391    151.68734   -1113.6517    2351.7121    132093.29    10.472245   0.81090346 
   58400   -1277.8224    145.08228   -1132.7401    2249.3094    123272.35    10.472245   0.81032384 
   58500   -1273.2272    130.55722     -1142.67    2024.1174    124502.86    10.472245   0.80438532 
   58600   -1279.5727    155.13688   -1124.4358    2405.1927    122065.63    10.472245   0.76054365 
   58700   -1265.9851    153.84848   -1112.1367    2385.2177    132358.08    10.472245   0.78271432 
   58800   -1277.6776    145.72682   -1131.9508    2259.3021    123620.55    10.472245   0.80809037 
   58900    -1273.342     147.6178   -1125.7242    2288.6193     126953.2    10.472245   0.78465712 
   59000   -1270.2874    154.64241    -1115.645    2397.5266    130600.52    10.472245   0.80105545 
   59100   -1278.9881    140.77052   -1138.2176    2182.4611    122212.67    10.472245   0.80924234 
   59200   -1268.2081    145.70574   -1122.5023    2258.9753    129659.42    10.472245   0.79521327 
   59300   -1275.0519    153.37753   -1121.6744    2377.9162    125195.61    10.472245   0.82089334 
   59400   -1280.5109    143.94556   -1136.5653     2231.686    120843.67    10.472245   0.79377566 
   59500   -1265.6378    143.69182    -1121.946    2227.7521    130462.21    10.472245   0.81797945 
   59600   -1264.9684    147.19516   -1117.7733    2282.0667    131054.58    10.472245   0.79837867 
   59700   -1277.3437    141.36366     -1135.98     2191.657    122699.01    10.472245   0.77608133 
   59800   -1276.2119    147.56287    -1128.649    2287.7676     123846.1    10.472245   0.75133757 
   59900   -1270.5633    148.16768   -1122.3956    2297.1444    128501.84    10.472245   0.77270698 
   60000   -1275.8305    146.11415   -1129.7163    2265.3072    124775.12    10.472245   0.78271664 
   60100   -1275.2486    136.28221   -1138.9664    2112.8758    123312.54    10.472245   0.80401579 
   60200   -1274.7741    150.07852   -1124.6956    2326.7695    126099.75    10.472245   0.76008688 
   60300   -1272.6454    155.60048    -1117.045    2412.3802    128526.68    10.472245   0.80981418 
   60400   -1272.4015    152.98634   -1119.4152    2371.8514    129596.37    10.472245   0.81648079 
   60500   -1275.6769     146.2588   -1129.4181    2267.5497    124315.86    10.472245   0.81528755 
   60600   -1267.0576    155.88752   -1111.1701    2416.8303    131600.27    10.472245   0.80954529 
   60700   -1270.6615    157.28448    -1113.377    2438.4883    129925.37    10.472245   0.81820169 
   60800   -1268.2628    145.69897   -1122.5638    2258.8703    128619.29    10.472245   0.82395852 
   60900   -1268.8406    152.76815   -1116.0724    2368.4686    130920.22    10.472245   0.88471892 
   61000   -1262.6024    143.38958   -1119.2129    2223.0663    133231.17    10.472245   0.79641502 
   61100   -1272.8706    140.65849   -1132.2121    2180.7243     125649.1    10.472245   0.79046324 
   61200   -1266.3286    148.64982   -1117.6788    2304.6194    130876.62    10.472245   0.81831644 
   61300   -1277.0147    149.41697   -1127.5977     2316.513    124908.62    10.472245   0.79886784 
   61400   -1280.9379    150.28342   -1130.6545    2329.9462     121725.4    10.472245   0.76391168 
   61500   -1269.3607    152.62963    -1116.731    2366.3211    130310.88    10.472245   0.82717193 
   61600   -1274.7717    149.09703   -1125.6746    2311.5527    125680.52    10.472245    0.7740562 
   61700   -1279.7244    150.50531   -1129.2191    2333.3862    122285.55    10.472245   0.76760265 
   61800   -1268.2174    148.24523   -1119.9722    2298.3467    128878.98    10.472245   0.81629344 
   61900   -1263.9262     154.5535   -1109.3727     2396.148    133516.43    10.472245   0.84731617 
   62000   -1263.9855    141.28335   -1122.7021     2190.412    131499.35    10.472245   0.83712403 
   62100   -1267.5273    138.62393   -1128.9034    2149.1811    128508.15    10.472245   0.88888066 
   62200   -1258.5501    147.86196   -1110.6881    2292.4046     136257.5    10.472245   0.88141343 
   62300   -1261.0236    143.02097   -1118.0026    2217.3515     132562.6    10.472245   0.85092806 
   62400   -1272.0213    142.26734    -1129.754    2205.6674    126117.98    10.472245   0.83609481 
   62500   -1271.2207     149.5893   -1121.6314    2319.1848    128147.07    10.472245   0.80433944 
   62600   -1264.2032      156.678   -1107.5252    2429.0857     134072.7    10.472245   0.78027469 
   62700   -1275.2283    148.38465   -1126.8436    2300.5083    124140.13    10.472245   0.81198415 
   62800   -1261.2091    141.04348   -1120.1657    2186.6931    132417.84    10.472245   0.82846551 
   62900   -1261.7521    146.90746   -1114.8446    2277.6064    133918.32    10.472245   0.86474163 
   63000    -1269.038    145.04906   -1123.9889    2248.7943    130772.23    10.472245   0.84640408 
   63100   -1270.6973    146.74594   -1123.9513    2275.1023    128057.35    10.472245   0.81613623 
   63200    -1273.144    151.30493   -1121.8391    2345.7833    128336.74    10.472245   0.79720359 
   63300   -1281.5632    149.62455   -1131.9386    2319.7313    122111.56    10.472245    0.7697632 
   63400   -1274.1769    145.18478   -1128.9922    2250.8985    125118.01    10.472245   0.77331148 
   63500   -1263.5863    146.63006   -1116.9563    2273.3056    132899.71    10.472245   0.81549695 
   63600   -1275.8529    149.10904   -1126.7438    2311.7389    124208.71    10.472245   0.84715794 
   63700   -1290.4921    144.84206   -1145.6501     2245.585    113730.83    10.472245   0.75949717 
   63800   -1266.8526    135.69411   -1131.1584    2103.7581    129141.44    10.472245   0.81826324 
   63900   -1263.8803    150.42609   -1113.4542    2332.1581    133422.74    10.472245   0.83899875 
   64000   -1270.7356    145.10194   -1125.6337    2249.6141    127655.81    10.472245   0.82154799 
   64100   -1273.9234    145.51411   -1128.4093    2256.0043    126102.41    10.472245   0.78888193 
   64200   -1260.7127    150.68895   -1110.0237    2336.2333    135875.44    10.472245   0.83086885 
   64300   -1273.7466    149.25171   -1124.4949    2313.9508    126472.31    10.472245    0.8444199 
   64400   -1268.0967     141.6161   -1126.4807    2195.5708    129390.66    10.472245    0.8123506 
   64500   -1267.1404    150.16376   -1116.9767     2328.091    130614.29    10.472245   0.81195897 
   64600   -1272.0929    147.58613   -1124.5068    2288.1282    127641.14    10.472245   0.80600664 
   64700   -1278.1068    142.69082    -1135.416    2212.2329    122649.33    10.472245   0.77027919 
   64800   -1260.9072    146.04798   -1114.8592    2264.2813    135611.23    10.472245   0.87247996 
   64900    -1269.967    147.63358   -1122.3334    2288.8639     129070.1    10.472245   0.78342638 
   65000   -1279.9706    152.30609   -1127.6645    2361.3049    121571.31    10.472245    0.7833436 
   65100   -1268.9022    148.48337   -1120.4188    2302.0388    129796.36    10.472245   0.78724257 
   65200   -1264.5526    161.71062    -1102.842    2507.1098    134532.06    10.472245    0.8393894 
   65300   -1269.0751    144.40509     -1124.67    2238.8104    129676.62    10.472245   0.80961786 
   65400   -1266.6395    143.70392   -1122.9356    2227.9397    129468.61    10.472245   0.82782735 
   65500   -1270.9654     162.5328   -1108.4326    2519.8567    129871.69    10.472245   0.88340637 
   65600   -1275.4982    146.52806   -1128.9701    2271.7242    124962.21    10.472245   0.79340337 
   65700   -1275.1516    142.99874   -1132.1529    2217.0068    126211.07    10.472245   0.83675671 
   65800   -1268.7256    154.39208   -1114.3336    2393.6455    130822.22    10.472245   0.82370066 
   65900   -1266.8208    144.18212   -1122.6386    2235.3536    130245.83    10.472245   0.87663191 
   66000   -1281.4142     140.5254   -1140.8888     2178.661    120044.35    10.472245   0.78691486 
   66100   -1271.8741    148.54124   -1123.3329    2302.9359    126943.44    10.472245   0.83973315 
   66200   -1273.3398     155.7166   -1117.6232    2414.1804    128498.81    10.472245   0.82275483 
   66300   -1275.2069    147.12594    -1128.081    2280.9937    124628.54    10.472245   0.76408237 
   66400   -1281.2041    144.34813    -1136.856    2237.9273    121308.09    10.472245   0.79578322 
   66500    -1270.019    150.68004   -1119.3389    2336.0952    129708.78    10.472245   0.79481171 
   66600    -1273.014    147.41149   -1125.6025    2285.4206    125153.21    10.472245   0.81128663 
   66700   -1275.0852    138.13207   -1136.9532    2141.5555    122972.39    10.472245   0.85811726 
   66800   -1275.9432    157.01074   -1118.9325    2434.2443    125573.82    10.472245   0.78509829 
   66900   -1266.5477    142.33916   -1124.2085    2206.7809    131778.47    10.472245   0.85627569 
   67000   -1266.7435    158.34445   -1108.3991    2454.9218    132967.06    10.472245   0.81800196 
   67100   -1282.6018    153.56314   -1129.0386    2380.7938    121538.15    10.472245   0.77387868 
   67200     -1278.46    151.99923   -1126.4608    2356.5475    123232.58    10.472245   0.78460771 
   67300   -1263.1256    155.09214   -1108.0335    2404.4991    133643.53    10.472245    0.8168693 
   67400   -1275.5314    144.45848   -1131.0729    2239.6381    124189.39    10.472245   0.80708006 
   67500   -1280.5287    158.08507   -1122.4437    2450.9004    123899.26    10.472245   0.81592876 
   67600   -1263.1209    148.51249   -1114.6084    2302.4902    133716.66    10.472245   0.87834174 
   67700   -1271.1099    154.32337   -1116.7865    2392.5803    126961.62    10.472245   0.80898958 
   67800   -1271.1947    138.81721   -1132.3775    2152.1777    126611.29    10.472245   0.81817504 
   67900   -1266.1485    148.55577   -1117.5928    2303.1612    132142.47    10.472245   0.81706883 
   68000   -1266.8981    148.93474   -1117.9633    2309.0367    131580.55    10.472245   0.81267665 
   68100   -1262.9157    141.26885   -1121.6468    2190.1871    132671.57    10.472245   0.82392541 
   68200   -1280.4083    147.11959   -1133.2887    2280.8952    122494.79    10.472245   0.73171822 
   68300   -1271.5703    144.39545   -1127.1748     2238.661    127808.03    10.472245   0.79189848 
   68400   -1271.4633    157.35855   -1114.1048    2439.6367    128859.81    10.472245   0.77575885 
   68500     -1267.91    140.72597    -1127.184    2181.7706    129065.07    10.472245   0.77307495 
   68600    -1274.223    148.90675   -1125.3162    2308.6027    126610.12    10.472245   0.77749055 
   68700   -1269.3506     152.2544   -1117.0962    2360.5036    130131.02    10.472245   0.77130195 
   68800   -1262.9848     148.7221   -1114.2627    2305.7399    133504.88    10.472245   0.86744754 
   68900   -1271.4014    139.31892   -1132.0824     2159.956    127318.78    10.472245   0.81549603 
   69000   -1274.1119    150.67391    -1123.438    2336.0002       126701    10.472245   0.77035507 
   69100    -1264.957      151.192    -1113.765    2344.0326    134289.03    10.472245   0.77140866 
   69200   -1272.3445    153.80923   -1118.5353    2384.6092    127041.87    10.472245   0.84875195 
   69300   -1276.0713    146.04768   -1130.0236    2264.2766       125577    10.472245   0.77448194 
   69400   -1267.6223    153.13474   -1114.4876    2374.1521    130060.93    10.472245   0.83579494 
   69500   -1264.8263    144.25677   -1120.5695    2236.5109    130932.67    10.472245   0.81321309 
   69600    -1276.384    147.12036   -1129.2637    2280.9071    125124.22    10.472245   0.79370165 
   69700   -1283.1385    146.19245   -1136.9461     2266.521    119303.91    10.472245   0.76968451 
   69800   -1271.2399    152.38526   -1118.8546    2362.5325    127841.83    10.472245   0.81614683 
   69900   -1274.4761    151.87961   -1122.5965    2354.6929     126710.5    10.472245   0.78976469 
   70000   -1279.8855    146.02037   -1133.8652    2263.8531    122595.32    10.472245    0.8243958 
   70100   -1269.9194    146.57813   -1123.3413    2272.5006    128237.88    10.472245   0.83374455 
   70200   -1262.4588    152.77678    -1109.682    2368.6025    135144.64    10.472245   0.84725656 
   70300   -1255.7004    144.96239    -1110.738    2247.4507    138166.22    10.472245   0.85449837 
   70400   -1271.5048     150.3246   -1121.1802    2330.5845    129270.89    10.472245   0.79597108 
   70500    -1277.329    146.45221   -1130.8768    2270.5482     122900.2    10.472245   0.79589503 
   70600   -1277.5889    146.16586   -1131.4231    2266.1089    122403.78    10.472245   0.80186028 
   70700   -1269.4385    152.30779   -1117.1308    2361.3314    128894.54    10.472245   0.80210203 
   70800   -1273.5912    143.72386   -1129.8673    2228.2488    125526.13    10.472245   0.80345637 
   70900   -1269.9427    154.50403   -1115.4387    2395.3812    130181.89    10.472245   0.80493518 
   71000   -1264.6963     145.4157   -1119.2806    2254.4787    132612.76    10.472245   0.82028048 
   71100   -1278.4262    147.09891   -1131.3273    2280.5745    124076.22    10.472245   0.81852455 
   71200   -1257.1506    148.21549   -1108.9352    2297.8856    136392.26    10.472245   0.83305616 
   71300   -1268.8919    147.23024   -1121.6617    2282.6106    129236.78    10.472245   0.82347739 
   71400   -1266.7837    141.78817   -1124.9956    2198.2385    130810.94    10.472245   0.75584958 
   71500   -1272.9057    150.08037   -1122.8254    2326.7981     127636.9    10.472245   0.79472243 
   71600   -1277.3901    146.76091   -1130.6292    2275.3344     122910.7    10.472245   0.81479269 
   71700   -1266.7809    145.34519   -1121.4357    2253.3854    130928.02    10.472245   0.85446904 
   71800   -1269.6229    158.26281   -1111.3601     2453.656    129677.19    10.472245   0.86698519 
   71900    -1280.831    151.26612   -1129.5649    2345.1817    121637.48    10.472245   0.81275593 
   72000   -1271.1351    141.83957   -1129.2955    2199.0355    126879.26    10.472245   0.80859328 
   72100   -1271.4667    154.50626   -1116.9604    2395.4157    129474.21    10.472245   0.82465434 
   72200   -1268.5833    161.77083   -1106.8125    2508.0434     131436.5    10.472245   0.80490483 
   72300   -1278.2573    147.36619   -1130.8911    2284.7183    122515.06    10.472245   0.75336518 
   72400    -1271.532     146.0764   -1125.4556    2264.7219    127013.99    10.472245   0.79796745 
   72500   -1265.5708    153.09113   -1112.4797    2373.4761    131702.21    10.472245   0.82541143 
   72600   -1280.0598    145.97724   -1134.0826    2263.1845    120693.07    10.472245   0.80045318 
   72700   -1267.7459    149.22651   -1118.5194    2313.5602    130059.09    10.472245   0.87645518 
   72800   -1261.9653    142.17281   -1119.7925    2204.2018     133408.3    10.472245   0.85079475 
   72900     -1280.94    144.19344   -1136.7466     2235.529    121238.37    10.472245   0.77678528 
   73000   -1278.5757    150.97766    -1127.598    2340.7095    123481.69    10.472245   0.77637257 
   73100    -1268.879    149.35443   -1119.5245    2315.5434     129503.8    10.472245   0.74469971 
   73200    -1274.737    139.72362   -1135.0134    2166.2305    124804.22    10.472245   0.78460926 
   73300   -1272.2057    150.85484   -1121.3509    2338.8053    127477.71    10.472245   0.79369806 
   73400   -1272.3651    153.62655   -1118.7386    2381.7771    127108.35    10.472245    0.7688317 
   73500   -1280.9031    147.46658   -1133.4365    2286.2747    121076.34    10.472245   0.76923388 
   73600    -1274.788    155.09183   -1119.6962    2404.4942    126439.17    10.472245     0.802415 
   73700   -1269.1336    158.20819   -1110.9255    2452.8092    129820.78    10.472245   0.74671629 
   73800   -1268.4598    140.28431   -1128.1755    2174.9231    129246.59    10.472245   0.83728688 
   73900    -1267.604    148.43534   -1119.1686    2301.2942    129063.03    10.472245   0.79827357 
   74000    -1266.074    148.39169   -1117.6823    2300.6174    130664.23    10.472245   0.85520433 
   74100   -1271.2754    139.41048   -1131.8649    2161.3755    125979.88    10.472245   0.78255381 
   74200   -1264.9549    147.03876   -1117.9161     2279.642    131695.45    10.472245   0.82038896 
   74300   -1275.5607    147.35987   -1128.2008    2284.6204     125022.4    10.472245   0.78940094 
   74400    -1278.809    148.52101    -1130.288    2302.6223    122589.13    10.472245   0.80930757 
   74500   -1267.5004    151.20578   -1116.2946    2344.2462    131861.01    10.472245   0.83280645 
   74600   -1271.0026    152.76242   -1118.2401    2368.3798    128906.15    10.472245   0.79727211 
   74700   -1280.5214    142.88231   -1137.6391    2215.2016     121202.5    10.472245   0.80132628 
   74800   -1273.3211    146.87511    -1126.446    2277.1048    126179.79    10.472245   0.81807853 
   74900   -1272.5222    152.47247   -1120.0498    2363.8844    126570.23    10.472245   0.77660767 
   75000   -1286.4456    144.81685   -1141.6288    2245.1942    117954.25    10.472245   0.78527087 
   75100   -1274.6883    141.57878   -1133.1096    2194.9921    124341.98    10.472245   0.79624461 
   75200   -1277.9942    159.57302   -1118.4212    2473.9691    124646.09    10.472245   0.79263935 
   75300   -1272.1754    143.76339    -1128.412    2228.8617    126299.98    10.472245   0.82033699 
   75400   -1280.6526    146.91698   -1133.7356     2277.754    121906.21    10.472245   0.80750719 
   75500    -1275.591     153.7834   -1121.8076    2384.2088    124848.38    10.472245   0.79242152 
   75600   -1277.4308    151.97862   -1125.4521     2356.228     124193.2    10.472245   0.79876729 
   75700   -1268.9042    140.37818    -1128.526    2176.3785    127033.55    10.472245   0.82441774 
   75800   -1271.2701    143.09673   -1128.1734    2218.5259    127043.19    10.472245   0.80162145 
   75900   -1265.9893    152.67998   -1113.3094    2367.1016    132343.87    10.472245   0.85651977 
   76000    -1273.097    142.49098    -1130.606    2209.1347    125955.22    10.472245   0.80092581 
   76100   -1273.5889    144.71517   -1128.8738    2243.6179    125620.76    10.472245   0.79016627 
   76200   -1266.6472    152.58442   -1114.0628    2365.6202    131938.06    10.472245   0.83078123 
   76300   -1269.2889     144.5502   -1124.7387    2241.0601    128603.71    10.472245    0.7947321 
   76400   -1274.7447    147.88613   -1126.8586    2292.7794     126325.7    10.472245   0.79388772 
   76500   -1263.0343    152.56426   -1110.4701    2365.3076    133337.28    10.472245   0.85345829 
   76600   -1267.8975    149.67436   -1118.2231    2320.5034    130292.98    10.472245   0.81072769 
   76700   -1271.6249    145.37467   -1126.2502    2253.8424    128011.04    10.472245    0.8004414 
   76800   -1265.6731    150.27183   -1115.4013    2329.7664     131922.1    10.472245   0.83112425 
   76900   -1265.9536    147.72952   -1118.2241    2290.3513    131782.48    10.472245   0.82625433 
   77000   -1278.7535    150.83008   -1127.9234    2338.4214    124297.34    10.472245   0.75585498 
   77100   -1271.5183    143.89259   -1127.6257    2230.8647    128377.74    10.472245   0.80741461 
   77200   -1268.0779    156.36179   -1111.7161    2424.1833    131958.58    10.472245   0.83621759 
[...]
   81400   -1274.4552    162.08261   -1112.3726    2512.8771    126236.77    10.472245   0.77358429 
   81500   -1278.3509    144.88343   -1133.4674    2246.2265    123663.23    10.472245   0.75455817 
   81600   -1265.8569    146.83135   -1119.0256    2276.4263    131760.36    10.472245    0.7954221 
   81700   -1264.9515    146.95753    -1117.994    2278.3827    131998.67    10.472245   0.84483248 
   81800   -1271.3931     144.1339   -1127.2592     2234.606    126906.47    10.472245   0.81369577 
   81900   -1274.9555    149.94697   -1125.0086    2324.7299    125686.44    10.472245   0.76667986 
   82000   -1263.9798    147.71248   -1116.2673    2290.0871    133442.87    10.472245   0.83362041 
   82100   -1265.6663    155.76159   -1109.9047     2414.878    132568.95    10.472245   0.87429767 
   82200   -1276.4332    145.93044   -1130.5028     2262.459     124526.8    10.472245   0.79011894 
   82300   -1268.9236     149.4285   -1119.4951    2316.6918    128909.46    10.472245   0.80176974 
   82400   -1263.4048    150.19063   -1113.2142    2328.5076     133106.1    10.472245   0.86431411 
   82500   -1279.3266    140.06743   -1139.2591    2171.5608    121064.11    10.472245   0.77820001 
   82600   -1275.9163    142.42116   -1133.4951    2208.0522    125033.18    10.472245    0.8316628 
   82700   -1280.9782    162.28197   -1118.6962    2515.9679    122603.61    10.472245   0.76872764 
   82800   -1269.2184    139.64199   -1129.5764    2164.9649    127917.58    10.472245   0.78762094 
   82900   -1275.7191    138.54814    -1137.171    2148.0062    123816.82    10.472245   0.80852829 
   83000    -1270.468    153.92996   -1116.5381    2386.4809    129832.03    10.472245   0.81249147 
   83100   -1271.8204    150.00689   -1121.8136    2325.6589    127973.21    10.472245   0.84420753 
   83200   -1279.1957    140.91773    -1138.278    2184.7434    121647.05    10.472245   0.76994274 
   83300   -1274.8939     148.2914   -1126.6025    2299.0626    126476.34    10.472245   0.78810214 
   83400   -1274.5284    159.12536    -1115.403    2467.0288     127392.5    10.472245   0.82577064 
   83500   -1256.4633     152.6993    -1103.764    2367.4012    137612.19    10.472245   0.88493682 
   83600    -1266.933    143.10851   -1123.8245    2218.7086    130018.58    10.472245   0.82990041 
   83700   -1273.0068     147.4157   -1125.5911    2285.4859     127404.9    10.472245   0.89931739 
   83800   -1263.2601    148.25365   -1115.0065    2298.4772    132241.51    10.472245   0.80679598 
   83900    -1282.272    142.53884   -1139.7332    2209.8766    119516.81    10.472245   0.77180645 
   84000   -1271.6337    145.34086   -1126.2928    2253.3183    127860.84    10.472245   0.72940976 
   84100   -1265.7793    148.97256   -1116.8068     2309.623    130962.05    10.472245   0.85276681 
   84200   -1264.6346    157.04887   -1107.5857    2434.8355    132589.32    10.472245   0.86299459 
   84300   -1277.6873    151.67794   -1126.0093    2351.5664    123188.58    10.472245    0.7333708 
   84400    -1269.016    142.07239   -1126.9437    2202.6449     127368.1    10.472245   0.86159629 
   84500   -1261.5893    146.25431    -1115.335    2267.4801    133852.89    10.472245    0.8374509 
   84600   -1269.4105    142.08904   -1127.3215    2202.9031    128335.34    10.472245    0.7964555 
   84700   -1272.8513     139.4933    -1133.358    2162.6597     125203.2    10.472245    0.7736402 
   84800   -1264.6012    152.20755   -1112.3936    2359.7773    133320.51    10.472245   0.85631074 
   84900   -1274.3644    152.99766   -1121.3668    2372.0269    127780.54    10.472245     0.771254 
   85000    -1277.277     144.8284   -1132.4486    2245.3733    124493.91    10.472245   0.85079413 
   85100   -1264.3318     154.5559   -1109.7759    2396.1853    133687.16    10.472245   0.82533911 
   85200   -1269.3391    148.52542   -1120.8136    2302.6907    128950.17    10.472245   0.84239825 
   85300   -1283.4233    149.14037    -1134.283    2312.2246    119105.06    10.472245   0.82264068 
   85400   -1263.3663    147.95399   -1115.4123    2293.8314    132237.58    10.472245   0.84901975 
   85500   -1271.5338    151.56146   -1119.9724    2349.7605    129144.67    10.472245   0.79565263 
   85600   -1280.0245    149.03738   -1130.9871    2310.6279    121665.98    10.472245   0.78198884 
   85700   -1279.3787    159.46722   -1119.9115    2472.3289    123418.43    10.472245   0.80377025 
   85800   -1259.7335      163.942   -1095.7915    2541.7045    138255.35    10.472245   0.80502931 
   85900   -1266.9845    149.76058   -1117.2239    2321.8402    130554.69    10.472245   0.85627844 
   86000    -1267.593     143.4063   -1124.1867    2223.3254    129291.55    10.472245   0.83693757 
   86100   -1275.5428    141.94572    -1133.597    2200.6812    124448.63    10.472245   0.78828687 
   86200   -1266.7288    149.46491   -1117.2639    2317.2562    131114.23    10.472245   0.85447346 
   86300   -1263.7741    143.66237   -1120.1117    2227.2955    132176.57    10.472245   0.81457194 
   86400   -1271.1329    139.72982   -1131.4031    2166.3265    127172.64    10.472245   0.82203019 
   86500   -1274.4611    145.35746   -1129.1036    2253.5756     126619.4    10.472245   0.93954527 
   86600   -1270.2615    150.21079   -1120.0507    2328.8201     128683.2    10.472245   0.87742752 
   86700   -1274.6101     140.5918   -1134.0183    2179.6904    124902.62    10.472245   0.88299664 
   86800   -1280.4438     140.4705   -1139.9733    2177.8097    121389.58    10.472245   0.87993048 
   86900   -1270.0537     151.3421   -1118.7116    2346.3595    127503.65    10.472245   0.99383189 
   87000   -1278.0721    159.24186   -1118.8303    2468.8349    125686.92    10.472245   0.89701448 
   87100   -1277.7257    146.53722   -1131.1884    2271.8663     122645.5    10.472245    0.9281759 
   87200   -1270.0382    146.81118    -1123.227    2276.1137    127694.71    10.472245   0.90881986 
   87300   -1277.0795    150.78423   -1126.2952    2337.7106    124160.37    10.472245   0.89759266 
   87400   -1280.5662    136.73251   -1143.8336    2119.8571    119678.43    10.472245   0.87312301 
   87500   -1272.2701    146.20272   -1126.0674    2266.6802    128416.59    10.472245   0.85959457 
   87600   -1266.2398    140.01046   -1126.2293    2170.6774    129221.21    10.472245   0.91831989 
   87700   -1279.6652     145.2352     -1134.43    2251.6801    121703.11    10.472245   0.89116192 
   87800   -1272.6993    154.62364   -1118.0756    2397.2356    127083.27    10.472245   0.87930577 
   87900   -1278.5006    147.50398   -1130.9966    2286.8546    121115.65    10.472245   0.90446228 
   88000   -1280.1761    151.81459   -1128.3615    2353.6849    121125.92    10.472245   0.85109564 
   88100   -1265.0306    151.99967    -1113.031    2356.5544    131794.42    10.472245   0.89296682 
   88200   -1278.2579    147.76862   -1130.4893    2290.9575    122968.41    10.472245   0.87459292 
   88300   -1271.2445    146.51788   -1124.7266    2271.5664    126869.85    10.472245   0.91119184 
   88400    -1267.804    154.24551   -1113.5585    2391.3732    132141.99    10.472245    1.0217395 
   88500   -1273.8616    153.35505   -1120.5066    2377.5677    126686.86    10.472245   0.90813745 
   88600   -1281.0089    144.62923   -1136.3797    2242.2854    121206.43    10.472245   0.87434764 
   88700    -1273.402    148.71071   -1124.6912    2305.5634    125933.53    10.472245   0.93535205 
   88800   -1268.3529    150.41415   -1117.9388    2331.9729    129577.73    10.472245   0.87500571 
   88900   -1275.2886    143.11478   -1132.1739    2218.8059    123906.78    10.472245   0.94140343 
   89000   -1279.6588    158.78465   -1120.8741    2461.7466    123108.85    10.472245   0.85649312 
   89100   -1268.0513    146.33844   -1121.7129    2268.7845     130069.8    10.472245   0.96849039 
   89200   -1271.1244    149.80453   -1121.3199    2322.5216    128527.02    10.472245   0.95318932 
   89300    -1275.678    147.79091    -1127.887    2291.3032    124896.82    10.472245   0.89449547 
   89400   -1272.8433    145.23586   -1127.6074    2251.6905    127017.58    10.472245   0.89020487 
   89500   -1265.7606    148.00488   -1117.7558    2294.6205    130828.41    10.472245   0.91792221 
   89600   -1283.6358    148.20478    -1135.431    2297.7196    119359.21    10.472245   0.87757083 
   89700   -1271.3911    149.13684   -1122.2542      2312.17    127902.54    10.472245   0.90061191 
   89800   -1267.4444    147.09935    -1120.345    2280.5814    130822.86    10.472245    0.9617582 
   89900   -1282.3387      156.398   -1125.9407    2424.7447    121767.84    10.472245   0.89234488 
   90000   -1268.6451     147.2218   -1121.4233    2282.4799    128442.25    10.472245   0.91538443 
   90100   -1262.0545     149.1026   -1112.9519     2311.639    134836.92    10.472245   0.96090527 
   90200   -1269.8756     144.1442   -1125.7314    2234.7657    129460.27    10.472245   0.97676004 
   90300   -1276.8335    150.61434   -1126.2192    2335.0766    124618.32    10.472245   0.95933891 
   90400   -1263.0198     154.7578    -1108.262    2399.3156     134959.9    10.472245    1.0318902 
   90500   -1269.2398    147.36462   -1121.8751    2284.6941    129843.92    10.472245    1.0459727 
   90600    -1275.864    146.20986   -1129.6541     2266.791    124684.02    10.472245    1.0204494 
   90700   -1263.2539    150.18977   -1113.0641    2328.4942    133635.03    10.472245    1.0532631 
   90800   -1263.1733     144.9811   -1118.1922    2247.7407    133995.48    10.472245    1.1839641 
   90900   -1278.1312    148.36276   -1129.7684    2300.1689    123208.06    10.472245    1.1278226 
   91000   -1265.5473    148.68745   -1116.8598    2305.2028    131851.64    10.472245    1.0658633 
   91100    -1262.229     147.7907   -1114.4383    2291.2999    133415.85    10.472245     1.144872 
   91200   -1275.7307    147.02928   -1128.7014    2279.4949    125509.54    10.472245    1.1462881 
   91300   -1265.5354    149.73362   -1115.8018    2321.4222    132577.89    10.472245    1.1807609 
   91400   -1275.9886    161.64266   -1114.3459    2506.0562    127015.05    10.472245    1.1152963 
   91500   -1278.0874    152.37268   -1125.7148    2362.3374    125073.27    10.472245    1.1986784 
   91600   -1259.4369    156.26017   -1103.1767    2422.6078    136730.04    10.472245    1.2786488 
   91700   -1270.7365    155.17505   -1115.5615    2405.7844    128974.02    10.472245    1.2652515 
   91800   -1266.7084    144.50831   -1122.2001    2240.4108     131128.6    10.472245    1.4014695 
   91900   -1253.8801     148.1208   -1105.7593    2296.4176    139005.62    10.472245    1.3383776 
   92000   -1266.1749    136.94565   -1129.2293    2123.1617    129158.57    10.472245    1.4260398 
   92100     -1265.88    151.19766   -1114.6823    2344.1202    130909.64    10.472245    1.3221053 
   92200   -1265.4462    152.28103   -1113.1652    2360.9165    132399.72    10.472245    1.3800365 
   92300   -1271.5884     143.2673   -1128.3211    2221.1705     126849.9    10.472245     1.422131 
   92400    -1265.277    154.68789   -1110.5891    2398.2317    133101.41    10.472245    1.4595068 
   92500   -1262.0134    144.70978   -1117.3036    2243.5342     133405.3    10.472245    1.4305231 
   92600   -1278.3247    154.91378   -1123.4109    2401.7337    125018.23    10.472245    1.5244943 
   92700   -1263.9867    157.43834   -1106.5484    2440.8737    134967.71    10.472245     1.520708 
   92800   -1269.5859    147.43461   -1122.1513    2285.7792       127210    10.472245    1.4968851 
   92900   -1271.5768    148.16698   -1123.4098    2297.1335    127643.76    10.472245    1.4928604 
   93000   -1270.8474    140.15617   -1130.6912    2172.9365    126476.91    10.472245    1.4932764 
   93100   -1262.5982    150.43674   -1112.1614    2332.3232    134036.41    10.472245    1.5757946 
   93200   -1263.3224    142.80618   -1120.5162    2214.0214    132343.52    10.472245    1.5946878 
   93300    -1274.264    148.66136   -1125.6026    2304.7983    126651.78    10.472245    1.5795726 
   93400   -1252.9203    137.31043   -1115.6099     2128.817    138848.15    10.472245    1.6155105 
   93500   -1253.0937    147.98624   -1105.1075    2294.3315    139353.15    10.472245    1.6643449 
   93600   -1271.4848    147.76937   -1123.7154    2290.9692    128389.88    10.472245    1.9010456 
   93700   -1269.2146    155.51336   -1113.7012    2411.0295    130590.93    10.472245    1.7795734 
   93800   -1270.8742     145.7798   -1125.0944    2260.1235    127356.51    10.472245    1.7964476 
   93900   -1280.9451    150.45664   -1130.4885    2332.6316     121474.1    10.472245     1.778008 
   94000   -1262.0295     148.1653   -1113.8642    2297.1075    133861.35    10.472245    1.8686365 
   94100   -1264.1769    142.68193   -1121.4949    2212.0951    131233.63    10.472245    1.8770273 
   94200   -1276.5531    156.86075   -1119.6923     2431.919     125921.4    10.472245    1.8102335 
   94300   -1277.4151    139.46744   -1137.9476    2162.2587     121885.4    10.472245    1.8099309 
   94400   -1272.6508    150.61147   -1122.0393    2335.0322    126788.83    10.472245    1.7038845 
   94500   -1274.5272    147.61649   -1126.9107    2288.5989    125772.38    10.472245    1.7556901 
   94600   -1281.5422    139.03733   -1142.5048    2155.5904    120290.72    10.472245    1.7517171 
   94700   -1276.0204     154.9707   -1121.0497    2402.6162    126537.36    10.472245    1.8475246 
   94800   -1264.9861    140.07762   -1124.9085    2171.7187    130781.54    10.472245    1.8153114 
   94900   -1267.0713    144.61559   -1122.4557    2242.0739     129779.1    10.472245    1.8801158 
   95000   -1273.8303    156.57453   -1117.2558    2427.4815    126902.49    10.472245    1.7749567 
   95100   -1275.0832    142.64079   -1132.4424    2211.4573    123715.24    10.472245    1.8547051 
   95200   -1268.3716    155.21791   -1113.1537    2406.4489    130054.82    10.472245    1.7381567 
   95300   -1272.4592    150.05164   -1122.4076    2326.3527    126234.62    10.472245    1.7818104 
   95400   -1280.7066    148.15656     -1132.55    2296.9721    120195.68    10.472245     1.796903 
   95500   -1266.9856    145.99081   -1120.9948    2263.3949    130439.71    10.472245    1.8594134 
   95600   -1266.8569    147.47954   -1119.3773    2286.4757    130386.31    10.472245    1.7959642 
   95700   -1280.6289    145.94166   -1134.6873    2262.6329    121864.21    10.472245     1.817074 
   95800   -1269.7113    152.35444   -1117.3568    2362.0545    130001.14    10.472245    1.7966706 
   95900    -1271.575    150.47227   -1121.1027     2332.874     127501.6    10.472245    1.8104818 
   96000   -1276.5143    152.25091   -1124.2634    2360.4495    124531.41    10.472245    1.7299599 
   96100   -1275.3911    140.25584   -1135.1353    2174.4817    124347.58    10.472245    1.8325322 
   96200   -1274.8022    145.15016    -1129.652    2250.3617    125258.45    10.472245    1.7982476 
   96300   -1259.2889    143.69202   -1115.5969    2227.7552    133997.59    10.472245    1.8961815 
   96400   -1276.5268    152.57098   -1123.9558    2365.4118    125932.25    10.472245    1.8253788 
   96500   -1279.0169    148.93909   -1130.0778    2309.1041    123684.64    10.472245    1.7947263 
   96600   -1269.7616    150.60822   -1119.1534    2334.9818    128774.68    10.472245    1.7845006 
   96700    -1281.339    151.81118   -1129.5278    2353.6321    121681.45    10.472245    1.7844227 
   96800   -1277.3374    146.28957   -1131.0478    2268.0268    124918.44    10.472245    1.8243094 
   96900   -1265.9765    151.55836   -1114.4181    2349.7125     130639.9    10.472245     1.858404 
   97000   -1277.3327    147.58682   -1129.7459    2288.1389    122909.71    10.472245    1.8154526 
   97100   -1273.7902    142.06561   -1131.7246    2202.5399    124289.22    10.472245    1.8340189 
   97200   -1265.9517    146.59827   -1119.3534    2272.8128    130040.84    10.472245    1.8593449 
   97300    -1277.413    145.71649   -1131.6965    2259.1419    122860.36    10.472245    1.8449913 
   97400   -1276.4534    142.52477   -1133.9287    2209.6585    124291.43    10.472245    1.8229678 
   97500   -1271.0792    148.74425    -1122.335    2306.0834    127928.74    10.472245    1.7879473 
   97600   -1268.4788    141.52911   -1126.9497    2194.2222    128248.58    10.472245     1.716801 
   97700   -1277.5183      137.925   -1139.5933    2138.3451    122855.36    10.472245    1.7725437 
   97800   -1269.9017    149.84532   -1120.0564     2323.154    130086.92    10.472245    1.7777263 
   97900   -1269.2118    142.19073    -1127.021    2204.4797    128190.63    10.472245    1.8230821 
   98000   -1274.7132    139.29579   -1135.4174    2159.5975       124241    10.472245    1.7954324 
   98100    -1265.615    147.39309   -1118.2219    2285.1353    131317.78    10.472245    1.8300228 
   98200   -1269.9936    144.62414   -1125.3694    2242.2065    128920.87    10.472245    1.7848244 
   98300   -1285.7893    142.15051   -1143.6388    2203.8561    117980.73    10.472245    1.8680676 
   98400   -1270.6702    140.61287   -1130.0573     2180.017    126983.34    10.472245    1.7078693 
   98500   -1270.4175    153.85598   -1116.5616     2385.334     130060.6    10.472245    1.9080036 
   98600    -1266.429    143.99228   -1122.4368    2232.4104    130887.58    10.472245     1.841705 
   98700   -1277.4111    143.89934   -1133.5118    2230.9695    123480.47    10.472245    1.8363515 
   98800   -1273.8292    151.29212    -1122.537    2345.5847    126664.97    10.472245    1.8170616 
   98900   -1277.5934    155.00526   -1122.5882     2403.152    124652.55    10.472245    1.7998472 
   99000   -1280.3079     148.8245   -1131.4834    2307.3275    122030.23    10.472245    1.8144368 
   99100   -1280.1925    142.08783   -1138.1047    2202.8843    120339.64    10.472245    1.7442324 
   99200    -1271.964    151.05358   -1120.9104    2341.8864     127356.7    10.472245    1.8664272 
   99300   -1277.1385    156.01117   -1121.1274    2418.7474    124320.66    10.472245    1.8240594 
   99400   -1278.9695    141.40109   -1137.5685    2192.2374    121372.83    10.472245    1.7832141 
   99500   -1266.9015    148.26178   -1118.6397    2298.6032    129995.82    10.472245    1.8465152 
   99600   -1263.9023    142.38879   -1121.5135    2207.5503    131288.16    10.472245    1.9160898 
   99700   -1267.2552    143.23755   -1124.0176    2220.7093    130415.56    10.472245    1.7827455 
   99800     -1267.04    152.12794   -1114.9121     2358.543    130040.82    10.472245    1.8230034 
   99900   -1260.5426    150.60478   -1109.9378    2334.9284    135154.31    10.472245    1.9130713 
  100000   -1276.7645    146.78973   -1129.9747    2275.7812    123656.12    10.472245     1.785021 
Loop time of 155.183 on 1 procs for 100000 steps with 500 atoms

Performance: 278.381 ns/day, 0.086 hours/ns, 644.400 timesteps/s
100.0% CPU use with 1 MPI tasks x no OpenMP threads

MPI task timing breakdown:
Section |  min time  |  avg time  |  max time  |%varavg| %total
---------------------------------------------------------------
Pair    | 92.159     | 92.159     | 92.159     |   0.0 | 59.39
Neigh   | 8.2019     | 8.2019     | 8.2019     |   0.0 |  5.29
Comm    | 1.4438     | 1.4438     | 1.4438     |   0.0 |  0.93
Output  | 0.04163    | 0.04163    | 0.04163    |   0.0 |  0.03
Modify  | 52.985     | 52.985     | 52.985     |   0.0 | 34.14
Other   |            | 0.3522     |            |       |  0.23

Nlocal:    500 ave 500 max 500 min
Histogram: 1 0 0 0 0 0 0 0 0 0
Nghost:    1954 ave 1954 max 1954 min
Histogram: 1 0 0 0 0 0 0 0 0 0
Neighs:    25913 ave 25913 max 25913 min
Histogram: 1 0 0 0 0 0 0 0 0 0

Total # of neighbors = 25913
Ave neighs/atom = 51.826
Neighbor list builds = 7047
Dangerous builds = 35
    
Total wall time: 0:02:35
