LAMMPS (3 Mar 2020)

    # ---------- Initialize simulation ---------------------
    units metal
    atom_style atomic
    dimension  3
    boundary   p p p
    read_data /home/modeler/RemLabs/Lab4/ProblemEC1_v3_size_4/temp_1205/lammps.data
  orthogonal box = (0 0 0) to (16.36 16.36 16.36)
  1 by 1 by 1 MPI processor grid
  reading atoms ...
  256 atoms
  read_data CPU = 0.00117299 secs

    pair_style eam
    pair_coeff * * /usr/share/lammps-stable/potentials/Ag_u3.eam
Reading potential file /usr/share/lammps-stable/potentials/Ag_u3.eam with DATE: 2007-06-11

    velocity  all create 1205 87287 dist gaussian

    # ---------- Describe computed properties------------------
    compute msdall all msd
    thermo_style custom step pe ke etotal temp press density c_msdall[4]
    thermo 100

    # ---------- Specify ensemble  ---------------------
    #fix  1 all nve
    #fix  1 all nvt temp 1205 1205 0.25
    fix 1 all npt temp 1205 1205 0.25 tchain 2 iso 1.0 1.0 1.0 pchain 2

    # --------- Compute RDF ---------------
    compute rdfall all rdf 100 1 1
    fix 2 all ave/time 1 125000 125000 c_rdfall[*] file /home/modeler/RemLabs/Lab4/ProblemEC1_v3_size_4/temp_1205/lammps.rdf mode vector

    # --------- Run -------------
    timestep 0.005
    run 500000
Neighbor list info ...
  update every 1 steps, delay 10 steps, check yes
  max neighbors/atom: 2000, page size: 100000
  master list distance cutoff = 7.55
  ghost atom cutoff = 7.55
  binsize = 3.775, bins = 5 5 5
  2 neighbor lists, perpetual/occasional/extra = 1 1 0
  (1) pair eam, perpetual
      attributes: half, newton on
      pair build: half/bin/atomonly/newton
      stencil: half/bin/3d/newton
      bin: standard
  (2) compute rdf, occasional, copy from (1)
      attributes: half, newton on
      pair build: copy
      stencil: none
      bin: none
Per MPI rank memory allocation (min/avg/max) = 3.744 | 3.744 | 3.744 Mbytes
Step PotEng KinEng TotEng Temp Press Density c_msdall[4] 
       0       -729.6    39.718411   -689.88159         1205    9688.5428    10.472245            0 
     100   -707.57705    21.247497   -686.32955    644.61878   -7088.3431    10.002556  0.065455412 
     200   -703.88783    21.423697   -682.46414    649.96445   -5248.8311    9.9618918  0.087919165 
     300   -703.94254    25.065887   -678.87666     760.4633     4231.836    10.052369   0.08101092 
     400    -702.2861    26.780678   -675.50542    812.48762   -1039.9929    9.9672287  0.090020615 
     500   -699.09688    26.916511   -672.18037    816.60858   -1553.6417    9.9096759   0.10260588 
     600   -697.65901    28.808192   -668.85082    873.99951    528.93173    9.9053171   0.11685353 
     700   -694.90216    29.284068   -665.61809    888.43691    5990.0917    9.9159101    0.1176034 
     800    -693.7008    31.335249   -662.36556    950.66679     1878.833    9.8454014   0.13208354 
     900   -691.95171    32.913059   -659.03865    998.53531   -9130.3725    9.7036244   0.15276501 
    1000   -690.02712    34.246228   -655.78089    1038.9818   -6255.5766    9.6877669   0.14737921 
    1100   -689.79199    37.477966   -652.31403    1137.0281   -2975.9999    9.7070235   0.15598004 
    1200    -685.2899    36.181688   -649.10821    1097.7009    5253.7839    9.7172337    0.1881651 
    1300    -682.4877    36.190684   -646.29702    1097.9738    4455.3656    9.6650005   0.18362715 
    1400   -679.98731    36.551134   -643.43618    1108.9093   -9794.9724    9.4614121   0.22889669 
    1500   -679.70864    39.612624   -640.09602    1201.7906    2676.1401    9.5885535   0.23644124 
    1600   -678.00057    41.195329   -636.80524    1249.8076    7448.9376    9.6234853   0.22377112 
    1700   -678.90476    36.881834   -642.02292    1118.9423   -3366.2899    9.5238921    0.2252817 
    1800    -678.5913    34.980005   -643.61129    1061.2435    6190.1969    9.6150105   0.20198771 
    1900   -677.56164     39.30907   -638.25257    1192.5812    3633.4463     9.565634   0.22145901 
    2000   -681.93749    42.165327   -639.77217     1279.236   -8796.8744    9.4970267   0.21736953 
    2100   -682.99661    37.572059   -645.42455    1139.8827    2046.6671    9.6436301   0.20542994 
    2200   -680.91584    39.748714   -641.16713    1205.9193     2207.777    9.6097947   0.20705008 
    2300   -674.98766    38.021788   -636.96587    1153.5269   -2356.9507     9.437629   0.28297925 
    2400   -676.63856     40.02143   -636.61713    1214.1931   -12581.487    9.3548153   0.27061051 
    2500   -681.85453    38.896224   -642.95831     1180.056   -1535.8196    9.5958409   0.21471553 
    2600    -679.9981    40.495186   -639.50291    1228.5662   -2699.8582    9.5365242   0.23780997 
    2700   -677.82513    41.375156   -636.44997    1255.2633    1691.2855    9.5444833    0.2319836 
    2800   -682.15865    39.231482   -642.92717    1190.2273    4414.5146    9.6561722   0.19673952 
    2900   -680.58771     39.06472   -641.52299     1185.168    5151.2023    9.6456769   0.21732579 
    3000   -674.73347    38.930901   -635.80257    1181.1081   -614.22091    9.4798253   0.24947316 
    3100   -678.75998    37.154911   -641.60506    1127.2271    2355.6497    9.5809782   0.20817974 
    3200   -683.09416    40.575823   -642.51834    1231.0126    935.23908    9.6237104   0.19901092 
    3300   -678.70442    40.100525    -638.6039    1216.5928    5712.8718    9.6075295   0.21981442 
    3400   -683.00717    39.233669    -643.7735    1190.2936   -10010.046    9.5003209   0.22334402 
    3500   -680.99887    38.329451   -642.66942    1162.8609   -2224.2778    9.5489943   0.21857012 
    3600   -678.44218    38.777078    -639.6651    1176.4413    3197.8415    9.5881833   0.25823777 
    3700   -678.25324    40.502408   -637.75083    1228.7854    265.55172    9.5488713   0.23476452 
    3800   -677.06081     40.03931    -637.0215    1214.7356   -2909.1372    9.4828833    0.2461053 
    3900   -679.83598    34.971765   -644.86421    1060.9935   -4259.2957    9.5302439   0.21822467 
    4000   -680.85241    38.367978   -642.48443    1164.0298     1939.391    9.6149613   0.21956522 
    4100   -682.21568    42.578643   -639.63704    1291.7754    2596.5876    9.6403638   0.20461632 
    4200   -681.52257    40.822881   -640.69968    1238.5081   -592.82517    9.5889938    0.2247747 
    4300   -683.97042    37.038893   -646.93153    1123.7072   -2573.8144      9.60804   0.18965742 
    4400   -679.22476    39.146409   -640.07836    1187.6463    1788.0138    9.5726471   0.24697776 
    4500   -678.47299    38.469248   -640.00374    1167.1022   -3764.0405    9.4990876   0.28636811 
    4600   -677.55166    38.508285   -639.04337    1168.2865   -9191.3782    9.4319953   0.25292137 
    4700   -682.92028    37.090445   -645.82984    1125.2712    9073.7469    9.7195206   0.17681978 
    4800   -684.30369    41.100507   -643.20318    1246.9308    2778.3647    9.6677545   0.19224631 
    4900   -677.13575    38.805815   -638.32993    1177.3131   -10149.994    9.4227232   0.28509385 
    5000   -679.32919    39.420019   -639.90917    1195.9472   -5014.3231    9.5140997   0.23469524 
    5100   -684.37254    38.062933   -646.30961    1154.7751    7339.3829    9.7415208   0.18189258 
    5200   -680.20956    39.523557     -640.686    1199.0884   -2170.8004    9.5676604   0.22486962 
    5300   -682.33539    43.600369   -638.73502    1322.7731   -4820.7864    9.5437553   0.22208457 
    5400   -684.34897    39.356395   -644.99257    1194.0169    5019.2586     9.698706   0.18133517 
    5500   -682.43151    38.296231   -644.13528    1161.8531   -8674.1069    9.5164553   0.19924781 
    5600   -679.07086    40.568884   -638.50197    1230.8022    -2074.575    9.5096123   0.23964956 
    5700   -679.93813    39.990097   -639.94803    1213.2426   -3530.1746    9.5401383   0.22385683 
    5800   -681.64087      35.7875   -645.85337    1085.7418   -595.69737    9.6252375   0.23072359 
    5900   -680.11648     40.85901   -639.25747    1239.6041   -3096.3339    9.5341263   0.22351841 
    6000   -680.25349    40.856453   -639.39704    1239.5266    8143.3368    9.6549323   0.21144344 
    6100    -684.9511    39.860159   -645.09094    1209.3004    -61.86903    9.6485701   0.17308655 
    6200   -682.01959    39.527186    -642.4924    1199.1985   -318.34116    9.5997361    0.2037994 
    6300   -680.35374    41.969873   -638.38387    1273.3062   -10018.444    9.4600604   0.21521762 
    6400   -680.27994    39.679482   -640.60046     1203.819    8602.3583    9.6508075    0.2230638 
    6500   -683.58879    38.118284   -645.47051    1156.4544    3861.1577    9.6794992   0.18092645 
    6600    -686.6038    40.337577   -646.26623    1223.7846   -1265.6576    9.6656509   0.17427948 
    6700   -681.85671    41.433877   -640.42284    1257.0448    2680.8861    9.6272054   0.18648015 
    6800   -680.76861    41.205052   -639.56356    1250.1026   -254.10961    9.5672763   0.24126099 
    6900   -676.78218    43.123216   -633.65896    1308.2969   -5813.1898    9.4458383   0.27290567 
    7000   -679.82672    40.599568   -639.22715     1231.733   -5805.2379    9.5025337   0.23598047 
    7100   -682.54509    40.820931   -641.72416    1238.4489    11531.798    9.7370379   0.18793416 
    7200    -681.2912    40.979361   -640.31184    1243.2554    1036.1093    9.5969643   0.18106666 
    7300   -679.60967     46.77738   -632.83229     1419.159   -16984.834    9.3538231   0.27197725 
    7400   -677.57246    40.120902   -637.45156     1217.211    -2828.912    9.4893554   0.27123617 
    7500    -681.6963    40.715103    -640.9812    1235.2382    510.82342    9.5879952   0.20248109 
    7600   -680.74775    38.248713   -642.49904    1160.4114    3082.9424    9.6192703   0.21846798 
    7700   -677.56445    42.884378   -634.68007    1301.0509   -2372.8252    9.4844902   0.26446131 
    7800   -676.75881     40.47515   -636.28366    1227.9584    4866.7614    9.5753024   0.26994563 
    7900   -681.82044    39.617946    -642.2025     1201.952   -2282.6403    9.5777665   0.21737774 
    8000   -679.93379    40.085821   -639.84797    1216.1467   -1022.1436    9.5497854   0.20641005 
    8100   -674.49702    40.168529   -634.32849    1218.6559   -1043.6542     9.471283   0.25587853 
    8200   -682.97815    40.967376   -642.01078    1242.8918    5531.1124    9.6742646   0.18597693 
    8300   -683.38813    41.220584   -642.16755    1250.5738   -1427.0297    9.6118155   0.21190792 
    8400   -678.30261    40.450381   -637.85223    1227.2069   -9741.1811    9.4356697   0.26151337 
    8500   -680.41854    39.682211   -640.73633    1203.9017   -9741.2863    9.4600479   0.24292685 
    8600   -682.58167    38.162929   -644.41874    1157.8089    4120.4345    9.6561504     0.187262 
    8700   -680.74037    42.756643   -637.98372    1297.1756    9919.4441    9.6847861   0.19171348 
    8800   -678.76243    39.993278   -638.76915    1213.3391    13.276392    9.5329939   0.23246349 
    8900   -681.74415    37.746949    -643.9972    1145.1887    2020.7933    9.6271816   0.20349424 
    9000   -681.31454    39.312994   -642.00154    1192.7002   -354.08309       9.5889   0.20652505 
    9100   -679.31871    41.683093   -637.63561    1264.6056    6056.0159    9.6321019   0.22736027 
    9200   -682.17712    41.274103   -640.90302    1252.1975    6204.9091    9.6775376   0.18787609 
    9300   -683.57053    38.358577   -645.21195    1163.7446   -5113.4749    9.5756784   0.20012705 
    9400   -676.47992    38.965452   -637.51447    1182.1563   -9098.1013    9.4002952   0.26466394 
    9500   -679.60701    41.149647   -638.45737    1248.4217   -7993.5149    9.4729309   0.26843748 
    9600   -681.80168    39.288069   -642.51361     1191.944    7784.7888     9.690897   0.19083779 
    9700   -683.37601    37.179837   -646.19617    1127.9833    5549.5101    9.6933474   0.19758658 
    9800   -681.15321    42.321062   -638.83215    1283.9607    309.17188    9.5947628   0.19509386 
    9900   -683.24151    43.472356   -639.76915    1318.8893   -1941.3045    9.5921212   0.20918397 
   10000   -682.03878    37.161777     -644.877    1127.4354   -1962.9665    9.5810363   0.21792059 
   10100   -682.67367    38.037479   -644.63619    1154.0029   -6632.1851    9.5550635     0.243097 
   10200   -678.34715    38.755066   -639.59208    1175.7735    3337.6604    9.5773305   0.24815443 
   10300    -681.3226    40.068189   -641.25441    1215.6118   -6279.4566     9.530485    0.2279951 
   10400   -679.36477    34.463522   -644.90125    1045.5742   -1520.0355      9.54176   0.24296857 
   10500   -675.87605    37.971021   -637.90503    1151.9867    4188.4409    9.5549744   0.22525542 
   10600   -681.20179    42.916815   -638.28498     1302.035    9017.9649    9.6833778   0.22643206 
   10700   -684.37597    39.350263   -645.02571    1193.8309    -8073.448    9.5513311   0.21280046 
   10800    -679.1344    38.687526   -640.44687    1173.7244   -8622.8585    9.4547753   0.24888121 
   10900   -680.44067     41.87743   -638.56324    1270.5016    1468.9253    9.5871103    0.2397282 
   11000   -677.99984    37.881548    -640.1183    1149.2722    8180.2903    9.6287381   0.21037751 
   11100   -686.09455    38.330593   -647.76396    1162.8956   -6864.8966    9.6104562   0.18494506 
   11200   -681.94472    39.452244   -642.49247    1196.9249     4375.426    9.6583137   0.20637751 
   11300   -683.08457    44.108345   -638.97623    1338.1843   -346.86293    9.6073386   0.18549113 
   11400   -679.12265    37.701629   -641.42102    1143.8137    7808.7062    9.6420876   0.23389161 
   11500   -682.27115    35.069178   -647.20197    1063.9489   -6719.2041    9.5433605    0.2088425 
   11600   -682.00507    37.662185   -644.34288     1142.617   -4402.9629    9.5620225    0.2104591 
   11700   -680.42049     40.43557   -639.98492    1226.7576     4270.412    9.6312537   0.22530808 
   11800   -679.97099    40.954526   -639.01647     1242.502    13062.329    9.7001839   0.20585761 
   11900   -679.66932    39.136391   -640.53293    1187.3424   -7898.6295    9.4732544    0.2127251 
   12000   -684.06483    35.682807   -648.38202    1082.5655   -7466.5205    9.5628036   0.18911792 
   12100    -682.0594    39.594811   -642.46459    1201.2502   -4364.7698    9.5446158   0.20780953 
   12200   -681.68224     42.64551   -639.03673     1293.804    4092.6648    9.6341025   0.19891675 
   12300   -680.64281    41.149643   -639.49317    1248.4215    4856.5855    9.6304948   0.21860384 
   12400   -684.68376    36.454237   -648.22953    1105.9696   -6815.1986    9.5928674    0.1987914 
   12500   -683.01647    38.962556   -644.05391    1182.0684   -9725.4684    9.5124851   0.23422126 
   12600   -679.90924    39.268775   -640.64047    1191.3587    7418.5012    9.6382416    0.2127133 
   12700   -680.67479    40.887962   -639.78683    1240.4825    900.51407    9.5908678   0.18986361 
   12800   -681.41759    36.372959   -645.04463    1103.5038   -112.33756    9.5924282    0.2064763 
   12900   -682.93216    36.955471   -645.97669    1121.1763    3313.0862    9.6578823    0.1922731 
   13000   -680.87498    40.945374   -639.92961    1242.2243    4464.8256    9.6249193   0.21095467 
   13100    -681.4851      42.1758    -639.3093    1279.5537   -4307.3083    9.5389337   0.22327656 
   13200   -681.22879    36.278326   -644.95047    1100.6327   -8300.5121    9.5211136   0.22749817 
   13300   -679.88519    34.947064   -644.93813    1060.2441    6857.1227    9.6533037   0.20520806 
   13400   -680.85178    42.913201   -637.93858    1301.9254    9460.1666    9.6819917   0.20409092 
   13500   -680.35436    42.462276   -637.89208    1288.2449    1059.1697    9.5761329   0.20020053 
   13600   -681.84503    36.808435   -645.03659    1116.7155   -10559.989    9.4970483   0.20633504 
   13700   -682.52567    38.754484   -643.77118    1175.7558   -5206.2324    9.5514739   0.20490534 
   13800   -679.25744    41.671169   -637.58628    1264.2439    9065.9382    9.6430032   0.22574107 
   13900   -681.52185    41.387852     -640.134    1255.6485    2774.0882    9.6191584   0.21283642 
   14000   -682.33507    37.361578   -644.97349     1133.497    2899.6179    9.6475418   0.19775328 
   14100    -678.2023    39.284973   -638.91733    1191.8501    3661.7301    9.5676224   0.22353937 
   14200   -679.14783    40.149603   -638.99822    1218.0817   -5244.5938    9.4979761   0.24780299 
   14300   -685.34837    41.368551   -643.97982    1255.0629   -8737.5148    9.5685046   0.19241917 
   14400   -683.93895    41.383501   -642.55545    1255.5164    11666.905    9.7622584   0.17508158 
   14500   -677.49456    42.019732   -635.47482    1274.8188   -2726.5813     9.482929   0.25595542 
   14600   -677.55121    37.459648   -640.09157    1136.4723    -5533.565    9.4704863   0.24353777 
   14700   -681.91473    39.314469   -642.60027     1192.745   -2315.3386    9.5902215    0.2154311 
   14800   -678.65909    40.671925   -637.98717    1233.9283    7077.2148    9.6096962   0.21534587 
   14900    -674.8834    38.771786   -636.11161    1176.2808     2815.577    9.5072463    0.2715905 
   15000   -681.48169    38.219505   -643.26219    1159.5253   -6795.4833    9.5220393   0.22742237 
   15100   -679.58429    37.932797    -641.6515     1150.827   -4155.1101     9.529213   0.24846256 
   15200   -679.35368    42.760284    -636.5934    1297.2861   -4081.0235    9.5091574     0.224511 
   15300   -682.33837    39.236785   -643.10159    1190.3881   -2.3577572     9.607428   0.20447199 
   15400   -680.18965    39.448559   -640.74109    1196.8131   -1641.8435    9.5568022   0.23185197 
   15500   -676.23157    38.526842   -637.70473    1168.8495    902.64902    9.5092301   0.24702622 
   15600   -679.29627    37.425443   -641.87083    1135.4346    7586.5142    9.6401814   0.21296278 
   15700   -683.63059    39.809861   -643.82073    1207.7745   -2088.8578    9.6005232   0.20414381 
   15800   -677.86199     40.66061   -637.20138     1233.585   -6540.6219    9.4550263   0.26542362 
   15900   -678.42545    39.694774   -638.73068    1204.2829   -2564.4024    9.5239215   0.24371329 
   16000   -684.36007    39.622835   -644.73724    1202.1004    11065.951    9.7626327   0.17582813 
   16100   -681.15273    39.922594   -641.23014    1211.1946    5288.2312    9.6401079   0.19849983 
   16200   -677.43672    38.892617   -638.54411    1179.9466   -3594.0446     9.474218    0.2339305 
   16300   -682.14893    41.373227    -640.7757    1255.2048   -350.88282     9.596439   0.20220142 
   16400   -685.00519    37.212682   -647.79251    1128.9797    4934.5307    9.7234405   0.17213496 
   16500   -680.97278    39.225349   -641.74743    1190.0412    1436.2757    9.6096007   0.20588099 
   16600   -678.56102    38.795281   -639.76574    1176.9936    3242.1737    9.5895767   0.22246782 
   16700   -683.27086    41.314987   -641.95587    1253.4379   -7367.3184    9.5488685   0.18748461 
   16800   -685.04633    37.000776   -648.04555    1122.5508    7105.8756    9.7344704   0.16633401 
   16900   -679.58917    38.428546   -641.16063    1165.8673    814.96791    9.5710691   0.21358764 
   17000   -679.11415    39.688948    -639.4252    1204.1061   -18190.552     9.356322   0.25277803 
   17100   -679.21577    37.930776     -641.285    1150.7657     2884.189    9.5756175   0.24180712 
   17200   -686.15279     39.86535   -646.28744    1209.4579    5120.8499    9.7208643   0.16932235 
   17300   -683.21967    39.757445   -643.46222    1206.1842    1516.5789    9.6379994   0.18072451 
   17400   -679.67803    40.404761   -639.27327    1225.8229   -835.34112    9.5570261   0.21906347 
   17500   -677.86889    36.388417   -641.48047    1103.9727    4577.5836    9.6085176   0.23968447 
   17600    -682.7159     37.69773   -645.01817    1143.6954   -1064.5625    9.6093309   0.20059056 
   17700   -686.69538    35.491007   -651.20437    1076.7466   -34.260099     9.699715   0.16527863 
   17800   -679.78949    36.868163   -642.92133    1118.5275   -3077.8047    9.5359454   0.22364129 
   17900   -682.10911    41.669077   -640.44003    1264.1804    2794.2587    9.6277272   0.21632554 
   18000   -681.61807    42.206892   -639.41118     1280.497    9864.0908    9.6981642   0.20168701 
   18100    -680.7056    36.755887   -643.94971    1115.1212   -7753.7775    9.5004693   0.22878693 
   18200   -682.88349    36.479081   -646.40441    1106.7233   -8966.3199    9.5348834   0.21116594 
   18300   -679.84173    41.274807   -638.56693    1252.2188   -1949.6788     9.535249    0.2349873 
   18400   -678.57481     39.08786   -639.48695      1185.87    7912.1536    9.6482275   0.23115646 
   18500   -681.91333    39.142483   -642.77085    1187.5272   -2008.2782    9.5886132   0.20300378 
   18600   -682.61842    37.784277   -644.83414    1146.3211   -494.69616    9.6000477   0.20958322 
   18700   -677.92017    39.420499   -638.49967    1195.9618     1930.248    9.5578862   0.25270779 
   18800   -678.88836    40.024687   -638.86367     1214.292    6326.4936    9.6187245   0.22299418 
   18900   -681.20076    35.190549   -646.01021    1067.6311   -859.99375    9.5864006   0.21482079 
   19000   -678.02293    36.156725    -641.8662    1096.9435   -5820.9272    9.4725269   0.24657807 
   19100   -679.86864     41.88201   -637.98663    1270.6405    482.65097    9.5641578   0.20887528 
   19200   -679.11428    39.558152   -639.55612     1200.138    12741.705     9.686421   0.20734227 
   19300   -674.99856    36.432359    -638.5662    1105.3059    6081.6872    9.5560773   0.24455624 
   19400   -682.09202    35.644081   -646.44794    1081.3906   -849.02449    9.6015116   0.22703256 
   19500   -681.78219    37.268055   -644.51413    1130.6597   -3558.8682    9.5566034   0.22523157 
   19600   -679.23918    39.038973   -640.20021    1184.3868   -2379.4441     9.521595   0.25795753 
   19700   -680.65488    40.948263   -639.70662    1242.3119   -594.38863    9.5761617   0.20332866 
   19800    -684.8076    40.823777   -643.98382    1238.5352   -1268.7452    9.6322423   0.17452624 
   19900    -682.8113    36.412395    -646.3989    1104.7002   -10850.728    9.5129691   0.21705442 
   20000   -680.16432    40.894525    -639.2698    1240.6816    8493.1942    9.6661502   0.20369324 
   20100   -682.77912    43.530264   -639.24886    1320.6462    11141.419    9.7364291   0.18686367 
   20200    -677.3708    37.146298    -640.2245    1126.9658    2536.7546    9.5486595   0.19422251 
   20300   -684.92076    37.545158    -647.3756    1139.0666   -4282.0321    9.6109622   0.19571438 
   20400   -681.55913    38.228552   -643.33057    1159.7998   -1587.3952    9.5819728    0.2151875 
   20500   -680.17453    40.401016   -639.77352    1225.7093   -4347.0183    9.5236644    0.2267264 
   20600   -682.20913    40.913511   -641.29562    1241.2576    -487.3336    9.6002987   0.19596527 
   20700   -685.82688    39.114416   -646.71247    1186.6757     526.8458    9.6720652   0.18146367 
   20800   -678.66449    39.375189    -639.2893    1194.5871   -4082.1181    9.5011002   0.23195437 
   20900   -677.37134    38.968488   -638.40285    1182.2484     6866.775    9.6027655   0.21344007 
   21000   -679.92547    38.188926   -641.73655    1158.5976    7950.0849    9.6604293   0.21604817 
   21100   -677.24075    41.403471   -635.83728    1256.1223      3944.72    9.5616394   0.23208697 
   21200   -676.70145    41.423532   -635.27792    1256.7309   -7032.5729    9.4230419   0.25398541 
   21300   -679.52387    37.824143   -641.69972    1147.5306   -8078.0903    9.4688819    0.2382814 
   21400   -678.59208    39.302245   -639.28983    1192.3741    10305.701    9.6476274   0.22933115 
   21500   -675.70038    41.353195   -634.34718     1254.597    10373.457    9.6096662   0.23553544 
   21600   -681.36389      40.1738   -641.19008    1218.8159   -6850.5699    9.5019649   0.22155691 
   21700   -682.93532    38.749219    -644.1861    1175.5961   -4855.8338    9.5649962   0.19862013 
   21800   -677.83397    40.075411   -637.75856    1215.8309   -983.04377    9.5155093   0.23544185 
   21900   -679.28601    42.507255   -636.77876    1289.6096    3482.6935    9.5970526   0.21992332 
   22000   -681.23617    39.385077   -641.85109    1194.8871    212.33467    9.6034773    0.2227031 
   22100    -679.6911    38.180612   -641.51048    1158.3454   -7803.9376    9.4689607   0.23505776 
   22200   -674.23193     39.27987   -634.95206    1191.6953   -5922.4563    9.4036399   0.23495831 
   22300   -682.07988    41.135596   -640.94428    1247.9954    2437.6616    9.6131696   0.20712808 
   22400   -680.02084    39.697884   -640.32295    1204.3772    10594.606    9.6916327   0.20188049 
   22500   -678.38683    43.790895   -634.59594    1328.5534   -5802.2415    9.4635915   0.22194168 
   22600   -678.92948    39.182499   -639.74698    1188.7412    828.27532    9.5541008      0.22448 
   22700    -679.7525     36.84524   -642.90726    1117.8321    3905.6323    9.6079017   0.19014796 
   22800   -679.04529    39.955828   -639.08946    1212.2029   -1320.2727    9.5377117   0.23102134 
   22900   -678.22295    41.977007   -636.24594    1273.5226   -5642.5629     9.469662   0.26581009 
   23000   -681.66633    39.267648   -642.39868    1191.3245    8706.1521    9.7043627   0.20281408 
   23100   -679.96074    40.017875   -639.94287    1214.0853    4679.0663    9.6105301   0.19122002 
   23200   -676.06986    39.464698   -636.60516    1197.3027   -6484.3135    9.4340124   0.23792577 
   23300   -680.96771    36.872192   -644.09551    1118.6498    4323.6253    9.6349891   0.21043087 
   23400   -680.87976    39.886835   -640.99292    1210.1098    6657.2572    9.6624979    0.2184465 
   23500   -675.13193    37.920029    -637.2119    1150.4396   -2512.8761    9.4643798   0.27272584 
   23600   -678.43164    36.374929   -642.05671    1103.5635   -11205.574    9.4194704   0.25564197 
   23700   -681.71699     39.31794   -642.39905    1192.8503    4341.1874    9.6402175   0.22615457 
   23800   -680.35143    42.632136    -637.7193    1293.3983     4708.804    9.6153755   0.21500428 
   23900   -680.56883    39.025722    -641.5431    1183.9848    -4894.344    9.5263652   0.22478196 
   24000   -684.71002    38.908403   -645.80162    1180.4255   -5385.7503    9.5857168   0.19939204 
   24100   -681.15181    42.920949   -638.23086    1302.1604    790.36203    9.5994446   0.21525689 
   24200   -681.09517    40.871213   -640.22396    1239.9744    5288.0743    9.6358609   0.20584546 
   24300   -683.25898    38.126721   -645.13226    1156.7104   -6114.7679     9.561235   0.22449784 
   24400   -679.00914    40.924916   -638.08422    1241.6036   -8675.3185    9.4523178   0.23612042 
   24500   -676.78497    39.269525   -637.51544    1191.3814   -1807.1961    9.4796905   0.24314935 
   24600   -681.71077    39.023263   -642.68751    1183.9102    1036.3475    9.6040634   0.21458955 
   24700   -681.11674    38.632137    -642.4846     1172.044    6860.8085    9.6654016    0.1990906 
   24800   -677.61284    42.955115   -634.65773     1303.197    8318.3587    9.6062627   0.23650468 
   24900   -678.48376    39.649693   -638.83407    1202.9152   -9145.9927    9.4410695   0.23442492 
   25000   -679.96202    37.042026      -642.92    1123.8023    -7341.197    9.5063325   0.24347707 
   25100   -677.10309    38.608696   -638.49439    1171.3328    12611.901    9.6517754   0.22057192 
   25200   -678.76177    43.520876   -635.24089    1320.3614   -4867.7797    9.4864496   0.24810812 
   25300   -681.69587    38.068904   -643.62696    1154.9563   -2524.4916    9.5642687   0.22488684 
   25400   -678.79006    38.040794   -640.74927    1154.1035   -3659.3069    9.5129958   0.24627057 
   25500   -677.27897      39.0768   -638.20217    1185.5344   -1510.3581    9.5144621   0.25454645 
   25600   -685.07092    40.212216    -644.8587    1219.9813    914.96787    9.6664617   0.17608437 
   25700   -681.09156    37.830369   -643.26119    1147.7195     4365.836    9.6408301   0.20927466 
   25800   -680.86883    43.184455   -637.68437    1310.1548   -5955.9827    9.5010578   0.22252109 
   25900   -677.59037    36.368575    -641.2218    1103.3707    2292.4438    9.5575814   0.22312506 
   26000   -682.84773    36.496332    -646.3514    1107.2467   -6229.4316    9.5527918   0.22002716 
   26100   -678.38175    39.071498   -639.31025    1185.3736   -3561.1496    9.5007046   0.25486274 
   26200    -675.6885    37.750994    -637.9375    1145.3114    10859.496    9.6200499   0.23086546 
   26300    -679.5927    40.090331   -639.50237    1216.2835   -3875.1293    9.5250101    0.2150266 
   26400   -684.17738    38.506786   -645.67059     1168.241   -267.22969    9.6297815   0.18536985 
   26500   -684.93946    42.768053   -642.17141    1297.5218    4036.3901    9.7051028   0.17332947 
   26600   -681.30614    44.064733   -637.24141    1336.8612    10604.186    9.6965953   0.19432005 
   26700   -679.31819    38.022906   -641.29528    1153.5608    3877.4253    9.6097362   0.20162849 
   26800   -678.48985     35.88419   -642.60566    1088.6752   -3868.3504    9.5040489   0.21563582 
   26900    -676.7181    40.643837   -636.07426    1233.0761   -1483.8185    9.4884547   0.24116731 
   27000   -677.91357    41.079248   -636.83433    1246.2859    7670.1206    9.6191002   0.21062799 
   27100   -679.80693    38.048485   -641.75844    1154.3368    2956.7027    9.6091449    0.1911372 
   27200   -679.52357     39.37332   -640.15025    1194.5304    1320.8321    9.5728498    0.2394774 
   27300   -673.95141    38.841352   -635.11006    1178.3913   -2542.0325    9.4373885    0.2893279 
   27400   -679.53332    37.262787   -642.27053    1130.4999   -2455.3603    9.5362443   0.24223114 
   27500   -679.28049    37.573982   -641.70651    1139.9411   -6877.3199    9.4872346   0.24411814 
   27600   -681.40393    41.789088   -639.61485    1267.8214    4592.9807    9.6468626   0.20582505 
   27700   -684.22697    41.376401   -642.85056     1255.301    6742.3439    9.7072574   0.19035629 
   27800    -687.8339    38.789745   -649.04416    1176.8256   -660.90239     9.693603   0.15695606 
   27900   -681.83668    39.636244   -642.20044    1202.5072   -4704.3586    9.5472933   0.21029936 
   28000   -679.24042    38.386859   -640.85357    1164.6026   -113.71941    9.5661829    0.2230735 
   28100   -680.65701    40.218643   -640.43836    1220.1763    8898.3752    9.6673149   0.20251383 
   28200    -682.9568    39.942473   -643.01433    1211.7977   -2893.7667    9.5860938   0.19938408 
   28300   -684.91157    36.981276    -647.9303    1121.9592   -5339.4029    9.5988703   0.18415762 
   28400   -683.05212    41.547665   -641.50446    1260.4969    2329.5725    9.6448798   0.20836098 
   28500   -681.13943    42.100366   -639.03907    1277.2651    8030.2114    9.6727883   0.16657988 
   28600   -682.63382    39.611889   -643.02193    1201.7683    -6938.068     9.541472   0.18051188 
   28700    -682.2239    36.533838   -645.69006    1108.3846   -3867.9229    9.5696387   0.18728728 
   28800   -680.59865    41.709084   -638.88956    1265.3942   -2153.7705     9.554307   0.22424363 
   28900   -677.29823    38.254772   -639.04346    1160.5953    2319.6282     9.552726   0.25119934 
   29000     -683.664    37.559779   -646.10422    1139.5102   -3729.5813     9.587609   0.22410985 
   29100   -680.30217    38.890692   -641.41148    1179.8882    2960.7354    9.6086206   0.22531502 
   29200   -679.52227    40.749237   -638.77303    1236.2738    8065.5953    9.6558776   0.20812811 
   29300   -680.97569    37.529031   -643.44666    1138.5773    -4137.809    9.5481915   0.23103398 
   29400   -682.50203    39.039122   -643.46291    1184.3913   -7737.6728    9.5309615   0.20832097 
   29500   -676.60139    40.003746   -636.59764    1213.6567   -718.13963     9.493948   0.26758708 
   29600   -679.48622     39.88012    -639.6061     1209.906   -3883.6588    9.5200744   0.25113212 
   29700    -684.1538    39.403336   -644.75046    1195.4411    13226.009    9.7688418   0.18026215 
   29800   -681.73403    39.525792   -642.20824    1199.1562   -3477.9502    9.5608315   0.19615376 
   29900   -678.27861    39.516686   -638.76193    1198.8799   -7383.3141    9.4524727   0.20273476 
   30000   -679.23106    37.474629   -641.75643    1136.9268    2149.2197    9.5930452   0.27953238 
   30100   -678.79515    43.087953    -635.7072    1307.2271   -1004.6778    9.5261284   0.26615323 
   30200   -679.72012    38.869181   -640.85094    1179.2356   -7012.3821    9.4923815   0.27145057 
   30300   -683.36846    41.250149   -642.11831    1251.4707    -995.6442    9.6067555   0.22485687 
   30400   -679.54974    43.792963   -635.75678    1328.6161    4865.6194     9.618028   0.21551251 
   30500   -679.63956    41.463733   -638.17583    1257.9506    3418.7976    9.5957681   0.21405077 
   30600   -682.87495    38.795621   -644.07933    1177.0039    3992.3612    9.6609422   0.19012741 
   30700   -680.52382    41.899848   -638.62397    1271.1817    -4416.051    9.5229101   0.21387393 
   30800   -680.47078    42.306278    -638.1645    1283.5122    3376.9071     9.612088   0.22191108 
   30900   -683.39699    38.425285   -644.97171    1165.7684    4671.1521    9.6836781   0.18991327 
   31000   -681.03039    39.296826   -641.73356    1192.2097   -2457.3854    9.5597521   0.21560353 
   31100   -677.02069    38.813393    -638.2073     1177.543   -3770.9687    9.4768406   0.22531949 
   31200   -683.54126    40.368828   -643.17243    1224.7327   -3946.8659    9.5821778   0.19951251 
   31300   -681.29105    39.083244   -642.20781    1185.7299    4727.6272    9.6328839   0.19662354 
   31400   -676.89875    40.813879   -636.08487    1238.2349   -152.28915    9.5179647   0.24379995 
   31500   -681.97841    41.229038   -640.74938    1250.8303   -4211.1939    9.5650777   0.20239399 
   31600   -683.19573    40.311326   -642.88441    1222.9882     12098.19    9.7587715   0.17598905 
   31700   -679.25351     42.81812   -636.43539    1299.0407   -3261.6796    9.5234071   0.22016008 
   31800   -676.67606    39.300601   -637.37546    1192.3242    2154.0179    9.5333051   0.24394245 
   31900   -682.03789    37.993283   -644.04461    1152.6621   -9587.3034    9.4981275   0.22703845 
   32000   -682.20453    42.515464   -639.68906    1289.8586   -4804.9388    9.5430819   0.23158646 
   32100      -677.34    41.388494   -635.95151    1255.6679    2715.7936    9.5472602   0.27213739 
   32200   -677.12857     42.52219   -634.60638    1290.0627   -5214.2945    9.4703614   0.25535313 
   32300   -678.48518    35.866401   -642.61878    1088.1355   -3407.1043    9.5133033   0.21343896 
   32400   -682.90612    42.614875   -640.29124    1292.8746   -1134.1331     9.607533   0.19424957 
   32500   -682.83119    42.129036   -640.70215    1278.1349    12201.836    9.7295644   0.20260346 
   32600   -677.34379    42.304895   -635.03889    1283.4702   -3770.5461    9.4740626   0.24725972 
   32700   -675.68244    40.540982   -635.14146    1229.9556   -10967.388    9.3567725    0.2874719 
   32800   -681.47713    39.322814   -642.15432    1192.9982   -6260.2002    9.5335836   0.21800478 
   32900   -682.16004    42.001359   -640.15868    1274.2614    2697.3324    9.6299403   0.16343283 
   33000   -679.23703    40.503673   -638.73336    1228.8237    3535.4047    9.5840706   0.21450861 
   33100   -676.11201    43.800131   -632.31188    1328.8336   -11295.316    9.3711168   0.29951529 
   33200   -680.70762    40.643524   -640.06409    1233.0666   -5008.4771    9.5380832   0.23432435 
   33300   -682.36925    41.609569   -640.75968     1262.375    7304.9923    9.6774478   0.22653034 
   33400   -677.63224    41.047842    -636.5844     1245.333   -4210.3858    9.4823984   0.24927683 
   33500   -674.30435    39.001014   -635.30334    1183.2352   -6529.1241    9.4027367   0.25822751 
   33600   -682.23675    40.100244   -642.13651    1216.5843   -777.15747    9.5917783   0.21994549 
   33700   -684.75403    43.868787   -640.88524    1330.9165   -4401.8648    9.5854641    0.2165313 
   33800   -678.36174     42.48327   -635.87847    1288.8819    3535.6121    9.5835626   0.23278381 
   33900   -674.77757    44.388109   -630.38946     1346.672    4985.9202    9.5157401   0.25871868 
   34000   -681.58153    42.463542   -639.11799    1288.2834   -4870.8734    9.5214005   0.21486523 
   34100   -679.08059    38.159947   -640.92064    1157.7184   -5044.7255    9.5035905   0.23145042 
   34200   -681.57386    39.885995   -641.68786    1210.0843    2716.2939    9.6271582   0.20179898 
   34300   -684.98147    37.716318   -647.26515    1144.2594    2276.9289    9.6842714   0.19595538 
   34400   -685.72769    38.713864   -647.01382    1174.5235   -3154.8632    9.6405574   0.18466177 
   34500    -679.7541    38.162185   -641.59191    1157.7863    3709.7929     9.612277   0.23089662 
   34600   -679.88931    39.105155   -640.78416    1186.3947   -1932.8406    9.5481623   0.23001935 
   34700   -677.14055    39.095467   -638.04508    1186.1008   -951.16179    9.5095969   0.23006942 
   34800   -671.67363    40.044333    -631.6293     1214.888   -8737.2674    9.3335545   0.28260858 
   34900    -679.9958    40.576737   -639.41906    1231.0404    5659.3237    9.6133766   0.20278756 
   35000   -679.15767    39.028157   -640.12951    1184.0587    5002.3757    9.5953321   0.23067804 
   35100   -680.82078    41.619784   -639.20099    1262.6849   -3388.3385    9.5395312   0.22927011 
   35200   -682.06514     38.15497   -643.91017    1157.5674    3837.1065    9.6479463   0.20377981 
   35300    -684.7834    39.752579   -645.03082    1206.0366    1332.4062    9.6634668   0.18008279 
   35400   -679.84443     40.10406   -639.74037       1216.7   -1778.7631    9.5475806   0.23253123 
   35500   -679.32023    41.468981   -637.85125    1258.1098    2214.0071    9.5708322   0.22391889 
   35600   -683.87744     39.04565   -644.83179    1184.5894   -4331.8643    9.6015532   0.20614566 
   35700   -678.45952    35.658495   -642.80103    1081.8279   -2329.2338      9.53599   0.22926101 
   35800   -677.66553    39.182629    -638.4829    1188.7451    1499.4768    9.5412048   0.24125722 
   35900   -680.41366    40.318829   -640.09483    1223.2158    4990.8006     9.635922   0.21531772 
   36000   -684.80964    39.961252   -644.84839    1212.3674    4187.0842    9.7125273   0.17678757 
   36100   -680.24476    41.405721   -638.83904    1256.1906    4764.0861    9.6220514   0.21467448 
   36200   -679.59141    42.740345   -636.85107    1296.6812    -4064.098    9.5140319   0.20407942 
   36300   -677.99002    35.844963   -642.14506    1087.4851   -4257.1938    9.5007987   0.22556917 
   36400   -680.53777    38.473232   -642.06454     1167.223     2875.035    9.6025137   0.20652056 
   36500   -680.60523    46.709581   -633.89564    1417.1021    7623.0545    9.6365727   0.20962761 
   36600   -680.68022    40.885786   -639.79444    1240.4165    2790.7615    9.6136125   0.20498868 
   36700   -677.71814    35.303002   -642.41514    1071.0428   -5561.4252    9.4780023   0.26365485 
   36800   -678.26765    39.852584   -638.41506    1209.0706    522.48446    9.5379876   0.21807937 
   36900   -683.93207    41.047374    -642.8847    1245.3188   -1873.1744     9.603627   0.20246164 
   37000   -683.74061    38.280054   -645.46056    1161.3623   -824.49584    9.6307858   0.19223885 
   37100   -678.89958    39.982108   -638.91747    1213.0002   -3027.2015    9.5054893   0.25443204 
   37200   -676.33624    34.975966   -641.36028     1061.121   -860.57433    9.5044471   0.31301229 
   37300   -677.33164    38.727737    -638.6039    1174.9444   -7332.5738    9.4390889   0.25083667 
   37400   -680.19905    42.827738   -637.37132    1299.3326   -1189.9973    9.5588253   0.23355349 
   37500   -673.95906    46.233401   -627.72565    1402.6555    6356.4822    9.5180498   0.27323664 
   37600   -678.49203    45.285239   -633.20679    1373.8896    825.74065    9.5471247   0.22577292 
   37700   -678.89581    40.567564   -638.32824    1230.7621   -1300.8069     9.534975   0.24993276 
   37800   -681.70123    41.520584   -640.18065    1259.6754   -5609.3138    9.5287521   0.22527058 
   37900   -680.43203    35.219225   -645.21281    1068.5011    1242.3475    9.5899599   0.21357702 
   38000   -680.64839    39.772462   -640.87593    1206.6398   -3632.1894    9.5363546   0.22269761 
   38100   -678.62238    41.060864   -637.56151    1245.7281    4417.5953    9.5851606    0.2273069 
   38200   -679.99331    37.500381   -642.49293    1137.7081   -3500.2192    9.5319658   0.23792867 
   38300   -679.70285    38.577301   -641.12555    1170.3804   -9616.5197    9.4494546   0.26766792 
   38400   -677.03125    41.116722   -635.91453    1247.4228   -1678.6196    9.4941814   0.26444042 
   38500   -683.29026     42.28246    -641.0078    1282.7896    4555.2771    9.6646978   0.21990891 
   38600   -681.77159    39.491818   -642.27977    1198.1255   -2054.9141    9.5779944   0.19741996 
   38700   -677.10964    41.861195   -635.24844     1270.009   -5228.3778    9.4505685   0.25796881 
   38800   -678.45432    40.103645   -638.35068    1216.6874    9851.3996    9.6514376   0.22940981 
   38900   -685.91796    44.691354   -641.22661     1355.872   -2470.6857    9.6355145   0.17905519 
   39000   -679.62044     40.34006   -639.28038    1223.8599    13153.316     9.701348   0.19026282 
   39100   -676.41863    41.163217   -635.25542    1248.8333    4856.0105    9.5453749   0.21313152 
   39200   -679.98716    39.795151   -640.19201    1207.3282   -216.42651    9.5586153   0.22241032 
   39300   -681.75683    38.696675   -643.06015     1174.002   -2333.6629    9.5790308   0.22355791 
   39400   -680.59952    40.414478   -640.18504    1226.1177    4660.2157     9.623572    0.2113193 
   39500   -679.84031     43.86849   -635.97182    1330.9075   -13283.211    9.4187941   0.22930341 
   39600   -677.16729    39.995331   -637.17196    1213.4013    4840.8782    9.5785196   0.23902414 
   39700    -681.9567    39.588152   -642.36855    1201.0481     6129.438    9.6789058   0.20147274 
   39800   -680.15133      40.7091   -639.44223    1235.0561   -4099.0063    9.5314069   0.23408635 
   39900   -676.69673     41.93073     -634.766    1272.1186   -3328.7766    9.4666159   0.24380219 
   40000    -683.8012    42.370997    -641.4302    1285.4757    8549.7856    9.7284912   0.18822903 
   40100   -681.38395    38.761309   -642.62264    1175.9629    3566.3515    9.6386216   0.19883297 
   40200   -679.05139    38.745076   -640.30632    1175.4704   -3795.3008    9.5157922   0.22186842 
   40300   -678.32427    43.897273     -634.427    1331.7807    448.94365    9.5352226   0.24610754 
   40400   -677.29901    47.009063   -630.28995     1426.188    6407.7075    9.5680367   0.22559034 
   40500   -679.29528    41.710717   -637.58457    1265.4437   -12655.234     9.397616   0.26817673 
   40600   -678.63237    37.804086   -640.82828    1146.9221    627.07095    9.5448334   0.24123957 
   40700   -684.38192    41.732477   -642.64944    1266.1039    3767.2374    9.6649878   0.19223352 
   40800   -677.75297    42.265558   -635.48741    1282.2768    3635.1159    9.5665836   0.23315617 
   40900   -677.33079     39.21568   -638.11511    1189.7479    1911.2419    9.5358598   0.23057934 
   41000   -679.90415    36.750374   -643.15378     1114.954   -14377.972     9.426565   0.24754098 
   41100   -677.74392    38.185346   -639.55857     1158.489   -1376.9048    9.5241071   0.26000031 
   41200    -678.1919    40.774694   -637.41721    1237.0461    5770.3097      9.60078   0.23802648 
   41300   -681.31099    37.725078   -643.58591    1144.5251   -223.82075    9.5834116   0.22116661 
   41400   -674.56455    34.246735   -640.31782    1038.9971   -5469.6899    9.4254974   0.28520294 
   41500    -677.9128    41.562476   -636.35033    1260.9463   -8947.1663    9.4309161    0.2393087 
   41600   -680.67709    39.515746   -641.16134    1198.8514    8235.7881    9.6724709   0.20355683 
   41700   -682.99761    39.981121   -643.01648    1212.9702    1090.6705    9.6303817   0.19526179 
   41800   -676.41475    40.776387   -635.63837    1237.0975    -3058.049    9.4794901   0.25237345 
   41900   -676.95869    39.085041   -637.87365    1185.7845   -3306.4545    9.4740783   0.24101736 
   42000   -681.69649     39.52852   -642.16797     1199.239    4965.8529    9.6459588   0.19125393 
   42100   -679.97219    38.223501   -641.74869    1159.6466    2669.8224    9.5972684   0.19696541 
   42200   -677.72651    42.489502   -635.23701     1289.071   -632.78579    9.5310906    0.2407728 
   42300    -679.7879    39.245692   -640.54221    1190.6584    1618.1873    9.5937013   0.22950975 
   42400   -681.14701    36.270367   -644.87664    1100.3913    -842.7055    9.5953272   0.23011035 
   42500   -676.94967    38.967303   -637.98237    1182.2124   -3236.7453    9.4723926   0.23826757 
   42600   -676.15513    36.657206   -639.49792    1112.1274   -2638.2116    9.4954089   0.26058032 
   42700    -681.1283    38.638883   -642.48942    1172.2487    228.83459    9.5865967   0.21580017 
   42800   -684.39525     36.66063   -647.73462    1112.2313    1427.5159    9.6698997   0.18650678 
   42900   -680.11591     39.96555   -640.15036    1212.4979   -5710.7375    9.5065371   0.23796323 
   43000   -680.03961    39.644674   -640.39494    1202.7629   -2368.8798    9.5400524   0.21183507 
   43100   -683.01709    40.329053   -642.68803     1223.526    8546.7548    9.7098931    0.1812793 
   43200   -686.00638    36.681898   -649.32448    1112.8765     1032.717    9.6889561   0.16158247 
   43300   -680.18935    36.812126   -643.37722    1116.8275   -253.41323     9.561009   0.20033145 
   43400   -678.35227    37.648009   -640.70426     1142.187   -6812.3456    9.4761108   0.21843285 
   43500   -683.30511    43.047158   -640.25795    1305.9894   -5319.8174    9.5655294    0.2110569 
   43600    -680.9303    44.101335   -636.82896    1337.9717    8855.1615    9.6695167   0.20375603 
   43700   -675.16753    43.010142   -632.15739    1304.8664    3534.7729    9.5332998   0.25174192 
   43800   -680.40942    41.873841   -638.53558    1270.3927    2517.6884    9.6051158   0.22124531 
   43900   -682.34022    41.551507   -640.78871    1260.6135   -4230.2545    9.5610546   0.22556907 
   44000   -681.73227    38.983023   -642.74925    1182.6894   -1223.1208     9.588306   0.19817318 
   44100    -688.2624    38.206153   -650.05625    1159.1203    2040.5181    9.7327768   0.14558445 
   44200   -682.86018    39.018506   -643.84167    1183.7659    -5895.162     9.537388   0.21618328 
   44300   -680.91156    39.995776   -640.91579    1213.4149   -7563.0084    9.4920544   0.22144306 
   44400   -680.04369    40.606729   -639.43696    1231.9503   -1386.7428    9.5529094   0.21909829 
   44500   -677.54625    43.456139   -634.09012    1318.3973    7660.5059    9.6130557   0.23504609 
   44600   -672.21914    44.016167   -628.20298    1335.3878    9349.1566    9.5193545   0.29322889 
   44700    -679.4208      41.6335    -637.7873    1263.1011   -1090.9391    9.5324206   0.23607266 
   44800   -678.34865     38.37908   -639.96957    1164.3666   -5152.8598    9.4977297   0.25548433 
   44900   -681.24117    39.435604   -641.80557      1196.42    -3989.556    9.5478393   0.22335058 
   45000   -683.21823    39.578167   -643.64006    1200.7452    2.3904567    9.6293541   0.17171477 
   45100   -677.15075    41.845927   -635.30483    1269.5458    3392.3074    9.5484967     0.228146 
   45200   -679.31442    41.143129   -638.17129    1248.2239   -3805.1576    9.5265648   0.21672208 
   45300   -682.89348    40.427815   -642.46567    1226.5223    2390.3189    9.6371044   0.18519455 
   45400   -681.76315    41.746062   -640.01709     1266.516   -3441.6428    9.5615765   0.20609626 
   45500   -676.64583    40.088888   -636.55695    1216.2398   -278.56932    9.5116062   0.21676034 
   45600    -682.8445    39.808005   -643.03649    1207.7182    628.18474    9.6095831   0.19671441 
   45700   -682.74367    40.987614   -641.75606    1243.5058    6929.1184    9.6897988   0.19944853 
   45800   -679.15563    42.711517   -636.44411    1295.8066     10329.35    9.6676783   0.22901843 
   45900   -679.83186    41.219397   -638.61246    1250.5378     845.7705    9.5698884   0.22516965 
   46000   -683.65163    39.743834    -643.9078    1205.7713   -11128.043    9.5273541   0.20555638 
   46100   -677.12102    38.934214   -638.18681    1181.2086    8427.1381    9.6077939   0.21378487 
   46200   -681.47666     43.37221   -638.10445     1315.851    539.47055    9.5865652   0.21907083 
   46300    -685.5708    41.272044   -644.29876     1252.135   -1846.9058    9.6398509   0.19697011 
   46400   -681.41654    39.343724   -642.07281    1193.6325    5665.5977    9.6569843   0.21335401 
   46500   -678.90038    42.356036   -636.54435    1285.0218    270.34059    9.5388503   0.25028429 
   46600   -681.20093    40.587659   -640.61327    1231.3718   -6238.3517     9.511596   0.20988821 
   46700   -683.82643    38.792965   -645.03347    1176.9233     -9595.83    9.5287609   0.19003161 
   46800   -680.23885    42.077215   -638.16164    1276.5627    8148.3392    9.6524178   0.20753307 
   46900   -679.27605    41.291489   -637.98456    1252.7249    3361.3134    9.5898492   0.23374285 
   47000   -682.68642    36.993671   -645.69275    1122.3353    4093.4841    9.6594124   0.18876439 
   47100   -683.32245    40.059781   -643.26267    1215.3567   -4984.5254    9.5774707   0.19778551 
   47200   -677.50006    39.268674   -638.23139    1191.3556    7167.0752    9.6053784   0.23701279 
   47300   -678.34053    38.661696   -639.67884    1172.9408   -2834.6292    9.5021988   0.22749063 
   47400   -681.48174    36.781835    -644.6999    1115.9085   -13263.384    9.4523995   0.20943719 
   47500   -679.33333     40.73678   -638.59655    1235.8959      7391.15    9.6334703   0.22523542 
   47600   -680.98253    43.007013   -637.97552    1304.7715    5028.1211    9.6367152   0.20981635 
   47700   -682.03885    39.302746    -642.7361    1192.3893   -4442.8934      9.56872   0.24431261 
   47800   -676.44564    38.121822   -638.32382    1156.5618    6664.9426    9.5804966   0.25896257 
   47900   -676.75425    41.984843   -634.76941    1273.7603   -3262.5542    9.4716819   0.29742594 
   48000   -680.80579    38.108431   -642.69736    1156.1555    1168.5729    9.6069345    0.2106503 
   48100   -680.36445     37.96694   -642.39751    1151.8629    3270.8145    9.6295616   0.21416237 
   48200   -676.46264    39.602105   -636.86053    1201.4715   -2795.3827    9.4710528   0.23913866 
   48300   -679.41382    39.188916   -640.22491    1188.9359   -3076.6492    9.5123888   0.25415509 
   48400   -683.96709    39.674258   -644.29283    1203.6605     5799.423     9.705459   0.17581985 
   48500   -682.23823    42.441424   -639.79681    1287.6123   -5267.2409    9.5340534   0.21937366 
   48600   -677.56597    40.561611   -637.00436    1230.5815   -6698.3775    9.4677791   0.25268782 
   48700   -678.94475    35.285119   -643.65963    1070.5002    1769.7081    9.5758648   0.22397887 
   48800   -681.72416    40.824215   -640.89995    1238.5485    1128.1152    9.6084758   0.20524783 
   48900   -677.19299     40.03716   -637.15583    1214.6704    3092.4935      9.53774   0.23099056 
   49000   -681.78959    37.695221   -644.09437    1143.6193    583.17524    9.6159945    0.2232411 
   49100   -682.13286    37.633775   -644.49908    1141.7551    -9558.853    9.5189872   0.21670997 
   49200   -678.78746    41.016511   -637.77095    1244.3825    3098.4743    9.5892274   0.22389947 
   49300   -682.43756    43.206631   -639.23093    1310.8276    5185.5624    9.6545442   0.18621236 
   49400    -684.5775    38.977558   -645.59994    1182.5236   -2575.6131    9.6176421   0.18548964 
   49500   -678.44269    38.433505   -640.00918    1166.0178   -3881.3208    9.5001398   0.22706605 
   49600   -678.89669    41.042241   -637.85445    1245.1631     2292.911     9.584784   0.23741021 
   49700   -682.41707    42.451311   -639.96576    1287.9123    8198.7849    9.6896879   0.21238191 
   49800   -683.94358    36.901255   -647.04232    1119.5315   -2464.8166    9.6122094   0.19107955 
   49900   -684.15202    39.122638   -645.02938    1186.9251   -40.043377    9.6372964   0.20451487 
   50000   -683.05143    42.556638    -640.4948    1291.1078    3740.1647    9.6461343   0.18545217 
   50100   -680.79525    39.058647    -641.7366    1184.9837    228.14424    9.5731559   0.22407361 
   50200   -677.34833    42.025613   -635.32271    1274.9972   -2075.1762    9.5059136   0.23953983 
   50300   -678.92471    41.948139   -636.97657    1272.6468    1166.4129    9.5549431   0.26753677 
   50400   -680.99432    38.669558   -642.32477    1173.1793    2446.3617    9.6136728    0.2093389 
   50500   -678.97424     35.42842   -643.54582    1074.8478    164.93356    9.5628191   0.24376202 
   50600   -680.41105    42.924278   -637.48677    1302.2614   -455.42176    9.5535262   0.23304092 
   50700   -678.41379    39.392274   -639.02151    1195.1055     10492.21    9.6531242   0.21836469 
   50800   -683.81248    37.622852   -646.18962    1141.4237   -7485.9477    9.5562991   0.20028905 
   50900   -678.79246    38.044616   -640.74785    1154.2194   -3174.5674    9.5208534   0.22889734 
   51000     -678.359     40.41546   -637.94354    1226.1475    10141.563    9.6543786   0.21903276 
   51100   -680.63484    38.104154   -642.53069    1156.0257     1804.072    9.6049377   0.21875145 
   51200   -684.51946    37.161914   -647.35755    1127.4395   -2360.5846     9.630676   0.17375067 
   51300   -681.69157    41.399925   -640.29164    1256.0147   -930.63138    9.5809267   0.20120782 
   51400   -679.77929    40.173557   -639.60573    1218.8085    8263.7026    9.6606445   0.21772105 
   51500   -678.80274    40.550059   -638.25268     1230.231    8218.4334    9.6420535   0.23003051 
   51600     -679.494    41.244376   -638.24962    1251.2956   -5176.1672    9.5072203   0.23108115 
   51700   -683.17202    37.631568   -645.54045    1141.6881    2074.4425    9.6622044    0.2059703 
   51800   -681.29216    40.351477   -640.94068    1224.2063    721.88006    9.6074249   0.22004534 
   51900   -680.61084    44.400295   -636.21055    1347.0417    -1576.502    9.5400322   0.20925838 
   52000   -679.14682    38.531641   -640.61518    1168.9951    4828.4458    9.5960855   0.22251175 
   52100   -682.47872     37.35872      -645.12    1133.4103   -10292.978    9.5025036   0.22085444 
   52200   -677.12009    39.670542   -637.44955    1203.5477   -6874.8116    9.4405082   0.27364474 
   52300    -675.2572    39.387519   -635.86968    1194.9612    9051.3676    9.5864563    0.2725401 
   52400   -680.56564    38.399431   -642.16621     1164.984    2940.9298    9.6258631   0.21839231 
   52500   -681.70371    39.377799   -642.32591    1194.6663    28.523178    9.5980047   0.19119557 
   52600   -677.66928    41.276712   -636.39257    1252.2766   -4094.8519    9.4785863   0.25386911 
   52700   -676.30123    35.232886   -641.06834    1068.9156   -602.39473    9.5104133    0.2729665 
   52800     -680.798    37.159973   -643.63803    1127.3806   -6693.2807    9.5283249   0.23855168 
   52900   -678.33579    42.739627   -635.59616    1296.6594     6867.793    9.6177814    0.2503461 
   53000   -680.97867    44.397559   -636.58112    1346.9587    5319.2538    9.6269585   0.22401856 
   53100   -681.12608    39.452689   -641.67339    1196.9384    1072.2089    9.5927274   0.22727512 
   53200   -680.23398    38.754534   -641.47944    1175.7573   -8166.1011    9.4873896   0.22969767 
   53300   -676.63352     42.17327   -634.46025    1279.4769   -1788.3974    9.4812566   0.24129459 
   53400   -678.66646     38.32652   -640.33994     1162.772   -168.35275    9.5415425    0.2275488 
   53500   -680.68973    39.319248   -641.37048    1192.8899    5370.9881    9.6346832   0.19123076 
   53600   -677.03878    40.289406   -636.74938    1222.3232   -2942.4582     9.481553   0.22155071 
   53700   -673.47424     40.29343   -633.18081    1222.4452   -1991.6902    9.4138877   0.27758105 
   53800   -678.57515    37.726403   -640.84875    1144.5653    2487.5957    9.5826616   0.25535062 
   53900    -681.3682     40.61733   -640.75087    1232.2719    1823.4291      9.60126   0.20745334 
   54000    -679.7231    40.149755   -639.57334    1218.0863   -7455.2114    9.4892001    0.2256197 
   54100   -675.37592    42.137755   -633.23817    1278.3995    4924.8553    9.5401177   0.26435978 
   54200   -680.74731    39.615976   -641.13133    1201.8923    5873.4076    9.6479514   0.18491168 
   54300   -682.60966    40.048256    -642.5614     1215.007   -6142.2185      9.53439   0.20031085 
   54400   -675.86704    36.943001   -638.92403     1120.798    8344.3253    9.5892097   0.24043473 
   54500   -675.51351    40.298199   -635.21531      1222.59   -5935.9053     9.424302   0.25930768 
   54600   -681.08548    37.751253   -643.33423    1145.3192   -6708.9341    9.5254554   0.22757445 
   54700   -679.44942    37.980176   -641.46924    1152.2644   -1056.4109    9.5451416    0.2261451 
   54800    -677.8781    41.365841   -636.51226    1254.9807    2491.6694    9.5516923   0.25959943 
   54900   -677.89681    39.132731   -638.76408    1187.2313    7043.7871    9.6300545   0.24350134 
   55000   -684.23165    41.397374   -642.83428    1255.9373    2621.8456     9.671093   0.20171532 
   55100   -677.72412    39.306757   -638.41737     1192.511   -5455.9966    9.4729309   0.27536584 
   55200   -677.67964    40.713544    -636.9661    1235.1909    7186.6959    9.6186164   0.23930374 
   55300   -685.35051    43.184469   -642.16604    1310.1553    -2853.894    9.6320875   0.18307192 
   55400   -680.03363      38.2588   -641.77482    1160.7175   -878.20338    9.5508106    0.2358778 
   55500    -677.5597    40.732415   -636.82729    1235.7634   -7871.6347    9.4264172    0.2564991 
   55600   -682.30296     40.89094   -641.41202    1240.5729    333.30154    9.6050752   0.22118876 
   55700   -681.69855    40.836363   -640.86218    1238.9171    7478.6331     9.679145    0.2160049 
   55800   -675.93862    41.439967   -634.49865    1257.2296   -5254.0489     9.428319   0.26683637 
   55900   -678.89705    37.724511   -641.17254    1144.5079   -2867.9221    9.5389644   0.23501034 
   56000   -680.30422     38.67498   -641.62924    1173.3438    2521.0425     9.604456   0.19996007 
   56100   -679.51831    40.640115   -638.87819    1232.9632    522.50684    9.5571657   0.25605889 
   56200   -674.41891    39.573423   -634.84548    1200.6013    1164.7873    9.4846168   0.27784919 
   56300   -679.47355    39.419798   -640.05375    1195.9405   -11283.167    9.4466556   0.26162279 
   56400   -681.36779    38.655718   -642.71208    1172.7594   -544.52756    9.5895622   0.22708671 
   56500   -680.72632    40.991546   -639.73477    1243.6251    10087.286    9.6898277   0.20942618 
   56600   -678.23316    43.029218   -635.20394    1305.4452   -3047.8463    9.5126342   0.24895003 
   56700   -682.23434    41.844972   -640.38937    1269.5168   -9367.7386    9.5047084   0.19179479 
   56800   -684.32159    40.605947   -643.71564    1231.9266    7806.5379    9.7234471   0.17402469 
   56900   -684.65497    46.032397   -638.62257    1396.5573    5736.6342    9.7063249   0.17196298 
   57000   -677.64695    39.243746    -638.4032    1190.5993   -2890.4153     9.495444   0.24252996 
   57100   -681.64912    37.478252   -644.17087    1137.0368    2064.0495    9.6310294   0.19466734 
   57200    -683.5908    39.588545   -644.00226    1201.0601   -1385.7893    9.6081113   0.20664784 
   57300   -680.39499     41.38821   -639.00678    1255.6593    3506.4908    9.6050472    0.2074959 
   57400   -681.19201    40.544031   -640.64797    1230.0481    3216.0577    9.6303783   0.19062558 
   57500   -684.82239    38.541769   -646.28062    1169.3024   -8853.1177    9.5493237   0.18557423 
   57600   -679.03319    39.679724   -639.35347    1203.8263   -6200.3422    9.4854815   0.23986049 
   57700    -677.8562    38.502893   -639.35331    1168.1229    11745.259    9.6831495   0.20943604 
   57800   -683.97864    40.577538    -643.4011    1231.0647    -4993.842    9.5876339   0.20862204 
   57900   -679.32301    39.085946   -640.23706    1185.8119    2555.6384    9.5839535    0.2204288 
   58000   -676.32146    39.392047   -636.92941    1195.0986   -335.65406    9.5013408    0.2398209 
   58100   -680.15908    39.032204   -641.12688    1184.1815   -5397.3825     9.503051    0.2420827 
   58200   -684.72664    39.412745    -645.3139    1195.7265   -2814.3216    9.6241418   0.19058981 
   58300   -682.95143    41.530171   -641.42126    1259.9662    4298.0585    9.6615636   0.20408168 
   58400   -678.00982    39.746915    -638.2629    1205.8648   -1068.5885    9.5358204   0.24949952 
   58500   -683.05362    40.598364   -642.45526    1231.6965   -798.10844    9.6026363   0.21551185 
   58600   -683.43513    40.683514   -642.75162    1234.2799    3663.3152    9.6614335   0.20512512 
   58700   -677.48781    41.878117   -635.60969    1270.5224   -1181.0216    9.5075473   0.26306483 
   58800   -677.36213    37.383637    -639.9785    1134.1663    235.52276    9.5142867    0.2410887 
   58900   -677.74345     34.48712   -643.25633    1046.2901    4273.9354    9.5941354   0.22560979 
   59000   -682.90752    38.639493   -644.26803    1172.2672     721.9903    9.6259653   0.19797985 
   59100   -677.98901    42.565243   -635.42376    1291.3688    501.92432    9.5295325   0.21353394 
   59200   -678.25813    39.718834    -638.5393    1205.0128    8848.1656    9.6416927   0.20073472 
   59300   -679.32131    36.561961   -642.75934    1109.2378    286.96121    9.5641866   0.24070421 
   59400   -678.55838    39.134382     -639.424    1187.2814    -3371.952    9.4962576   0.24733906 
   59500   -676.73924    41.760261   -634.97897    1266.9468   -870.68539    9.5117998   0.25446153 
   59600   -683.29336    41.593036   -641.70032    1261.8734    9925.3776     9.719995   0.18224813 
   59700   -681.06539    39.655951   -641.40944     1203.105   -5925.1067    9.5194937   0.20260108 
   59800   -675.50447    38.725555   -636.77891    1174.8782   -7469.6966    9.4111765   0.27990056 
   59900   -681.11246    37.658149   -643.45431    1142.4946    2476.3125    9.6391088   0.20198956 
   60000    -685.0333    43.631285   -641.40202     1323.711   -6223.2411    9.5827564    0.1879554 
   60100   -680.87938    42.525533   -638.35385    1290.1641     8551.364    9.6684426   0.19757829 
   60200   -679.19787    37.330882   -641.86698    1132.5658    -432.5533    9.5696354   0.22172284 
   60300   -684.00376    37.071387   -646.93237    1124.6931   -4831.7808    9.5811423   0.21218932 
   60400   -678.46753    37.867584   -640.59995    1148.8485    7800.3576    9.6349952   0.20870878 
   60500   -678.04564    39.189911   -638.85573    1188.9661    6522.0655    9.6053357    0.2191395 
   60600   -678.85325    38.946889   -639.90636    1181.5931   -5197.9551    9.4887939   0.23316252 
   60700   -681.43134    34.651267   -646.78007    1051.2701    477.23343    9.6114093   0.22051806 
   60800   -680.27692    38.738006   -641.53891    1175.2559    1773.9653    9.5970836    0.2198448 
   60900   -678.91478    41.267557   -637.64722    1251.9989    8928.2546    9.6605209   0.22688022 
   61000   -682.03395    39.939901   -642.09404    1211.7197    433.36285    9.6152295   0.22246596 
   61100   -681.63299    36.981685    -644.6513    1121.9716   -6637.1576     9.534081   0.23131018 
   61200   -678.36545    39.246126   -639.11933    1190.6716   -3056.2493    9.4989425   0.24520775 
   61300   -680.01548    40.822719   -639.19277    1238.5031     6317.623     9.634756    0.2014167 
   61400   -681.43121     35.61413   -645.81708    1080.4819    3401.5888    9.6310519     0.212143 
   61500   -677.71677    37.123507   -640.59326    1126.2743   -6658.1618    9.4691074    0.2421886 
   61600   -678.71979    39.581431   -639.13836    1200.8442   -7776.6033    9.4635816   0.27985386 
   61700   -683.78458    38.491742   -645.29284    1167.7846    4763.0988    9.6927737   0.18591677 
   61800   -682.59234    39.281752   -643.31059    1191.7524    10749.543    9.7199979   0.18968991 
   61900   -679.21646     40.24421   -638.97225     1220.952    -9243.867    9.4564954   0.22659262 
   62000    -676.7324    35.992303   -640.74009    1091.9552   -5294.9847    9.4550337   0.25038799 
   62100   -685.27094     38.38049   -646.89045    1164.4094    3869.7945    9.6991896   0.17385766 
   62200    -679.3329    38.532853   -640.80004    1169.0318    3756.3416    9.5918566   0.22853902 
   62300   -676.48035    37.990522   -638.48983    1152.5783   -2261.1528    9.4964843    0.2431536 
   62400   -684.14785    39.935414   -644.21244    1211.5836    2418.6327    9.6605592   0.21390184 
   62500   -681.08115    39.270743    -641.8104    1191.4184    2501.6502     9.609762   0.19879394 
   62600   -676.98132    38.201675   -638.77965    1158.9844   -7305.5043     9.433971   0.24438752 
   62700    -681.5914    40.291535   -641.29987    1222.3878   -9941.1661    9.4844041   0.22632484 
   62800   -683.84327    37.209565   -646.63371    1128.8852    7878.3747    9.7279296   0.18316769 
   62900   -682.84837    41.188317   -641.66005    1249.5948    2990.1755    9.6353161   0.20653307 
   63000   -679.12437    41.085259   -638.03911    1246.4682   -5052.0925    9.4903623   0.24606289 
   63100   -680.24528    42.287392   -637.95788    1282.9392    135.79169    9.5606867   0.21481706 
   63200   -684.42815    39.591629   -644.83652    1201.1536    8099.4398    9.7288905   0.15920401 
   63300    -678.7949    37.477205    -641.3177     1137.005   -463.64348    9.5573545   0.21338966 
   63400   -675.30184    38.628021   -636.67382    1171.9191   -6779.6617    9.4123506   0.26220373 
   63500   -681.41032    39.305882   -642.10444    1192.4845   -6599.7595    9.5180909   0.25411161 
   63600   -683.52753    39.602201   -643.92533    1201.4744    13390.121    9.7773598   0.19197077 
   63700   -680.93922    43.976645   -636.96257    1334.1887   -4124.4849    9.5384357   0.22282058 
   63800   -679.92822    41.066243   -638.86198    1245.8913   -4110.3348    9.5033107   0.21478567 
   63900   -682.45456    37.421947   -645.03261    1135.3286    2033.6407    9.6324787   0.20077743 
   64000   -677.18678    37.370926   -639.81585    1133.7807    7.5545952    9.5201592   0.24015557 
   64100   -678.48285    41.157576   -637.32527    1248.6622    2314.4763    9.5642964   0.22810717 
   64200   -681.93254    39.165026   -642.76751    1188.2111    1005.1773    9.6134103   0.22090267 
   64300   -680.57452    37.534076   -643.04045    1138.7304    2942.8621    9.6329599   0.20744179 
   64400   -677.13746     41.58949   -635.54797    1261.7659    2684.3325    9.5456411   0.23918446 
   64500   -679.16562    38.853658   -640.31197    1178.7646    6605.5595    9.6205352    0.2447961 
   64600   -681.51089    40.444409   -641.06648    1227.0258    -7148.901    9.5264915   0.22857699 
   64700   -682.78435    42.843701   -639.94065    1299.8168   -6076.5622    9.5341184   0.21191849 
   64800   -675.98933    42.899703   -633.08963    1301.5159   -1700.5451    9.4759914    0.2729877 
   64900   -679.78329    40.460744   -639.32255    1227.5213    8961.6682    9.6585106   0.21077913 
   65000    -681.5377    40.510985   -641.02671    1229.0456    3180.3921    9.6359211   0.21580947 
   65100   -677.43061    39.687333   -637.74327    1204.0571    979.15447    9.5363128   0.24360413 
   65200    -675.8959    42.863591   -633.03231    1300.4203   -5783.4366    9.4159828   0.27714014 
   65300    -682.7253    41.296494    -641.4288    1252.8768    5768.2599     9.668949   0.19177604 
   65400   -681.65924    40.890193   -640.76904    1240.5502   -55.500817    9.5910429   0.19930002 
   65500   -678.19245    40.557368   -637.63508    1230.4528   -17056.047    9.3536462   0.27387339 
   65600   -676.54336    39.005902   -637.53746    1183.3835   -4989.2075    9.4455319   0.29060249 
   65700   -686.06925    40.886583   -645.18267    1240.4407   -895.40562    9.6575843   0.16668746 
   65800   -682.86858    39.737717   -643.13087    1205.5857     20.85796    9.6075546   0.19093838 
   65900   -680.70856    40.764981   -639.94358    1236.7514    4106.6622    9.6165682    0.1815306 
   66000   -682.12608    41.084642   -641.04144    1246.4495    115.66642    9.6155764   0.19537261 
   66100   -687.15626    39.983831   -647.17243    1213.0525    1501.8644    9.7125828   0.17158328 
   66200   -680.38562    40.051769   -640.33386    1215.1136   -2630.1651    9.5487246   0.23148431 
   66300   -678.47603    40.140491   -638.33554    1217.8053    4296.9252    9.5917756   0.21112239 
   66400   -685.06313    42.192727   -642.87041    1280.0672   -1738.5073    9.6275126   0.19754082 
   66500   -679.29033    37.266497   -642.02383    1130.6124   -3165.9186    9.5277785   0.24486395 
   66600   -676.94425    38.916936   -638.02731    1180.6844   -12004.327    9.3791914   0.29295671 
   66700   -680.08578    40.097362   -639.98842    1216.4968    2732.8951    9.5948872   0.20662532 
   66800   -684.48757    41.072903   -643.41467    1246.0934     10956.07     9.756946   0.16972241 
   66900   -680.29703    42.574246   -637.72279     1291.642   -8038.8107    9.4816537   0.22638256 
   67000    -678.0239    41.081362   -636.94253      1246.35   -3211.3288    9.5090301   0.23588329 
   67100   -683.70326    40.986309   -642.71695    1243.4662    1975.8134     9.652259    0.1697984 
   67200   -682.24221    39.399342   -642.84286    1195.3199   -2500.7976    9.5751119   0.19677733 
   67300   -678.02009    41.867165   -636.15292    1270.1901   -3152.3191    9.4930444   0.25539695 
   67400   -678.48957    38.520577   -639.96899    1168.6594    861.41266    9.5593601   0.25509484 
   67500   -681.01549    38.994276   -642.02121    1183.0308    3647.8082    9.6361415   0.20755374 
   67600   -681.12537    36.659511   -644.46586    1112.1973    8601.1218    9.6982737   0.18410425 
   67700   -687.29732    34.541599   -652.75572    1047.9429   -10615.365    9.5939661   0.17579356 
   67800   -682.24606     35.27856    -646.9675    1070.3013   -8440.0382    9.5298054   0.19953839 
   67900   -682.45864    39.931487   -642.52716    1211.4644     697.2029    9.6131921   0.22716312 
   68000   -681.40288    41.655493   -639.74739    1263.7683    4413.7133    9.6270661   0.20983321 
   68100   -680.52252    40.622818    -639.8997    1232.4384   -2211.7032    9.5540108   0.22231851 
   68200    -684.5911    36.442515   -648.14858     1105.614    680.14033    9.6540337   0.19473093 
   68300    -682.7646    40.264724   -642.49988    1221.5744   -8927.0603    9.5323685   0.19850375 
   68400   -681.18603    40.055437   -641.13059    1215.2249    2966.7075    9.6149117   0.20935821 
   68500   -683.17431    42.314447   -640.85986      1283.76    6263.6587    9.6713352   0.18544918 
   68600   -682.65826    34.082532   -648.57573    1034.0154   -1119.6075    9.6264883   0.20018455 
   68700   -681.43088    37.539149   -643.89173    1138.8843   -10477.192    9.4826509   0.23450858 
   68800   -681.39658    40.817147   -640.57944    1238.3341   -2061.3775     9.575326   0.19661454 
   68900   -681.52126    40.605659    -640.9156    1231.9178    10738.793      9.72479   0.19978619 
   69000   -677.79876    39.710052   -638.08871    1204.7464    3632.4812    9.5728507   0.23190234 
   69100    -674.9029     44.23285   -630.67005    1341.9616   -3825.5027    9.4030826   0.29469544 
   69200   -679.01939    42.983104   -636.03628    1304.0461    2729.3889    9.5749761   0.24041332 
   69300   -680.71987    40.771787   -639.94808    1236.9579    8377.8507    9.6751553   0.20898463 
   69400   -683.07504    40.003297   -643.07174     1213.643   -10716.644    9.5103366    0.1986891 
   69500   -677.84325     40.07602   -637.76723    1215.8494    1723.1314    9.5599193   0.22783419 
   69600   -677.46869    40.064709   -637.40398    1215.5062    12389.181     9.661793    0.2126153 
   69700   -683.56234    42.056437   -641.50591    1275.9324   -9941.3673    9.5073027   0.22341652 
   69800   -680.12801    38.090328   -642.03768    1155.6063   -8219.3828    9.4823762   0.25089331 
   69900   -674.24544    40.933516   -633.31193    1241.8645    461.96544    9.4557956    0.2724425 
   70000   -679.26614    41.931878   -637.33426    1272.1534   -4573.4215    9.4972107    0.2462673 
   70100   -678.50652    37.135771   -641.37075    1126.6464    3366.5614     9.592212   0.25917294 
   70200   -676.39616    36.426728   -639.96943     1105.135    2232.6537    9.5358947   0.24634071 
   70300   -680.24389    41.635493    -638.6084    1263.1615   -8924.7671    9.4761066   0.25603847 
   70400   -670.65534    41.074276   -629.58107     1246.135    3847.4026    9.4603382   0.26747559 
   70500   -675.56733    41.400772   -634.16656    1256.0404    6891.0694    9.5691049   0.25682098 
   70600    -678.9237    40.561461   -638.36224    1230.5769    634.06544    9.5404151   0.23367703 
   70700   -682.24886    40.758859      -641.49    1236.5657     7387.603    9.6897247   0.19072877 
   70800   -683.76016    39.747007   -644.01315    1205.8675    8054.4933    9.7122812   0.14949284 
   70900    -675.5012    39.129825   -636.37138    1187.1431   -7879.5754    9.4120097   0.24978584 
   71000   -676.20174     37.79605   -638.40569    1146.6783    2061.7083    9.5338687    0.2437837 
   71100   -681.28792    38.795253   -642.49266    1176.9927    1551.0307    9.6090056   0.20515094 
   71200   -681.38062    37.946082   -643.43454    1151.2301     2414.539    9.6309053   0.19341645 
   71300   -672.48101    37.166422   -635.31459    1127.5763    3791.9837    9.4741578   0.29118385 
   71400   -679.31949    40.141269   -639.17822    1217.8289   -4758.3283    9.4898648   0.23880922 
   71500   -680.69632    38.629284   -642.06703    1171.9575    3559.1044      9.62212   0.21030112 
   71600   -680.07177    41.552188   -638.51958    1260.6342    7061.7907    9.6476575   0.20982211 
   71700   -676.31585    41.499507   -634.81635    1259.0359   -3933.0051    9.4480276   0.28535901 
   71800   -680.71255    37.976276   -642.73627    1152.1461   -837.92748    9.5799865   0.21892418 
   71900   -682.30199    39.928094   -642.37389    1211.3615    4629.3068    9.6580099   0.20005713 
   72000   -678.75127    42.607575    -636.1437    1292.6531   -1283.5557    9.5277945   0.25405215 
   72100   -677.20888    37.674905   -639.53397     1143.003   -1264.7647    9.5223683   0.26544181 
   72200   -683.28293    39.150773   -644.13215    1187.7787    1230.6701     9.643303   0.21965851 
   72300   -678.72911    40.781977   -637.94713    1237.2671    19657.963    9.7764448   0.20015119 
   72400   -680.16266    40.835984   -639.32668    1238.9056   -2593.3735    9.5516197   0.20653852 
   72500   -682.37092     37.96512    -644.4058    1151.8076   -10673.848    9.4863395   0.21976502 
   72600   -677.05876    38.063992   -638.99477    1154.8073   -2704.1823    9.4901633   0.23368062 
   72700   -676.44455    40.056219   -636.38833    1215.2486    5756.6429    9.5668327   0.23323959 
   72800   -680.62322    38.626221     -641.997    1171.8645    1294.3475    9.5995282   0.19982521 
   72900   -681.49334    35.827106   -645.66624    1086.9433    810.80603    9.6029064   0.21765574 
   73000    -678.5326    39.936994    -638.5956    1211.6315   -280.61509     9.540795   0.24310205 
   73100   -678.86884    41.027096   -637.84174    1244.7036    2496.1885    9.5821147   0.23671128 
   73200   -684.47449    39.975381   -644.49911    1212.7961     13790.53    9.7949467   0.17403862 
   73300   -681.81694    38.661422   -643.15552    1172.9324    -3369.491     9.565716   0.20769251 
   73400   -675.36457    37.375198   -637.98937    1133.9102   -5833.2464    9.4260182   0.26051052 
   73500   -680.54875     41.62181   -638.92694    1262.7464    254.99827    9.5872121   0.21641109 
   73600   -683.55715    38.077863   -645.47929    1155.2281    6543.5853    9.6960903   0.18429812 
   73700   -679.89969    39.458711   -640.44098    1197.1211    -4475.813    9.5168906   0.23518669 
   73800   -677.76106    40.525215   -637.23584    1229.4773   -2823.1154      9.48174   0.26481869 
   73900    -681.8514    39.082032   -642.76937    1185.6932   -6334.8182    9.5342386   0.22183365 
   74000   -681.94728    38.345287   -643.60199    1163.3414    8503.7648     9.695308   0.17848061 
   74100   -680.13008     43.59982   -636.53026    1322.7564    4214.5455     9.605863   0.21732331 
   74200    -679.5941     39.69601   -639.89809    1204.3204   -158.27539    9.5730995   0.23516792 
   74300    -681.2469    35.997211   -645.24969    1092.1041    2547.8619    9.6232519   0.21143405 
   74400   -679.29429    39.937384    -639.3569    1211.6433   -7636.4144    9.4867912   0.24316713 
   74500   -678.77685    42.265794   -636.51106     1282.284    1163.6514    9.5541288   0.24966118 
   74600   -680.79521    37.659839   -643.13537    1142.5459    9342.4889    9.6908128   0.19423053 
   74700   -680.08049    36.895662   -643.18483    1119.3618   -5534.5397     9.517119   0.19598175 
   74800   -677.02605    41.197761   -635.82829    1249.8814   -3607.3667    9.4729585   0.24322292 
   74900   -680.14992    40.419071   -639.73085     1226.257    11917.212    9.7025937   0.17748107 
   75000   -682.63942    39.215477   -643.42394    1189.7417    6164.0141    9.6913511   0.19529082 
   75100   -679.93606    41.000029   -638.93603    1243.8824   -8150.4766    9.4731542   0.22574936 
   75200   -676.53914    41.253828   -635.28531    1251.5824    1788.9688    9.5226266   0.25378855 
   75300    -684.8612    42.001453   -642.85974    1274.2642   -4975.2664    9.5941563   0.19669375 
   75400   -680.55069       39.465   -641.08569    1197.3119    8539.6773    9.6783398   0.19164033 
   75500   -678.93352    40.031444   -638.90208     1214.497   -7987.3556    9.4566937   0.24185725 
   75600   -673.60429     42.58641   -631.01788     1292.011    2995.9077    9.4778569   0.26652369 
   75700   -679.59722    41.944874   -637.65235    1272.5477    3261.6119    9.6007871   0.23869121 
   75800   -678.18269     36.88965   -641.29304    1119.1794      7453.56    9.6196833   0.22071699 
   75900   -680.68569    39.967645   -640.71804    1212.5614   -7586.1649    9.4850556   0.22243185 
   76000   -674.69329    40.356855   -634.33644    1224.3695    1593.5606    9.4859369   0.27277535 
   76100   -679.45153    38.937531     -640.514    1181.3092    -4511.966     9.515882      0.22501 
   76200   -681.75799    38.797372   -642.96062     1177.057    1706.4205    9.6118755   0.21126327 
   76300   -678.38357    40.642251   -637.74132     1233.028    7459.0717    9.6139255   0.21635706 
   76400   -677.21201    40.348329   -636.86368    1224.1108    -7436.761    9.4366785   0.23626669 
   76500   -682.98651    37.723321   -645.26319    1144.4718    117.91497    9.6168738   0.20436186 
   76600   -683.22196    41.289082   -641.93288    1252.6519    6044.6094    9.6835332   0.17695514 
   76700   -677.17796    38.170418   -639.00754    1158.0361    2914.9681    9.5514792    0.2360644 
   76800   -675.84562    39.772544   -636.07307    1206.6423   -5589.8836    9.4283643   0.28798805 
   76900   -683.32462    39.416403   -643.90822    1195.8375   -4799.6224    9.5816637   0.20309827 
   77000   -683.84768    41.192399   -642.65529    1249.7187    -7306.281    9.5449302   0.20819717 
   77100   -676.87144    39.707119   -637.16432    1204.6574    6169.6579    9.5774471   0.24560934 
[...]
  481400   -675.60007      40.3553   -635.24477    1224.3223    2666.5376    9.5120705   0.23879979 
  481500   -680.96125    39.517331   -641.44392    1198.8995    585.83326    9.5785519   0.22689366 
  481600   -680.24754    37.690717   -642.55682    1143.4826   -5551.9343    9.5095831   0.24024295 
  481700   -678.79739    38.913288    -639.8841    1180.5737    2956.4519    9.5728278   0.21532205 
  481800   -679.51893    40.046675   -639.47226    1214.9591   -914.82154    9.5547146   0.23947797 
  481900   -678.07943    38.990835    -639.0886    1182.9264   -1801.3321     9.513486   0.26773892 
  482000    -686.1168    38.805917   -647.31088    1177.3162   -4951.2314    9.6331109   0.19017571 
  482100   -681.71239    37.352447   -644.35994      1133.22    1835.8086    9.6108754   0.18544346 
  482200   -682.55505    40.997704   -641.55735    1243.8119   -4472.1411    9.5742365   0.19874348 
  482300   -677.89092    38.742873   -639.14804    1175.4036     5057.504    9.5993636   0.24402783 
  482400   -675.42343    41.712694   -633.71073    1265.5037    2971.0096     9.508743   0.27100795 
  482500   -681.17215    39.749405   -641.42274    1205.9403    11531.041    9.7287108   0.21040335 
  482600   -681.54498    39.133458   -642.41153    1187.2534   -9388.0027    9.4964835   0.21849797 
  482700   -676.82313    37.918829    -638.9043    1150.4032   -5593.5829    9.4603456   0.26371086 
  482800     -675.553     44.22832   -631.32468    1341.8242    611.01732    9.4885135   0.28918646 
  482900   -677.05117     41.26458   -635.78659    1251.9086     7095.993    9.5997955   0.23383165 
  483000   -680.20772    39.779217    -640.4285    1206.8448   -1342.5756    9.5542934   0.24865908 
  483100   -678.06873    37.440688   -640.62804    1135.8971   -408.94165    9.5365353   0.23670157 
  483200   -683.20229    36.559355   -646.64293    1109.1587   -568.96054    9.6222662   0.21233133 
  483300     -682.439    40.054571   -642.38443    1215.1986   -5398.8921     9.540136   0.21402256 
  483400   -678.30329    38.754501   -639.54879    1175.7563   -354.25291    9.5366963    0.2343673 
  483500   -684.01993    43.908808   -640.11112    1332.1307    2957.1918     9.648015   0.18654572 
  483600   -683.76155    37.456394   -646.30516    1136.3736   -1586.4999     9.626691   0.20993053 
  483700   -676.48638     37.27739   -639.20899    1130.9429    -2872.331    9.4981095    0.2423553 
  483800   -678.29031    39.181784   -639.10853    1188.7195    7845.5915    9.6335689   0.24216926 
  483900   -681.30728    42.200778   -639.10651    1280.3115   -4425.7582    9.5393968    0.1949153 
  484000   -683.77153     36.43856   -647.33297     1105.494   -475.99426    9.6281529   0.19643566 
  484100   -682.31997    39.506392   -642.81358    1198.5677   -6793.7741    9.5337902   0.22117283 
  484200    -681.8185    41.697359   -640.12114    1265.0385   -1873.1119    9.5699038   0.21864122 
  484300   -680.36809    39.397009   -640.97108    1195.2491    7000.9521    9.6563796    0.2102839 
  484400   -685.62638    36.925995   -648.70038    1120.2821    3098.0725    9.7036923   0.15596518 
  484500    -682.1643    38.198348   -643.96595    1158.8834   -6067.8371    9.5341591   0.20556219 
  484600   -680.43583    40.292326    -640.1435    1222.4118   -5060.8608    9.5146456   0.22855976 
  484700   -678.76201     39.82832   -638.93369    1208.3345    2442.0068     9.574477   0.22315738 
  484800   -683.37126    38.443825   -644.92743    1166.3309    1865.1395    9.6397174   0.20481564 
  484900   -684.42592    39.732408   -644.69351    1205.4246    323.39604    9.6382841   0.18377155 
  485000   -679.57523    40.306573   -639.26866     1222.844     1512.731    9.5651315   0.20168621 
  485100   -679.72392    40.608298   -639.11562    1231.9979    2433.7474    9.5921864     0.205602 
  485200   -684.69537    38.578417   -646.11695    1170.4142   -2097.8616    9.6323051   0.16238053 
  485300   -681.02222    40.048201   -640.97402    1215.0054    -1972.667    9.5613216    0.2354308 
  485400   -679.26652    39.353195   -639.91333    1193.9199   -2188.5116    9.5280896   0.23010939 
  485500   -678.79544    37.230305   -641.56513    1129.5144   -824.22551     9.541053   0.21196776 
  485600    -686.5796    38.461667   -648.11794    1166.8722   -1758.1271    9.6577858   0.16740782 
  485700   -684.13359    40.484417   -643.64917    1228.2395    5020.4834    9.7010192   0.18835752 
  485800   -680.14093    39.909517   -640.23142    1210.7979     4505.034    9.6252069   0.19871228 
  485900   -680.61822    40.181232   -640.43699    1219.0413   -1140.4883    9.5715845   0.22154435 
  486000   -674.06871    39.831875   -634.23683    1208.4423   -3270.6475    9.4471539   0.26380965 
  486100    -675.6849    38.339349   -637.34555    1163.1612   -5875.7848    9.4397118   0.29386601 
  486200   -679.94443     37.94244   -642.00199    1151.1196   -4626.4347    9.5216991   0.20335514 
  486300   -681.76101     40.93239   -640.82862    1241.8304     13565.65    9.7442725   0.17207632 
  486400   -676.60553    42.160537   -634.44499    1279.0906    8867.2418    9.5977516   0.23780622 
  486500   -680.06491    39.297578   -640.76734    1192.2325   -5699.6395    9.5087516   0.22566531 
  486600   -682.25742    39.479602   -642.77782    1197.7549   -9381.4187    9.5085814   0.24034601 
  486700   -678.85553    40.200645   -638.65489    1219.6303   -529.05012     9.528517   0.24335889 
  486800   -678.09352    43.970094   -634.12343      1333.99    855.86572    9.5266004   0.23080648 
  486900   -685.12096    43.161669   -641.95929    1309.4635   -2402.9198    9.6242803   0.18324351 
  487000   -679.85476    38.823837   -641.03092    1177.8599    2918.8949    9.6056405   0.22303252 
  487100   -677.44442    39.920511   -637.52391    1211.1314   -3035.5681    9.4868924   0.22958403 
  487200    -680.6275    36.383875   -644.24362    1103.8349   -3717.7282    9.5478192   0.22960256 
  487300   -681.33318    38.628628   -642.70455    1171.9375    9622.1176    9.6964226   0.18502273 
  487400   -682.04208    43.623687   -638.41839    1323.4805    11266.447    9.7271691   0.18269563 
  487500   -679.95228    41.074704   -638.87757     1246.148   -3183.9736    9.5173972   0.22941718 
  487600   -672.76361    39.929863   -632.83374    1211.4152   -9132.2195    9.3228933   0.27745994 
  487700   -672.95914    40.204554   -632.75459    1219.7489    24.219601    9.4116426   0.34293387 
  487800    -676.0273    38.224845   -637.80246    1159.6873    -2892.886    9.4780855   0.26621928 
  487900   -680.10043    40.601595   -639.49883    1231.7945    609.44261     9.579197   0.20013949 
  488000   -682.99723    38.953899   -644.04333    1181.8058    5208.0551    9.6741323   0.17438799 
  488100   -680.55054    39.518934   -641.03161    1198.9482     6276.058    9.6410932   0.21928152 
  488200   -678.23289    41.960683   -636.27221    1273.0273   -4522.1136    9.4951801   0.25692475 
  488300   -680.94401    40.181825   -640.76219    1219.0593   -518.51181    9.5807424   0.22425269 
  488400   -681.23535     38.88658   -642.34876    1179.7634   -4104.4844    9.5515166   0.20061515 
  488500   -677.75048    42.941899   -634.80858     1302.796    1498.1053    9.5338939   0.23815954 
  488600   -677.89492    41.663815   -636.23111    1264.0208    1651.9751    9.5454364   0.24368459 
  488700   -678.78127    37.432646   -641.34862    1135.6531   -172.06164    9.5567269   0.21079113 
  488800   -684.28827    40.692799   -643.59548    1234.5615   -8057.4247    9.5553651   0.23252716 
  488900   -676.97614      40.5481   -636.42804    1230.1716    9581.0249    9.6201896   0.23088806 
  489000   -681.78023    41.510185   -640.27005    1259.3599   -4317.9893    9.5421479   0.21851013 
  489100   -679.99037    39.434424   -640.55595    1196.3842   -8630.5558    9.4785759   0.24288078 
  489200   -677.70862    42.039603   -635.66902    1275.4217    10872.592    9.6315689   0.24000779 
  489300   -679.73229    38.996169   -640.73612    1183.0882    3225.6439    9.6076504   0.22753663 
  489400   -681.17052    37.975227   -643.19529    1152.1143    1460.5588    9.6008973   0.20588556 
  489500    -674.3188    37.245634   -637.07317    1129.9795    -2380.198    9.4406718   0.27609237 
  489600   -680.17954    42.541733   -637.63781    1290.6556   -1399.8987    9.5639528   0.21049849 
  489700   -681.42547    39.259649   -642.16582    1191.0818     5698.013    9.6554446   0.22105229 
  489800   -679.07873    41.073975   -638.00475    1246.1259   -2103.6415    9.5401267   0.20700898 
  489900   -678.92581    38.528169   -640.39765    1168.8897    11187.404     9.674608    0.1933185 
  490000   -684.72669    39.708753   -645.01794     1204.707   -785.35165    9.6378089   0.19740926 
  490100   -680.54139    41.397247   -639.14415    1255.9335   -8970.1612    9.4752285   0.23982211 
  490200    -678.7859    39.291195   -639.49471    1192.0389   -1340.2539    9.5523815   0.23213252 
  490300   -682.97096    39.629138   -643.34182    1202.2916    3626.3384    9.6501146   0.19556839 
  490400   -684.04924    37.112185   -646.93705    1125.9308   -5983.2769    9.5630187   0.21965536 
  490500   -676.77004    37.807897   -638.96215    1147.0377   -10471.905    9.4021261   0.25525748 
  490600   -679.18391     39.55793   -639.62598    1200.1312   -4309.1264    9.5107583   0.22924663 
  490700   -682.69782    40.608939   -642.08888    1232.0174    7977.6313    9.6904326   0.17494235 
  490800    -683.5142    37.899763   -645.61444    1149.8248    4536.9507    9.6917916   0.19193794 
  490900   -679.54293    39.550691   -639.99224    1199.9116   -3050.3027    9.5192565   0.24188037 
  491000    -678.5968    40.494169   -638.10263    1228.5354   -8013.1153    9.4605903   0.23030796 
  491100    -684.8361    39.541037   -645.29506    1199.6187    2659.6189    9.6857052   0.18647574 
  491200   -681.36113    37.951484   -643.40965    1151.3939    3078.4866    9.6302092   0.20242872 
  491300   -678.39721     38.83783   -639.55938    1178.2844   -6333.3529    9.4737012   0.21986488 
  491400   -679.14953    39.692444   -639.45709    1204.2122   -6409.5352    9.4896244   0.21575088 
  491500   -685.55627    38.561111   -646.99516    1169.8892    6595.5393     9.732933   0.16755866 
  491600   -682.08306    39.853281   -642.22978    1209.0918    4934.1938    9.6448211   0.18918318 
  491700   -676.52641    38.115689   -638.41072    1156.3757    207.67924    9.5198516   0.23536299 
  491800   -678.91958     38.78444   -640.13514    1176.6646   -5468.3703    9.4937091   0.23835856 
  491900   -679.89166    34.179609   -645.71205    1036.9606    2195.1844    9.6072521   0.19329257 
  492000   -681.69928    42.990617   -638.70866    1304.2741    474.38759    9.5960183   0.19187361 
  492100   -679.22131     41.06723   -638.15408    1245.9212    10129.706    9.6731201   0.22874812 
  492200   -681.24246    39.534652   -641.70781     1199.425   -3671.9646    9.5553162    0.2253542 
  492300   -681.58522    36.738469   -644.84675    1114.5928     3587.812    9.6418887   0.21265818 
  492400   -678.85003     38.85696   -639.99307    1178.8648   -4276.7093    9.5111241   0.24431227 
  492500   -678.91938    41.418324   -637.50105    1256.5729   -4858.2313    9.4946526   0.21483719 
  492600   -681.12701     38.05883   -643.06818    1154.6507    6905.8427    9.6745983    0.1858983 
  492700    -683.1403    40.321731   -642.81857    1223.3039    609.18728    9.6395831   0.21280935 
  492800   -677.89583    42.019307   -635.87652    1274.8059    509.86041    9.5241914   0.25926948 
  492900   -680.80515    40.774059    -640.0311    1237.0268    3466.2553    9.6086091   0.22146342 
  493000    -680.9391    36.087382   -644.85172    1094.8398     572.5405    9.6091119    0.2293521 
  493100   -674.97384    36.880268   -638.09357    1118.8948    1840.6065    9.5233446   0.25104901 
  493200   -680.46714    41.699957   -638.76718    1265.1173    1299.5216    9.5794104   0.21588616 
  493300   -682.60549    38.396942   -644.20855    1164.9085     10330.05    9.7390435   0.20281972 
  493400   -679.46343     41.09358   -638.36985    1246.7207   -7462.0502    9.4665251   0.24726695 
  493500   -674.05532    36.734601   -637.32072    1114.4755    1346.3542    9.4959258   0.23127759 
  493600     -683.463    40.666542   -642.79645    1233.7649    8715.4164    9.7315725   0.17031888 
  493700   -682.32066      38.7239   -643.59676     1174.828   -2630.7331    9.5788258   0.21231982 
  493800   -677.17888    40.774187   -636.40469    1237.0307    2863.4792    9.5544302   0.22730788 
  493900    -681.6503    42.654989   -638.99531    1294.0916    9623.4544    9.7048293    0.1809813 
  494000    -682.0494      39.5721   -642.47729    1200.5611    8458.0405    9.6984611   0.17265006 
  494100   -681.52248    41.660874    -639.8616    1263.9316   -870.95576    9.5704158   0.19367617 
  494200   -677.85669    43.638027   -634.21866    1323.9156   -594.87092    9.5152652   0.21822385 
  494300   -678.65473    37.593302   -641.06143    1140.5272   -2588.7081    9.5108652   0.23634233 
  494400   -677.66164    37.327953   -640.33369    1132.4769   -3323.5137     9.507922   0.24722285 
  494500    -678.3536    39.965496    -638.3881    1212.4962    -1757.893    9.5141322   0.26176253 
  494600   -684.76337    38.022383   -646.74099    1153.5449   -1292.6891    9.6470214    0.2003446 
  494700    -682.8003    40.054439   -642.74586    1215.1946   -8880.2129    9.5279113   0.20012705 
  494800   -678.57916    39.553398   -639.02576    1199.9937    9982.1952    9.6491477   0.19999507 
  494900   -680.04102    43.593124    -636.4479    1322.5533    11554.312    9.6856087   0.18676582 
  495000   -684.99092    40.916815   -644.07411    1241.3579   -3101.8953    9.6208667    0.1763203 
  495100   -683.31549    39.933375   -643.38212    1211.5217   -2354.9824    9.6020669   0.18897908 
  495200    -678.7181    42.006872   -636.71123    1274.4287   -4055.7397    9.4862693   0.24276837 
  495300    -679.0747    40.504754   -638.56994    1228.8565   -3768.3584    9.5076539   0.21999072 
  495400   -684.65757    40.039305   -644.61826    1214.7355    2781.0824    9.6719261   0.19636063 
  495500   -682.39757    42.184995   -640.21258    1279.8326    4927.6901    9.6620796   0.20324595 
  495600   -675.99768    41.352348   -634.64533    1254.5713    2201.9038    9.5261155   0.27671947 
  495700    -680.0241    40.458615   -639.56548    1227.4567   -6402.1135    9.4995761   0.22244409 
  495800   -680.96167     38.53152   -642.43015    1168.9914   -76.930155    9.5778312   0.21116571 
  495900   -680.16007    41.356629   -638.80344    1254.7012   -3608.7411    9.5198072    0.2163639 
  496000   -677.40184     42.06561   -635.33623    1276.2107   -623.39304    9.5131052   0.27390478 
  496100   -682.26228    38.762535   -643.49974    1176.0001    3868.0813    9.6481614   0.22601435 
  496200   -677.55489     36.98622   -640.56867    1122.1092   -7588.1898    9.4528848   0.25781005 
  496300   -675.87164    37.443508   -638.42814    1135.9827   -3531.8278    9.4657135   0.24466675 
  496400   -682.86839    38.197937   -644.67045     1158.871   -4766.6058    9.5649033   0.19320893 
  496500   -682.58614     39.80744    -642.7787     1207.701    7976.1561    9.6969623    0.1958014 
  496600    -679.7679    43.008537   -636.75936    1304.8177   -2648.1885    9.5250429   0.25189639 
  496700   -677.78435    39.681055   -638.10329    1203.8667    1491.1186    9.5517206   0.28322797 
  496800   -683.08294    37.625305   -645.45764    1141.4981   -656.98003    9.6139354    0.1913655 
  496900   -681.44369    39.247152   -642.19654    1190.7027    9609.2203    9.7057822   0.18858952 
  497000   -682.75193     43.51149   -639.24044    1320.0766    2204.1195    9.6209267   0.22187394 
  497100   -680.82502    42.373947   -638.45107    1285.5652   -11226.073    9.4543556   0.24983251 
  497200   -683.44016     36.92618   -646.51398    1120.2877   -942.18043     9.618849   0.20044439 
  497300   -681.94316     38.81854   -643.12462    1177.6992    -9009.826    9.5127676   0.20538182 
  497400   -678.15903    39.486427   -638.67261    1197.9619    9918.0311    9.6398797   0.20698711 
  497500   -680.44161    40.897233   -639.54438    1240.7638    13175.779    9.7241787   0.17846229 
  497600   -682.12207     36.89358   -645.22849    1119.2986   -3986.3706    9.5702614   0.19162315 
  497700   -675.93179    36.490092    -639.4417    1107.0574   -5443.5133    9.4357886   0.24331566 
  497800   -678.01881    39.696289   -638.32252    1204.3289   -2953.5876    9.4844361   0.23531486 
  497900   -684.03428     39.91259   -644.12169    1210.8911   -4789.4423    9.5972186   0.19693355 
  498000   -680.63626    39.673191   -640.96307    1203.6281    3119.4706    9.6117272   0.20610535 
  498100   -678.32868    40.673711   -637.65497    1233.9824    3509.8917    9.5759351   0.23219209 
  498200   -679.69456    36.428056   -643.26651    1105.1753    3304.1874    9.6137293   0.22267937 
  498300   -681.42159    38.485043   -642.93654    1167.5814    2820.9861     9.634281   0.21147501 
  498400   -679.54014    43.794005   -635.74613    1328.6477     277.5602    9.5532784   0.24303445 
  498500    -678.5426    38.353894    -640.1887    1163.6025    1240.8971    9.5519445    0.2155302 
  498600   -679.40708    35.641664   -643.76541    1081.3173    1154.2371    9.5736868   0.22151794 
  498700   -678.50135    40.826254    -637.6751    1238.6104   -5953.8031    9.4712473   0.22479854 
  498800   -678.13568    42.242299   -635.89338    1281.5712   -7196.3687    9.4489923   0.24377358 
  498900   -680.64617    37.148121   -643.49805    1127.0211    8733.9636      9.67283   0.21029003 
  499000   -678.86876    37.054685   -641.81408    1124.1863   -631.43055    9.5474233   0.21627508 
  499100   -676.55215    38.378472   -638.17368    1164.3481   -2038.9422    9.4703693   0.26464059 
  499200   -674.96444    39.532252   -635.43219    1199.3522    -8312.303    9.3958781   0.25036753 
  499300   -683.90842    41.667411   -642.24101    1264.1299    478.90591    9.6383952   0.19395788 
  499400   -681.82252     41.32554   -640.49698     1253.758     1878.754    9.6225271   0.20146278 
  499500   -678.84116    43.643939   -635.19722    1324.0949     360.8693    9.5541029    0.2136194 
  499600   -681.62048    39.595905   -642.02457    1201.2833   -598.17021    9.5906057   0.20598976 
  499700    -681.0855    39.040543   -642.04496    1184.4344   -17267.309    9.4081612   0.23349534 
  499800   -678.81352    40.146568   -638.66695    1217.9897    1137.0043    9.5723817   0.23221492 
  499900   -677.33824    43.286409   -634.05183     1313.248    749.34292    9.5353395   0.27778214 
  500000   -680.79639    38.455669   -642.34072    1166.6902    1255.3841     9.594744   0.25569587 
Loop time of 357.188 on 1 procs for 500000 steps with 256 atoms

Performance: 604.723 ns/day, 0.040 hours/ns, 1399.822 timesteps/s
100.0% CPU use with 1 MPI tasks x no OpenMP threads

MPI task timing breakdown:
Section |  min time  |  avg time  |  max time  |%varavg| %total
---------------------------------------------------------------
Pair    | 213.48     | 213.48     | 213.48     |   0.0 | 59.77
Neigh   | 13.514     | 13.514     | 13.514     |   0.0 |  3.78
Comm    | 3.8602     | 3.8602     | 3.8602     |   0.0 |  1.08
Output  | 0.16126    | 0.16126    | 0.16126    |   0.0 |  0.05
Modify  | 125.34     | 125.34     | 125.34     |   0.0 | 35.09
Other   |            | 0.8271     |            |       |  0.23

Nlocal:    256 ave 256 max 256 min
Histogram: 1 0 0 0 0 0 0 0 0 0
Nghost:    1431 ave 1431 max 1431 min
Histogram: 1 0 0 0 0 0 0 0 0 0
Neighs:    11695 ave 11695 max 11695 min
Histogram: 1 0 0 0 0 0 0 0 0 0

Total # of neighbors = 11695
Ave neighs/atom = 45.6836
Neighbor list builds = 24558
Dangerous builds = 0
    
Total wall time: 0:05:57
