LAMMPS (3 Mar 2020)

    # ---------- Initialize simulation ---------------------
    units metal
    atom_style atomic
    dimension  3
    boundary   p p p
    read_data /home/modeler/RemLabs/Lab4/Problem2A/temp_1120/lammps.data
  orthogonal box = (0 0 0) to (12.27 12.27 12.27)
  1 by 1 by 1 MPI processor grid
  reading atoms ...
  108 atoms
  read_data CPU = 0.000921646 secs

    pair_style eam
    pair_coeff * * /usr/share/lammps-stable/potentials/Ag_u3.eam
Reading potential file /usr/share/lammps-stable/potentials/Ag_u3.eam with DATE: 2007-06-11

    velocity  all create 1120 87287 dist gaussian

    # ---------- Describe computed properties------------------
    compute msdall all msd
    thermo_style custom step pe ke etotal temp press density c_msdall[4]
    thermo 100

    # ---------- Specify ensemble  ---------------------
    #fix  1 all nve
    fix  1 all nvt temp 1120 1120 0.05

    # --------- Compute RDF ---------------
    compute rdfall all rdf 100 1 1
    fix 2 all ave/time 1 2500 2500 c_rdfall[*] file /home/modeler/RemLabs/Lab4/Problem2A/temp_1120/lammps.rdf mode vector

    # --------- Run -------------
    timestep 0.001
    run 10000
Neighbor list info ...
  update every 1 steps, delay 10 steps, check yes
  max neighbors/atom: 2000, page size: 100000
  master list distance cutoff = 7.55
  ghost atom cutoff = 7.55
  binsize = 3.775, bins = 4 4 4
  2 neighbor lists, perpetual/occasional/extra = 1 1 0
  (1) pair eam, perpetual
      attributes: half, newton on
      pair build: half/bin/atomonly/newton
      stencil: half/bin/3d/newton
      bin: standard
  (2) compute rdf, occasional, copy from (1)
      attributes: half, newton on
      pair build: copy
      stencil: none
      bin: none
Per MPI rank memory allocation (min/avg/max) = 3.723 | 3.723 | 3.723 Mbytes
Step PotEng KinEng TotEng Temp Press Density c_msdall[4] 
       0       -307.8    15.490536   -292.30946         1120    8956.7207    10.472245            0 
     100   -297.93367    9.5077773    -288.4259    687.43333    38942.598    10.472245  0.060764704 
     200   -294.93684    15.861646   -279.07519    1146.8321    53191.927    10.472245  0.069854406 
     300   -291.55303    19.248141   -272.30489    1391.6832    66619.088    10.472245  0.081540233 
     400   -292.40339    14.674537   -277.72886    1061.0015    60793.069    10.472245  0.087086409 
     500   -294.36497     17.29283   -277.07214    1250.3099     57253.71    10.472245  0.065966701 
     600   -292.99299    14.200195    -278.7928    1026.7055    57752.643    10.472245  0.081310564 
     700   -291.68507    16.389503   -275.29557    1184.9973    64852.523    10.472245  0.086574426 
     800   -293.12335           16   -277.12335    1156.8354    59187.157    10.472245  0.074326012 
     900   -291.93652    13.478255   -278.45826    974.50765     61527.93    10.472245  0.082998725 
    1000   -291.27964    15.522537   -275.75711    1122.3138    66216.225    10.472245   0.07805709 
    1100   -292.86825    15.071669   -277.79658     1089.715    60820.058    10.472245  0.076707055 
    1200   -294.17325    12.764382   -281.40887    922.89302     54871.18    10.472245  0.077049486 
    1300   -292.72744    15.550664   -277.17678    1124.3474    61181.287    10.472245  0.068548764 
    1400   -293.78412    17.148025   -276.63609    1239.8401    59204.258    10.472245  0.065469417 
    1500   -293.42408    14.791044   -278.63303    1069.4252    58077.467    10.472245  0.086275621 
    1600   -292.59121    16.868141   -275.72307    1219.6039    62023.994    10.472245  0.086923849 
    1700    -292.5443      15.7288    -276.8155     1137.227    60608.547    10.472245   0.07968034 
    1800   -294.42145    13.943486   -280.47796    1008.1449    54034.583    10.472245  0.077545577 
    1900   -292.27471    14.806824   -277.46789    1070.5661    60743.169    10.472245  0.077012889 
    2000   -292.40159     15.42769    -276.9739    1115.4561    62133.666    10.472245   0.07272209 
    2100   -293.12763    12.116959   -281.01067    876.08292    56748.417    10.472245  0.079144781 
    2200   -292.47394    14.015849   -278.45809    1013.3769      60308.7    10.472245  0.081791005 
    2300   -292.08946    16.898473   -275.19098     1221.797    63552.187    10.472245  0.079251013 
    2400   -292.73471    14.945164   -277.78954    1080.5684    60083.026    10.472245  0.080223954 
    2500    -292.6436    14.835059   -277.80854    1072.6076    59734.307    10.472245  0.079225361 
    2600   -292.91382    17.605122    -275.3087    1272.8893    60589.412    10.472245  0.069762898 
    2700   -293.78425    15.925901   -277.85835    1151.4778    56422.993    10.472245  0.080329161 
    2800   -291.94948    16.330454   -275.61903    1180.7279    64209.466    10.472245  0.084757877 
    2900   -292.31233    14.840182   -277.47215     1072.978    61234.017    10.472245  0.076769511 
    3000   -293.91725    15.018929   -278.89832    1085.9018    55342.629    10.472245  0.074702434 
    3100   -294.82959    15.643807   -279.18578    1131.0819    53246.818    10.472245  0.075079211 
    3200   -291.60691    14.420812    -277.1861    1042.6566    63517.001    10.472245  0.086863925 
    3300   -293.01225    17.059535   -275.95271    1233.4421    61008.439    10.472245  0.081270532 
    3400    -291.9752    14.745931   -277.22927    1066.1634    62629.859    10.472245  0.091101122 
    3500   -292.13385      15.1332   -277.00065    1094.1639    62453.665    10.472245  0.088881607 
    3600   -293.59964    14.218361   -279.38128     1028.019    56602.804    10.472245  0.084275799 
    3700     -292.088    16.292357   -275.79565    1177.9734     62387.71    10.472245  0.077120262 
    3800   -292.33468    15.749586   -276.58509    1138.7299    61262.875    10.472245  0.082081681 
    3900   -294.21368    13.565017   -280.64866    980.78071    54129.908    10.472245  0.077765296 
    4000   -293.29905    15.723448    -277.5756      1136.84    58656.829    10.472245    0.0663873 
    4100   -292.50908    14.683314   -277.82576    1061.6361    60456.379    10.472245  0.078581102 
    4200   -290.51536    17.045835   -273.46953    1232.4516    68415.212    10.472245     0.091148 
    4300   -292.85501    14.735973   -278.11904    1065.4435    60356.268    10.472245  0.075361008 
    4400    -293.2367    14.518019   -278.71868    1049.6849    58212.019    10.472245  0.074910367 
    4500   -291.20438    15.519582    -275.6848    1122.1001    65577.243    10.472245  0.085273117 
    4600   -292.79183    16.118472   -276.67336    1165.4012    60932.884    10.472245  0.079146251 
    4700   -294.29033    15.790616   -278.49971    1141.6965    55705.972    10.472245  0.074495942 
    4800   -291.91559    17.238335   -274.67726    1246.3698    63625.075    10.472245  0.089382321 
    4900   -291.72929    16.913522   -274.81577     1222.885    64206.494    10.472245  0.082288554 
    5000   -293.67348    14.738459   -278.93502    1065.6232    56987.918    10.472245   0.07492375 
    5100   -291.33239    15.818894    -275.5135     1143.741    65564.725    10.472245   0.08692413 
    5200   -292.15108    15.608105   -276.54298    1128.5005     62924.89    10.472245  0.085726189 
    5300   -293.10065    14.072527   -279.02812    1017.4749    58300.288    10.472245  0.076049555 
    5400   -292.13186    14.977018   -277.15484    1082.8715    62941.289    10.472245  0.075126084 
    5500   -291.19427    15.945239   -275.24903    1152.8761    66460.026    10.472245  0.090304946 
    5600    -292.9469    15.270941   -277.67596    1104.1228    60573.753    10.472245  0.084625104 
    5700   -293.99552    14.453175   -279.54234    1044.9965    56107.336    10.472245  0.072616216 
    5800   -292.04233    16.554891   -275.48744    1196.9552    62886.241    10.472245  0.085486098 
    5900    -291.1126    16.011158   -275.10144    1157.6422    66505.399    10.472245   0.10288923 
    6000   -292.52965    15.453958    -277.0757    1117.3553     61735.14    10.472245  0.089668667 
    6100    -293.5381    14.480025   -279.05808    1046.9379    57085.593    10.472245  0.074864945 
    6200   -292.96172    15.314858   -277.64686    1107.2981    59697.702    10.472245  0.080693533 
    6300   -290.07986    15.340264   -274.73959     1109.135    68208.054    10.472245  0.096801514 
    6400   -291.19513    13.714002   -277.48112    991.55271    64072.579    10.472245  0.090981345 
    6500   -293.58522    16.472095   -277.11312    1190.9689    58314.042    10.472245  0.061120115 
    6600   -294.57031    14.134998   -280.43531    1021.9916    53962.314    10.472245  0.068941747 
    6700   -291.96027     14.64376   -277.31651    1058.7763    63136.436    10.472245  0.082884732 
    6800   -292.50443    15.774596   -276.72983    1140.5382     62167.56    10.472245  0.069076255 
    6900   -293.94371    13.040479   -280.90324    942.85544    55574.334    10.472245  0.069329555 
    7000   -293.12407    14.951424   -278.17264     1081.021    58299.066    10.472245  0.080486695 
    7100   -292.32436    16.040424   -276.28393    1159.7582    62135.078    10.472245  0.085392635 
    7200   -291.85736    18.047006   -273.81036    1304.8385    63136.112    10.472245  0.084224205 
    7300   -293.90546    15.845856    -278.0596    1145.6904    56702.547    10.472245   0.08321759 
    7400   -292.05942    14.730228   -277.32919     1065.028     61540.93    10.472245  0.080737153 
    7500   -292.52309    14.999477   -277.52361    1084.4954    60841.743    10.472245  0.076243295 
    7600   -292.59034    14.959252   -277.63109     1081.587    60691.525    10.472245  0.088232169 
    7700   -289.28301    15.314974   -273.96803    1107.3065    72992.072    10.472245  0.093348148 
    7800   -295.46371    17.543706      -277.92    1268.4487    52773.739    10.472245  0.060496917 
    7900    -293.0794    14.016555   -279.06284    1013.4279    59055.986    10.472245  0.073970375 
    8000   -292.15777    15.608833   -276.54893    1128.5532    61430.875    10.472245  0.097318575 
    8100   -290.50744    17.195667   -273.31177    1243.2847    68844.869    10.472245  0.091990109 
    8200   -292.72137    15.457914   -277.26346    1117.6414    60144.164    10.472245  0.068291834 
    8300   -293.44411    15.602349   -277.84176    1128.0843    57975.904    10.472245  0.072316586 
    8400   -292.45469    17.595506   -274.85918     1272.194    63360.757    10.472245  0.074237101 
    8500   -292.70207    15.083623   -277.61844    1090.5793    60500.364    10.472245  0.072328269 
    8600   -294.93195    16.152742   -278.77921     1167.879    54433.322    10.472245  0.063500285 
    8700   -291.97447    16.072999   -275.90148    1162.1134     62586.66    10.472245  0.076772647 
    8800   -291.75192    16.420246   -275.33167    1187.2201    65087.193    10.472245  0.071812254 
    8900   -292.75462    13.786898   -278.96773    996.82321    59802.921    10.472245  0.069759092 
    9000   -293.24699     16.63266   -276.61433    1202.5781    60002.913    10.472245  0.066362093 
    9100   -292.15146    13.389816   -278.76164    968.11334    62423.011    10.472245  0.070980233 
    9200   -294.66481    15.653495   -279.01131    1131.7823    53585.384    10.472245  0.064163013 
    9300   -291.11596    15.950662    -275.1653    1153.2681    65835.087    10.472245  0.082730082 
    9400   -292.28234    15.992753   -276.28959    1156.3114    62266.554    10.472245  0.077247768 
    9500   -292.22216    14.661384   -277.56078    1060.0505     61358.07    10.472245  0.069931233 
    9600   -293.13274     15.44868   -277.68406    1116.9738    58321.265    10.472245  0.074676585 
    9700   -291.56576     16.09002   -275.47574     1163.344    65338.056    10.472245  0.083346366 
    9800   -291.83509    15.868723   -275.96637    1147.3437    63788.599    10.472245  0.079755229 
    9900    -292.7892    14.922391   -277.86681    1078.9218     60769.66    10.472245  0.081639572 
   10000   -291.21612    15.595767   -275.62035    1127.6084    66487.152    10.472245  0.084740356 
Loop time of 2.08255 on 1 procs for 10000 steps with 108 atoms

Performance: 414.877 ns/day, 0.058 hours/ns, 4801.816 timesteps/s
100.0% CPU use with 1 MPI tasks x no OpenMP threads

MPI task timing breakdown:
Section |  min time  |  avg time  |  max time  |%varavg| %total
---------------------------------------------------------------
Pair    | 1.3831     | 1.3831     | 1.3831     |   0.0 | 66.41
Neigh   | 0          | 0          | 0          |   0.0 |  0.00
Comm    | 0.04203    | 0.04203    | 0.04203    |   0.0 |  2.02
Output  | 0.0016985  | 0.0016985  | 0.0016985  |   0.0 |  0.08
Modify  | 0.64611    | 0.64611    | 0.64611    |   0.0 | 31.03
Other   |            | 0.009617   |            |       |  0.46

Nlocal:    108 ave 108 max 108 min
Histogram: 1 0 0 0 0 0 0 0 0 0
Nghost:    990 ave 990 max 990 min
Histogram: 1 0 0 0 0 0 0 0 0 0
Neighs:    4644 ave 4644 max 4644 min
Histogram: 1 0 0 0 0 0 0 0 0 0

Total # of neighbors = 4644
Ave neighs/atom = 43
Neighbor list builds = 0
Dangerous builds = 0
    
Total wall time: 0:00:02
