LAMMPS (3 Mar 2020)

    # ---------- Initialize simulation ---------------------
    units metal
    atom_style atomic
    dimension  3
    boundary   p p p
    read_data /home/modeler/RemLabs/Lab4/Problem2A_size_5/temp_2200/lammps.data
  orthogonal box = (0 0 0) to (20.45 20.45 20.45)
  1 by 1 by 1 MPI processor grid
  reading atoms ...
  500 atoms
  read_data CPU = 0.00127217 secs

    pair_style eam
    pair_coeff * * /usr/share/lammps-stable/potentials/Ag_u3.eam
Reading potential file /usr/share/lammps-stable/potentials/Ag_u3.eam with DATE: 2007-06-11

    velocity  all create 2200 87287 dist gaussian

    # ---------- Describe computed properties------------------
    compute msdall all msd
    thermo_style custom step pe ke etotal temp press density c_msdall[4]
    thermo 100

    # ---------- Specify ensemble  ---------------------
    #fix  1 all nve
    fix  1 all nvt temp 2200 2200 0.25

    # --------- Compute RDF ---------------
    compute rdfall all rdf 100 1 1
    fix 2 all ave/time 1 25000 25000 c_rdfall[*] file /home/modeler/RemLabs/Lab4/Problem2A_size_5/temp_2200/lammps.rdf mode vector

    # --------- Run -------------
    timestep 0.005
    run 100000
Neighbor list info ...
  update every 1 steps, delay 10 steps, check yes
  max neighbors/atom: 2000, page size: 100000
  master list distance cutoff = 7.55
  ghost atom cutoff = 7.55
  binsize = 3.775, bins = 6 6 6
  2 neighbor lists, perpetual/occasional/extra = 1 1 0
  (1) pair eam, perpetual
      attributes: half, newton on
      pair build: half/bin/atomonly/newton
      stencil: half/bin/3d/newton
      bin: standard
  (2) compute rdf, occasional, copy from (1)
      attributes: half, newton on
      pair build: copy
      stencil: none
      bin: none
Per MPI rank memory allocation (min/avg/max) = 3.769 | 3.769 | 3.769 Mbytes
Step PotEng KinEng TotEng Temp Press Density c_msdall[4] 
       0        -1425    141.90179   -1283.0982         2200    17722.525    10.472245            0 
     100   -1332.6539    89.415021   -1243.2388    1386.2619    79263.332    10.472245   0.11805957 
     200   -1306.1334    125.93531   -1180.1981    1952.4608    102259.71    10.472245   0.18063058 
     300   -1278.5005    151.66314   -1126.8374    2351.3368    123192.33    10.472245    0.2099473 
     400   -1277.5236    149.74225   -1127.7813     2321.556    123843.97    10.472245    0.2243706 
     500   -1286.7912    134.79529   -1151.9959    2089.8232    115185.64    10.472245   0.21344514 
     600   -1284.5955    148.51215   -1136.0834    2302.4849    119271.84    10.472245   0.20380221 
     700   -1283.5854    157.38963   -1126.1958    2440.1186    120053.65    10.472245   0.22937755 
     800     -1287.77    141.12131   -1146.6487    2187.8997    116186.19    10.472245    0.2066096 
     900   -1282.8557    141.40501   -1141.4507    2192.2982    118435.41    10.472245   0.22118705 
    1000   -1282.9808    153.73378    -1129.247    2383.4395    120089.04    10.472245   0.22374079 
    1100   -1277.4164    133.17237    -1144.244    2064.6619    122077.18    10.472245    0.2323101 
    1200   -1289.7859    150.56444   -1139.2215     2334.303    115424.39    10.472245    0.2137074 
    1300   -1281.5601    153.85901   -1127.7011     2385.381    120000.32    10.472245   0.22071986 
    1400   -1279.1796    135.10229   -1144.0773    2094.5827    120741.48    10.472245   0.23871363 
    1500    -1275.727    143.67287   -1132.0542    2227.4584    124284.26    10.472245   0.25249241 
    1600   -1273.1833    147.49673   -1125.6866    2286.7422    125852.56    10.472245   0.26478329 
    1700    -1279.641     137.3145   -1142.3265    2128.8802    120601.14    10.472245   0.23653818 
    1800   -1276.2239    143.55797    -1132.666    2225.6769    123252.84    10.472245   0.20430485 
    1900   -1274.7898    145.19271   -1129.5971    2251.0214    125164.71    10.472245   0.23989778 
    2000   -1287.1457    146.76949   -1140.3762    2275.4673    116331.81    10.472245   0.22638693 
    2100   -1279.1283    143.87533    -1135.253    2230.5971    121856.66    10.472245   0.23592434 
    2200   -1274.3099    151.72843   -1122.5815    2352.3491     126247.3    10.472245   0.22832833 
    2300   -1281.3433      143.876   -1137.4673    2230.6075    120741.67    10.472245   0.21340656 
    2400   -1279.6447    140.50412   -1139.1406     2178.331    122191.43    10.472245   0.23393609 
    2500   -1272.3532    146.96727   -1125.3859    2278.5336    126991.21    10.472245   0.25172918 
    2600   -1274.8151    137.54738   -1137.2677    2132.4907    123614.63    10.472245   0.23901535 
    2700   -1274.1994    132.66126   -1141.5381    2056.7379    124330.69    10.472245   0.24379561 
    2800   -1266.9146    142.55134   -1124.3633    2210.0705    129138.78    10.472245    0.2583952 
    2900   -1286.1177    144.22554   -1141.8922    2236.0267    117227.07    10.472245   0.19732053 
    3000   -1284.6196    140.27732   -1144.3423    2174.8148    117908.58    10.472245   0.20292546 
    3100   -1268.2098    140.00731   -1128.2025    2170.6287    128721.35    10.472245    0.2572737 
    3200   -1275.9321    131.83095   -1144.1011     2043.865    121497.11    10.472245   0.25261182 
    3300   -1278.0229    138.67971   -1139.3432     2150.046    122546.69    10.472245   0.21847058 
    3400   -1273.1078    141.47843   -1131.6294    2193.4364    125314.77    10.472245    0.2461637 
    3500   -1284.3106    134.33928   -1149.9713    2082.7534    118012.58    10.472245    0.2082581 
    3600   -1280.7426    140.35714   -1140.3855    2176.0522    121248.92    10.472245   0.22315309 
    3700   -1272.4604    136.69316   -1135.7673     2119.247    125737.86    10.472245   0.21470387 
    3800   -1287.8177    140.95765   -1146.8601    2185.3625    115481.71    10.472245   0.22204111 
    3900   -1286.7652    144.07306   -1142.6922    2233.6627    117033.28    10.472245   0.20509564 
    4000   -1274.5402    140.12405   -1134.4161    2172.4386    126062.21    10.472245   0.22963318 
    4100   -1279.6873    139.64922   -1140.0381     2165.077    120529.92    10.472245   0.22894956 
    4200   -1274.1803    146.38033      -1127.8     2269.434    125739.45    10.472245   0.23831279 
    4300   -1278.4636    146.70334   -1131.7603    2274.4417    123710.93    10.472245   0.24257693 
    4400    -1292.247    149.47205   -1142.7749     2317.367    113560.68    10.472245   0.19328697 
    4500    -1272.292    140.37478   -1131.9172    2176.3257    126241.49    10.472245   0.23380612 
    4600   -1259.2015    137.20397   -1121.9976    2127.1665    134955.62    10.472245    0.2884178 
    4700   -1285.9742    140.05347   -1145.9207    2171.3443    117572.58    10.472245   0.19910024 
    4800    -1276.478    140.94728   -1135.5307    2185.2016    123108.84    10.472245   0.21490589 
    4900   -1274.4089     141.8605   -1132.5484      2199.36    126237.93    10.472245   0.22913961 
    5000   -1285.0335    133.22027   -1151.8132    2065.4046     116956.8    10.472245   0.20359917 
    5100   -1277.4097    138.95846   -1138.4513    2154.3676    124086.73    10.472245    0.2097941 
    5200   -1273.5041    137.67462   -1135.8294    2134.4633    125676.49    10.472245   0.25901595 
    5300   -1271.5317    147.72978   -1123.8019    2290.3553    127180.53    10.472245   0.24684766 
    5400   -1286.9911    145.99566   -1140.9954    2263.4701    116890.27    10.472245   0.23873552 
    5500   -1282.9589    141.87699   -1141.0819    2199.6155    118816.66    10.472245   0.22798304 
    5600   -1269.6109    148.46185   -1121.1491    2301.7051    128712.51    10.472245    0.2240093 
    5700   -1274.7728     139.6894   -1135.0834    2165.6998    124467.44    10.472245   0.26656975 
    5800   -1278.5043    141.82064   -1136.6837     2198.742    121565.01    10.472245   0.21684777 
    5900   -1274.5427    148.88103   -1125.6617     2308.204    126289.65    10.472245   0.22070079 
    6000   -1284.5178    141.68904   -1142.8287    2196.7017    117724.46    10.472245   0.21158848 
    6100   -1280.6911    138.94266   -1141.7485    2154.1226    120387.76    10.472245    0.2486194 
    6200   -1268.7199    146.05938   -1122.6606    2264.4579     130375.3    10.472245   0.27364947 
    6300   -1275.2725    138.34963   -1136.9229    2144.9285     124002.6    10.472245   0.24783507 
    6400   -1278.0766    137.77654      -1140.3    2136.0435    121238.68    10.472245   0.21669011 
    6500   -1272.0024    150.20489   -1121.7975    2328.7287    127243.96    10.472245   0.23751362 
    6600   -1276.8579    138.40513   -1138.4527     2145.789    123694.78    10.472245   0.23252948 
    6700   -1277.6276    140.41873   -1137.2089    2177.0072    122826.46    10.472245   0.21180603 
    6800   -1279.8424    142.13735   -1137.7051    2203.6521    121561.01    10.472245   0.20608917 
    6900   -1279.8217    135.30989   -1144.5118    2097.8014    119575.93    10.472245    0.2093085 
    7000   -1283.2564    145.91192   -1137.3445    2262.1718    119542.06    10.472245   0.21717354 
    7100    -1271.116    142.80733   -1128.3087    2214.0393    127867.42    10.472245   0.27889716 
    7200   -1276.1971    136.58581   -1139.6112    2117.5828    122490.91    10.472245   0.23298385 
    7300   -1292.0596    144.42754   -1147.6321    2239.1585    113566.07    10.472245   0.20038663 
    7400   -1274.2253    142.63962   -1131.5857    2211.4391    124556.36    10.472245   0.23501484 
    7500   -1285.4793    150.91465   -1134.5646    2339.7325    118024.24    10.472245   0.20369056 
    7600   -1291.9532    138.69921    -1153.254    2150.3483    112507.55    10.472245   0.20561288 
    7700   -1279.1786    134.20174   -1144.9769    2080.6209    120595.63    10.472245   0.19538494 
    7800   -1279.0637    146.32627   -1132.7374    2268.5958    122849.36    10.472245   0.21443454 
    7900   -1276.7848    141.76975    -1135.015     2197.953    124083.73    10.472245    0.2507578 
    8000   -1287.1623    137.31774   -1149.8446    2128.9304    116528.85    10.472245   0.21717707 
    8100   -1276.5397    143.98462    -1132.555    2232.2915    124341.13    10.472245   0.22097946 
    8200   -1276.8171    144.37228   -1132.4448    2238.3017    123900.66    10.472245    0.2296793 
    8300   -1282.6272    135.06975   -1147.5575    2094.0783    116904.34    10.472245   0.22936014 
    8400   -1293.9946    140.11202   -1153.8825     2172.252    111513.87    10.472245   0.19790035 
    8500    -1278.836    145.85826   -1132.9777    2261.3399    122406.36    10.472245   0.21001277 
    8600   -1281.1697    137.34289   -1143.8268    2129.3203    120832.54    10.472245   0.19765341 
    8700   -1284.9323    142.09133    -1142.841    2202.9387    116811.89    10.472245   0.21144682 
    8800   -1277.7391    146.84678   -1130.8923    2276.6656    123231.39    10.472245   0.22847475 
    8900   -1281.3439    138.42912   -1142.9147    2146.1609    119613.34    10.472245   0.21235614 
    9000   -1275.0832    141.72297   -1133.3602    2197.2276    124165.18    10.472245   0.24094981 
    9100    -1274.094    141.40039   -1132.6936    2192.2266    125269.24    10.472245   0.24814359 
    9200   -1288.0662    146.77073   -1141.2955    2275.4865    116306.38    10.472245   0.22663952 
    9300    -1270.485    146.97701    -1123.508    2278.6847    127487.94    10.472245   0.23109136 
    9400   -1276.6135    150.01725   -1126.5962    2325.8195    123692.04    10.472245   0.25048044 
    9500   -1281.4415    142.65409   -1138.7874    2211.6635    120432.86    10.472245   0.21571443 
    9600   -1282.9884    149.15402   -1133.8344    2312.4363    119678.12    10.472245   0.21132254 
    9700    -1275.937    154.37679   -1121.5602    2393.4085    126897.82    10.472245   0.26046674 
    9800   -1278.4197    140.60418   -1137.8155    2179.8823    122452.73    10.472245   0.22845728 
    9900   -1276.4267     140.0659   -1136.3608    2171.5369    123532.75    10.472245   0.20893769 
   10000   -1275.8416    131.16225   -1144.6793    2033.4976    123259.41    10.472245   0.22538796 
   10100   -1287.1746    143.13102   -1144.0436    2219.0577    116644.87    10.472245   0.19586867 
   10200   -1273.4445    143.40924   -1130.0353     2223.371     125542.9    10.472245   0.24765264 
   10300   -1276.7074    128.15922   -1148.5482    1986.9396    120941.36    10.472245   0.21485202 
   10400   -1278.6551    136.71934   -1141.9357     2119.653    120760.66    10.472245   0.21711498 
   10500   -1277.0106    143.83567   -1133.1749    2229.9822    122629.68    10.472245   0.21729328 
   10600   -1279.7967     141.0386   -1138.7581    2186.6175    120717.41    10.472245   0.21441528 
   10700   -1289.6603    133.28089   -1156.3794    2066.3444    115085.73    10.472245   0.20758006 
   10800   -1280.0361     136.5018   -1143.5343    2116.2803    120869.01    10.472245    0.2098131 
   10900   -1287.2638    154.81174   -1132.4521    2400.1517    118685.92    10.472245   0.20095688 
   11000   -1285.4548     138.5541   -1146.9007    2148.0985    117100.37    10.472245   0.22037814 
   11100   -1280.7903    137.91694   -1142.8734    2138.2202     119732.4    10.472245   0.23924496 
   11200   -1276.6603    143.26883   -1133.3914    2221.1943    124805.33    10.472245   0.22480218 
   11300   -1287.1622    141.88268   -1145.2796    2199.7037    116222.26    10.472245   0.21702227 
   11400   -1285.4844    137.71417   -1147.7702    2135.0766    116567.03    10.472245   0.21342749 
   11500   -1280.7802    143.41888   -1137.3613    2223.5205    120131.14    10.472245   0.21770408 
   11600   -1279.3981    143.40586   -1135.9922    2223.3186     122898.2    10.472245   0.22732851 
   11700   -1276.1698    136.70695   -1139.4629     2119.461    123674.04    10.472245    0.2539904 
   11800    -1280.411    152.08171   -1128.3293    2357.8262    122014.49    10.472245   0.20368438 
   11900    -1285.261    138.47493   -1146.7861    2146.8711    117487.16    10.472245   0.19486625 
   12000   -1279.0253    139.39687   -1139.6284    2161.1646    122116.84    10.472245    0.2411167 
   12100   -1282.4353    147.50996   -1134.9254    2286.9473    120813.05    10.472245   0.20240553 
   12200   -1285.4275     145.5258   -1139.9017    2256.1855    117795.83    10.472245   0.18440389 
   12300    -1289.577    131.19023   -1158.3868    2033.9314     112585.9    10.472245   0.18715561 
   12400   -1283.3819    141.98795    -1141.394    2201.3358    118888.16    10.472245   0.22175783 
   12500    -1279.788    145.56501    -1134.223    2256.7935    122676.81    10.472245   0.19531963 
   12600   -1285.5128     137.5176   -1147.9952     2132.029    117136.51    10.472245   0.18980622 
   12700   -1273.6102    138.57483   -1135.0354    2148.4199    126142.79    10.472245   0.24077278 
   12800   -1281.0531    148.34527   -1132.7079    2299.8978    120964.16    10.472245   0.24080955 
   12900   -1281.8462     135.9249   -1145.9213    2107.3363    119558.75    10.472245   0.21530239 
   13000   -1277.8663    143.16238    -1134.704    2219.5439    124221.31    10.472245    0.2400524 
   13100   -1272.6345     140.1973   -1132.4372    2173.5742    125095.97    10.472245   0.22739532 
   13200   -1282.6903    138.09967   -1144.5906    2141.0532    119586.77    10.472245   0.21754386 
   13300   -1281.4029    141.85743   -1139.5454    2199.3123    120340.48    10.472245   0.20474337 
   13400   -1284.1763    147.79099   -1136.3853    2291.3044    118998.88    10.472245   0.19767427 
   13500   -1283.5459    145.45214   -1138.0938    2255.0436    118779.27    10.472245   0.19873704 
   13600   -1286.5529    138.33143   -1148.2214    2144.6463    116253.04    10.472245   0.20371649 
   13700   -1288.3192    142.67519    -1145.644    2211.9905    114536.45    10.472245   0.22183788 
   13800   -1280.3784    147.09515   -1133.2833    2280.5163    121989.55    10.472245   0.21888413 
   13900     -1288.43    142.52049   -1145.9095    2209.5921    114990.47    10.472245   0.20605604 
   14000   -1282.0442    132.46282   -1149.5814    2053.6612    118419.72    10.472245   0.21301029 
   14100    -1280.288    150.60084   -1129.6871    2334.8673    121987.62    10.472245   0.20467423 
   14200   -1289.1077    144.03775   -1145.0699    2233.1153    114664.72    10.472245   0.19681616 
   14300   -1277.6019    134.61704   -1142.9849    2087.0597    122427.95    10.472245   0.22383762 
   14400   -1275.2174    144.99842    -1130.219    2248.0091    124233.35    10.472245   0.20214979 
   14500   -1282.0551    136.97793   -1145.0772    2123.6621    119566.09    10.472245   0.19754031 
   14600   -1282.2731     143.8139   -1138.4592    2229.6449    119756.83    10.472245   0.22058276 
   14700   -1273.8328    141.76168   -1132.0711    2197.8278     125511.9    10.472245   0.22675752 
   14800   -1287.8833    144.94459   -1142.9387    2247.1746    116814.21    10.472245   0.20482775 
   14900   -1286.4872     138.0318   -1148.4554    2140.0009    116878.08    10.472245   0.19088508 
   15000   -1272.3712    139.59507   -1132.7761    2164.2375    126848.15    10.472245   0.24060973 
   15100    -1273.994    136.88725   -1137.1067    2122.2563    124219.55    10.472245   0.23438199 
   15200    -1284.866    137.70839   -1147.1576    2134.9869    117824.27    10.472245   0.21612234 
   15300   -1274.0899     137.5587   -1136.5312    2132.6662    125658.67    10.472245   0.24124692 
   15400   -1271.3423    140.09404   -1131.2483    2171.9732    127387.81    10.472245   0.24057392 
   15500   -1291.2824    140.26321   -1151.0192    2174.5959    113436.54    10.472245   0.19792963 
   15600    -1272.391    138.41883   -1133.9722    2146.0014    125530.14    10.472245   0.24430525 
   15700   -1280.7131     145.4365   -1135.2766    2254.8011     121743.3    10.472245   0.22252286 
   15800   -1286.2003    139.74388   -1146.4564    2166.5445     115383.2    10.472245   0.23899564 
   15900   -1273.6531    136.96309     -1136.69     2123.432    124901.15    10.472245   0.23621081 
   16000   -1274.2422    143.51541   -1130.7268    2225.0172    126494.08    10.472245   0.25012811 
   16100    -1265.739    131.67116   -1134.0679    2041.3876     129787.1    10.472245   0.34131793 
   16200   -1270.2407    147.71004   -1122.5307    2290.0493    129154.96    10.472245   0.28945454 
   16300    -1276.327    138.95204    -1137.375    2154.2681     122805.7    10.472245   0.26400243 
   16400   -1283.7954    147.37994   -1136.4154    2284.9315     119919.9    10.472245    0.2354678 
   16500   -1271.8724    147.65249   -1124.2199    2289.1571    128121.13    10.472245   0.22048905 
   16600   -1287.5277    149.82641   -1137.7013    2322.8608    117712.65    10.472245   0.20172833 
   16700     -1279.73    138.62658   -1141.1034    2149.2223    121767.88    10.472245   0.21192465 
   16800    -1278.466    153.37117   -1125.0949    2377.8176    123838.22    10.472245   0.21351672 
   16900   -1285.1984    138.28531   -1146.9131    2143.9313    116154.05    10.472245   0.19222697 
   17000   -1285.9949    147.58987    -1138.405    2288.1863    118253.53    10.472245   0.22180674 
   17100   -1280.5797    145.01983   -1135.5599    2248.3412    120526.23    10.472245   0.23143778 
   17200   -1275.2754    135.63634   -1139.6391    2102.8624    123501.56    10.472245   0.23086357 
   17300   -1280.9314    143.28062   -1137.6508    2221.3769    121397.47    10.472245   0.22500129 
   17400   -1276.7151    143.61789   -1133.0972    2226.6059    124559.96    10.472245   0.20771859 
   17500   -1289.3037    142.98959   -1146.3141     2216.865     115673.5    10.472245   0.19751994 
   17600   -1280.9641    146.03475   -1134.9294    2264.0761    120906.25    10.472245   0.19218684 
   17700    -1278.484    143.61377   -1134.8703     2226.542    121521.47    10.472245   0.23333153 
   17800   -1285.3526    136.11276   -1149.2398    2110.2488    117282.15    10.472245   0.21860656 
   17900   -1278.1787    136.86733   -1141.3113    2121.9474    122270.66    10.472245   0.22886976 
   18000   -1277.4077    149.33503   -1128.0726    2315.2426    123956.06    10.472245   0.21901801 
   18100   -1279.9867    133.64309   -1146.3436    2071.9598    119731.53    10.472245     0.239334 
   18200   -1280.7902    140.82737   -1139.9629    2183.3425    120646.88    10.472245   0.22906292 
   18300    -1281.742    150.08612   -1131.6558    2326.8873    120280.16    10.472245   0.20503679 
   18400   -1283.5909    140.50753   -1143.0834     2178.384    119155.88    10.472245   0.22366516 
   18500   -1295.8604    134.32695   -1161.5334    2082.5621    109957.32    10.472245   0.19020656 
   18600   -1281.2453    138.81112   -1142.4342    2152.0832    119283.81    10.472245   0.19651966 
   18700   -1274.7532    144.03873   -1130.7145    2233.1305    124554.97    10.472245   0.24486935 
   18800   -1279.3121    138.95339   -1140.3587     2154.289    121973.27    10.472245   0.23381816 
   18900   -1275.3757    129.77159   -1145.6041    2011.9372    122779.54    10.472245   0.22994459 
   19000   -1269.7289    137.33672   -1132.3922    2129.2247    128284.34    10.472245   0.24948658 
   19100   -1278.0794    143.07958   -1134.9998    2218.2602    123486.32    10.472245   0.22326142 
   19200   -1284.0408    135.87909   -1148.1617     2106.626    117420.07    10.472245   0.22860947 
   19300   -1288.1479    136.41106   -1151.7368    2114.8734    114602.67    10.472245   0.20215318 
   19400    -1285.926    147.75159   -1138.1744    2290.6935    118499.81    10.472245   0.23215952 
   19500   -1279.9497    148.57066    -1131.379    2303.3921    123244.73    10.472245   0.22574179 
   19600    -1289.071    137.90603    -1151.165    2138.0511    114272.66    10.472245   0.18938168 
   19700   -1276.1402    134.44569   -1141.6945     2084.403    121770.11    10.472245   0.20869601 
   19800    -1284.489    148.31228   -1136.1767    2299.3863    118344.08    10.472245   0.20297895 
   19900   -1285.1251    136.64495   -1148.4801    2118.4997    116610.69    10.472245   0.19731746 
   20000   -1290.8051    142.74569   -1148.0595    2213.0836    115860.35    10.472245   0.18310323 
   20100   -1280.8601    146.13897   -1134.7212    2265.6919    120645.92    10.472245   0.24988757 
   20200   -1279.7755    148.10791   -1131.6676    2296.2178    123456.75    10.472245   0.22956016 
   20300    -1286.935    137.79483   -1149.1402     2136.327    115879.17    10.472245    0.1827713 
   20400   -1272.3622    137.69809   -1134.6641    2134.8271    125396.87    10.472245   0.24003473 
   20500   -1276.5649    143.71178   -1132.8532    2228.0615    124267.98    10.472245   0.23410218 
   20600   -1285.9235    140.49311   -1145.4304    2178.1603    116951.48    10.472245   0.20535298 
   20700   -1284.8087    136.86635   -1147.9423    2121.9322    117635.97    10.472245   0.20090963 
   20800   -1276.2321    145.09035   -1131.1418    2249.4345    124373.52    10.472245   0.22787111 
   20900   -1282.9168    138.99937   -1143.9174    2155.0018    118050.63    10.472245   0.22225118 
   21000    -1284.295    142.35219   -1141.9428    2206.9828    117912.63    10.472245   0.21010807 
   21100   -1275.9367    146.45039   -1129.4863    2270.5202    124431.77    10.472245   0.21622106 
   21200   -1281.1427      139.135   -1142.0077    2157.1046    119776.41    10.472245   0.24383801 
   21300   -1280.6867    156.66716   -1124.0195    2428.9176    123276.08    10.472245   0.19318723 
   21400   -1274.1601    141.74647   -1132.4136    2197.5921    125014.16    10.472245   0.25101535 
   21500   -1281.7953     139.4338   -1142.3615    2161.7372    120508.82    10.472245   0.23041439 
   21600   -1277.4373     138.5418   -1138.8955    2147.9079     121690.8    10.472245   0.19662789 
   21700   -1273.9991    140.26325   -1133.7359    2174.5966    124811.21    10.472245   0.24986045 
   21800   -1265.9373    144.88385   -1121.0534    2246.2329    131018.38    10.472245   0.24067238 
   21900   -1273.5806    138.37886   -1135.2017    2145.3817    124343.75    10.472245   0.21806746 
   22000   -1282.7332     140.4061   -1142.3271    2176.8113    120513.76    10.472245   0.24236974 
   22100   -1271.9708    145.97819   -1125.9926    2263.1992    127462.29    10.472245   0.24728217 
   22200   -1279.6374    144.17844   -1135.4589    2235.2965    121474.64    10.472245   0.22644377 
   22300   -1282.7444    142.08074   -1140.6637    2202.7745    118386.93    10.472245   0.20153457 
   22400   -1276.6524    138.54978   -1138.1026    2148.0315    122699.76    10.472245   0.21768604 
   22500   -1276.8134    149.68915   -1127.1242    2320.7328    125144.16    10.472245   0.23245693 
   22600   -1284.8437    139.36976    -1145.474    2160.7443    117590.39    10.472245   0.18209323 
   22700    -1276.103     139.8687   -1136.2343    2168.4797    122534.84    10.472245   0.21790689 
   22800   -1280.6923    148.18461   -1132.5076    2297.4069    120971.75    10.472245   0.21733967 
   22900   -1282.3162    139.72733   -1142.5889     2166.288    119136.13    10.472245   0.23863784 
   23000    -1272.418    147.65709   -1124.7609    2289.2284    126766.27    10.472245   0.24107452 
   23100   -1277.3846    142.28295   -1135.1017    2205.9095     122421.7    10.472245   0.24299065 
   23200   -1284.4727    139.88774   -1144.5849    2168.7749    116786.49    10.472245   0.21917507 
   23300   -1271.1676    145.19926   -1125.9684     2251.123    128540.16    10.472245   0.22168082 
   23400   -1275.7184    139.60694   -1136.1115    2164.4214    123637.04    10.472245   0.23833452 
   23500   -1283.8707    143.53939   -1140.3313    2225.3889    119402.27    10.472245   0.20419001 
   23600   -1276.2529    153.16544   -1123.0874    2374.6281    125015.85    10.472245   0.22347448 
   23700   -1280.8206    142.85326   -1137.9674    2214.7513    120929.71    10.472245   0.21188341 
   23800    -1282.114    142.01532   -1140.0987    2201.7601    120179.82    10.472245   0.20730412 
   23900   -1275.9207    145.09169    -1130.829    2249.4552    125064.95    10.472245   0.22855261 
   24000   -1277.6342    143.55925   -1134.0749    2225.6967    124338.74    10.472245    0.2089008 
   24100   -1285.6798    137.73395   -1147.9458    2135.3832    116500.96    10.472245   0.20491304 
   24200   -1283.9454    146.63458   -1137.3108    2273.3756     120252.5    10.472245   0.20480243 
   24300   -1284.5509    148.23665   -1136.3142    2298.2136    118949.31    10.472245     0.205266 
   24400    -1276.965    136.47954   -1140.4854    2115.9351     123180.2    10.472245   0.23691408 
   24500   -1278.3258      154.802   -1123.5238    2400.0008    123278.17    10.472245    0.2193682 
   24600   -1283.1445    142.84216   -1140.3023    2214.5792    117958.38    10.472245   0.18350204 
   24700   -1280.6802    138.28368   -1142.3965     2143.906    121347.08    10.472245   0.20053099 
   24800   -1277.8707    150.16288   -1127.7078    2328.0774    123568.35    10.472245   0.19410034 
   24900   -1284.8065    140.66689   -1144.1396    2180.8545    118847.16    10.472245   0.23526863 
   25000    -1281.745    144.10796    -1137.637    2234.2039    121064.12    10.472245   0.22505661 
   25100   -1275.3734    143.98786   -1131.3855    2232.3418    125558.21    10.472245   0.23897908 
   25200   -1281.3367     132.7989   -1148.5378    2058.8718    119837.88    10.472245   0.18862715 
   25300   -1281.0125    144.58596   -1136.4266    2241.6145    120785.41    10.472245   0.20910503 
   25400   -1278.6527    145.40499   -1133.2477    2254.3126    121291.06    10.472245   0.19810368 
   25500   -1280.3867    136.57209   -1143.8146    2117.3701     120510.1    10.472245   0.21139673 
   25600   -1286.2322    147.61378   -1138.6184    2288.5569    118101.57    10.472245    0.2103816 
   25700   -1284.5272    148.18047   -1136.3467    2297.3426    119863.68    10.472245   0.21336794 
   25800   -1279.0931     141.4339   -1137.6592     2192.746    121804.54    10.472245    0.2244373 
   25900   -1276.5145    137.20349    -1139.311    2127.1592    123593.34    10.472245   0.22734017 
   26000   -1275.2297    144.19396   -1131.0358    2235.5371       125231    10.472245   0.21709762 
   26100   -1289.7375    141.85757   -1147.8799    2199.3144    113802.09    10.472245    0.2030704 
   26200   -1282.7358    144.83273   -1137.9031    2245.4404    119477.62    10.472245    0.2057329 
   26300   -1281.6413    144.76588   -1136.8754    2244.4039    121144.07    10.472245   0.22530149 
   26400   -1277.9863    151.20593   -1126.7804    2344.2485    122212.34    10.472245   0.24463275 
   26500   -1272.2724    136.39741    -1135.875    2114.6619     126405.3    10.472245   0.24432547 
   26600   -1282.1139    141.35399   -1140.7599    2191.5071    119549.78    10.472245    0.2342529 
   26700   -1273.2897    145.12657   -1128.1631    2249.9961     126168.5    10.472245   0.21673621 
   26800   -1278.9313    150.63449   -1128.2968     2335.389    123027.38    10.472245   0.22563351 
   26900   -1281.4373    138.09664   -1143.3407    2141.0062     119347.2    10.472245   0.22609306 
   27000    -1269.128    140.23522   -1128.8928     2174.162    128516.83    10.472245   0.21460467 
   27100   -1270.0639    145.34233   -1124.7216    2253.3411    127859.52    10.472245    0.2779633 
   27200   -1290.3081    143.93334   -1146.3747    2231.4966    113934.21    10.472245   0.18698182 
   27300   -1277.0173    140.08952   -1136.9277    2171.9033    122186.27    10.472245   0.22887144 
   27400   -1275.1816     142.5811   -1132.6005    2210.5318    124864.88    10.472245   0.24280304 
   27500   -1282.0229    135.50382   -1146.5191    2100.8079    120690.94    10.472245   0.19489676 
   27600   -1287.4575    135.53516   -1151.9223    2101.2939    115886.17    10.472245   0.17866529 
   27700   -1280.8133     142.0868   -1138.7265    2202.8683    120561.67    10.472245   0.22665872 
   27800   -1271.9983    140.34837     -1131.65    2175.9163    126563.41    10.472245   0.22908497 
   27900   -1280.9419    140.11606   -1140.8259    2172.3147    120756.81    10.472245   0.20828353 
   28000   -1293.4924    145.77521   -1147.7172    2260.0524    113503.24    10.472245   0.18796278 
   28100   -1276.5922    148.25593   -1128.3363    2298.5126    123513.99    10.472245   0.21785742 
   28200   -1277.3026      138.946   -1138.3566    2154.1744    122745.35    10.472245   0.24611677 
   28300   -1285.1499    139.42214   -1145.7278    2161.5564    117572.29    10.472245   0.19713046 
   28400   -1284.0568    131.01641   -1153.0403    2031.2367    117396.89    10.472245   0.18928177 
   28500   -1274.4003    138.79972   -1135.6006    2151.9065    123687.02    10.472245   0.21507391 
   28600    -1281.023    144.13222   -1136.8908    2234.5799    120672.71    10.472245   0.21172903 
   28700   -1283.0536     132.9117   -1150.1419    2060.6206    118108.68    10.472245   0.20304309 
   28800   -1284.0414    148.82059   -1135.2208     2307.267    119315.93    10.472245   0.20305701 
   28900   -1276.8868    138.77613   -1138.1107    2151.5408    124377.12    10.472245   0.21793734 
   29000   -1285.6738    137.29521   -1148.3786    2128.5811    116484.33    10.472245   0.21364257 
   29100    -1275.199    139.84893     -1135.35    2168.1732    124623.94    10.472245   0.23512695 
   29200   -1280.7139    149.95969   -1130.7542    2324.9271    121338.97    10.472245   0.24188867 
   29300   -1296.3715    148.11035   -1148.2612    2296.2556    112092.59    10.472245   0.18535261 
   29400   -1285.1915    142.24826   -1142.9433    2205.3717    118286.99    10.472245   0.23277882 
   29500   -1280.7088    150.49312   -1130.2157    2333.1973     122479.3    10.472245   0.21172501 
   29600   -1282.7699    136.26682    -1146.503    2112.6372    120537.52    10.472245   0.24339058 
   29700   -1279.9609    142.71791    -1137.243    2212.6529    121565.41    10.472245   0.21489726 
   29800   -1277.0923    146.06906   -1131.0233    2264.6081    124793.74    10.472245   0.22343423 
   29900   -1284.7837    140.45759   -1144.3261    2177.6097    117861.06    10.472245    0.2106976 
   30000   -1276.5071    145.46599   -1131.0411    2255.2582    125099.65    10.472245    0.2154627 
   30100   -1278.8024    143.09088   -1135.7115    2218.4353    121766.68    10.472245   0.24366896 
   30200   -1280.3932    141.57681   -1138.8164    2194.9617    120986.25    10.472245   0.22352655 
   30300   -1279.8125    147.79086   -1132.0217    2291.3023    122162.64    10.472245   0.20176005 
   30400   -1286.5927    138.41615   -1148.1766    2145.9597    116605.26    10.472245    0.2012193 
   30500   -1282.8704    142.42047   -1140.4499    2208.0415    120028.35    10.472245   0.22160619 
   30600   -1278.1542    144.04206   -1134.1121     2233.182     122939.6    10.472245   0.22978534 
   30700   -1282.4213    138.54535   -1143.8759    2147.9629    119010.44    10.472245   0.21030191 
   30800   -1280.7321    128.42701   -1152.3051    1991.0913    119195.78    10.472245   0.20967581 
   30900   -1281.8612    149.77475   -1132.0865    2322.0599     120832.6    10.472245   0.22711085 
   31000   -1277.4384    142.06373   -1135.3747    2202.5107    123585.05    10.472245   0.23971604 
   31100   -1288.5307    138.69162   -1149.8391    2150.2306    114991.17    10.472245    0.1941369 
   31200   -1273.8912    143.98733   -1129.9038    2232.3336    126447.15    10.472245   0.22917803 
   31300   -1278.2172     137.3473   -1140.8699    2129.3887    121897.02    10.472245     0.229068 
   31400   -1276.3069    133.89874   -1142.4082    2075.9233    123950.72    10.472245   0.22915521 
   31500   -1273.0889    146.11433   -1126.9746    2265.3099     126667.5    10.472245   0.23460404 
   31600   -1280.0073    138.50686   -1141.5004    2147.3662    121521.91    10.472245   0.21124405 
   31700   -1277.5384    136.24537    -1141.293    2112.3047    121274.33    10.472245   0.24773976 
   31800   -1275.4293    140.06478   -1135.3646    2171.5197    124014.82    10.472245   0.24122057 
   31900   -1278.2701    142.84898   -1135.4211     2214.685    122694.47    10.472245   0.24019527 
   32000   -1279.2877    133.31989   -1145.9678     2066.949    120960.82    10.472245   0.21736042 
   32100   -1281.7939    145.07242   -1136.7215    2249.1565    120591.75    10.472245    0.2070715 
   32200   -1282.8748     155.1124   -1127.7624    2404.8131     120230.1    10.472245   0.20762659 
   32300   -1282.6822    138.41055   -1144.2716     2145.873    120041.07    10.472245   0.20241216 
   32400   -1282.7807    146.85301   -1135.9276    2276.7622    120651.97    10.472245   0.21500539 
   32500    -1269.766    138.12446   -1131.6416    2141.4375     126853.3    10.472245   0.23919569 
   32600    -1283.704    135.53315   -1148.1708    2101.2628    118081.86    10.472245   0.22124238 
   32700   -1280.3623    146.10403   -1134.2582    2265.1502    121345.66    10.472245   0.22594923 
   32800   -1277.1058     139.7982   -1137.3076    2167.3866    122753.86    10.472245   0.20865362 
   32900   -1283.1461    130.84203   -1152.3041    2028.5331    117923.28    10.472245   0.22670563 
   33000   -1281.1752     132.0056   -1149.1696    2046.5726    118399.33    10.472245   0.23464127 
   33100   -1281.9326     146.2292   -1135.7034    2267.0909     120796.8    10.472245   0.23256279 
   33200   -1275.3042    137.95141   -1137.3528    2138.7546    124740.62    10.472245   0.23166821 
   33300   -1278.5104    133.97765   -1144.5328    2077.1467    121017.88    10.472245    0.2477669 
   33400   -1277.4047    145.20886   -1132.1958    2251.2718    123129.67    10.472245   0.20198502 
   33500   -1282.7943    145.19864   -1137.5956    2251.1134    119493.68    10.472245   0.22233319 
   33600   -1285.6649    141.05597    -1144.609    2186.8867    118235.18    10.472245   0.25247449 
   33700    -1274.273    143.03844   -1131.2346    2217.6222    124993.19    10.472245   0.27917653 
   33800   -1264.4815    140.04592   -1124.4356    2171.2272    131398.55    10.472245   0.26828344 
   33900   -1281.1419    141.25246   -1139.8895     2189.933    120125.04    10.472245   0.20907714 
   34000   -1292.6205    148.90676   -1143.7137    2308.6028    113643.18    10.472245     0.176677 
   34100   -1269.7925    141.11375   -1128.6788    2187.7825    128208.94    10.472245   0.21164342 
   34200   -1287.0818    138.01427   -1149.0675    2139.7292     116164.9    10.472245   0.19255455 
   34300   -1279.2966    141.59269   -1137.7039    2195.2079    121810.99    10.472245   0.19797199 
   34400   -1274.2307     139.5387    -1134.692    2163.3634    124633.45    10.472245    0.2307441 
   34500   -1286.6963     136.3393    -1150.357     2113.761    116284.32    10.472245   0.21825348 
   34600   -1285.3832    148.75255   -1136.6307     2306.212    118279.55    10.472245   0.20757825 
   34700   -1275.5385    140.86429   -1134.6742     2183.915    124569.07    10.472245   0.24540012 
   34800   -1286.9483    142.90017   -1144.0481    2215.4786    116508.15    10.472245   0.21062673 
   34900   -1287.7465    141.73641   -1146.0101    2197.4361    115897.52    10.472245   0.19291577 
   35000   -1275.6498    139.42337   -1136.2264    2161.5754    123643.13    10.472245   0.23633421 
   35100   -1274.4379    136.67815   -1137.7597    2119.0144    123698.69    10.472245   0.23557233 
   35200   -1295.5122    145.60897   -1149.9033    2257.4749    111392.98    10.472245    0.1923201 
   35300    -1270.169    134.82602    -1135.343    2090.2996    126859.94    10.472245   0.23816746 
   35400   -1275.1461    144.66406   -1130.4821    2242.8254     124788.1    10.472245   0.25607124 
   35500   -1273.1573    140.82271   -1132.3346    2183.2703     125084.1    10.472245   0.27152941 
   35600   -1283.2399    137.11956   -1146.1204    2125.8578    117905.93    10.472245   0.19815515 
   35700   -1281.0801    140.77084   -1140.3093    2182.4661    120348.16    10.472245   0.19654767 
   35800   -1276.1092     143.6148   -1132.4944     2226.558    122853.68    10.472245   0.20340804 
   35900   -1286.1614    140.50359   -1145.6578    2178.3228     117798.3    10.472245   0.16970501 
   36000   -1277.4745    142.47947   -1134.9951    2208.9563    122539.46    10.472245   0.25816401 
   36100    -1281.067    150.44618   -1130.6208    2332.4696     122667.8    10.472245   0.22052529 
   36200   -1284.8365    140.69646     -1144.14     2181.313    118616.76    10.472245   0.22318095 
   36300   -1273.6951    143.56524   -1130.1299    2225.7896    125811.52    10.472245   0.23298435 
   36400   -1272.9181    139.84783   -1133.0703    2168.1561    124819.75    10.472245   0.21378678 
   36500   -1275.7618    136.34235   -1139.4195    2113.8083    123486.83    10.472245   0.25096752 
   36600   -1281.1124    146.86005   -1134.2524    2276.8713    121588.32    10.472245   0.20406769 
   36700    -1279.667     151.7776   -1127.8894    2353.1115    122525.58    10.472245   0.24085648 
   36800   -1276.7742    135.73496   -1141.0392    2104.3914    121273.33    10.472245   0.22977101 
   36900   -1282.9709     142.9841   -1139.9868    2216.7799    120365.92    10.472245    0.1973058 
   37000   -1272.9424    155.20691   -1117.7354    2406.2784    128094.32    10.472245   0.23369255 
   37100   -1270.1185    143.52663   -1126.5918     2225.191    127750.07    10.472245   0.26253965 
   37200   -1276.5053    134.53417   -1141.9711    2085.7748    124164.68    10.472245   0.23990861 
   37300   -1273.3658     136.6192   -1136.7466    2118.1005    125166.74    10.472245   0.24538275 
   37400   -1272.8657    148.03105   -1124.8346    2295.0262    126763.75    10.472245   0.23714946 
   37500   -1281.0577    142.90292   -1138.1548    2215.5213    120980.22    10.472245   0.20740237 
   37600   -1282.4762    145.21336   -1137.2628    2251.3415    120857.37    10.472245   0.22333244 
   37700   -1269.3797    148.96719   -1120.4125    2309.5398    129909.32    10.472245    0.2616209 
   37800   -1277.8075    141.82414   -1135.9834    2198.7963    121649.93    10.472245   0.21987918 
   37900   -1281.6209    139.35893    -1142.262    2160.5763    119285.71    10.472245   0.23159353 
   38000   -1275.7181    144.79243   -1130.9256    2244.8156    124105.83    10.472245   0.23163751 
   38100   -1276.8152    143.68383   -1133.1314    2227.6282    124723.66    10.472245   0.23137193 
   38200   -1289.0426    147.76859    -1141.274     2290.957    115336.03    10.472245   0.20618135 
   38300   -1280.0495     146.0871   -1133.9624    2264.8878    121176.14    10.472245   0.25326427 
   38400    -1266.733    153.73121   -1113.0018    2383.3995    132261.99    10.472245   0.27280622 
   38500   -1273.5346    147.03474   -1126.4999    2279.5796    126309.13    10.472245   0.22945975 
   38600   -1284.7489    141.52106   -1143.2278    2194.0973    118889.48    10.472245   0.20388238 
   38700   -1283.4392    139.68343   -1143.7558    2165.6073    117779.04    10.472245   0.19336709 
   38800   -1276.8991    149.66102   -1127.2381    2320.2967    123000.23    10.472245   0.22824708 
   38900   -1277.4646    141.09881   -1136.3658    2187.5509    122622.75    10.472245   0.22937802 
   39000   -1283.5587     142.8059   -1140.7528     2214.017    119656.63    10.472245   0.21735517 
   39100   -1275.0388    152.41381    -1122.625     2362.975    126746.78    10.472245   0.21283221 
   39200   -1274.7251    137.46853   -1137.2565    2131.2682    123190.61    10.472245   0.21008916 
   39300   -1288.2281    146.87988   -1141.3482    2277.1787    116803.09    10.472245   0.20531804 
   39400   -1269.7531    149.04449   -1120.7086    2310.7382    129936.89    10.472245   0.23446388 
   39500   -1278.4718    140.64135   -1137.8304    2180.4586    122668.74    10.472245   0.22086416 
   39600   -1285.0822    144.75425    -1140.328    2244.2237    118512.35    10.472245   0.22039319 
   39700   -1276.7345    156.01288   -1120.7217    2418.7738    124760.09    10.472245   0.23327933 
   39800   -1279.9327    147.25972    -1132.673    2283.0676    121427.16    10.472245   0.25577926 
   39900    -1279.636    136.96643   -1142.6695    2123.4838    120499.96    10.472245   0.21828515 
   40000   -1276.0683    142.71346   -1133.3549     2212.584    123417.12    10.472245   0.24190851 
   40100   -1272.1306    142.00343   -1130.1272    2201.5759    126280.34    10.472245   0.25113368 
   40200   -1287.9682    145.40094   -1142.5672    2254.2498    116665.96    10.472245   0.20552782 
   40300   -1274.6669    137.55675   -1137.1101    2132.6359    123180.43    10.472245   0.23490513 
   40400   -1277.7709    138.08302   -1139.6879     2140.795    121236.68    10.472245   0.22243889 
   40500   -1285.8255    138.74288   -1147.0826    2151.0254    116288.26    10.472245   0.22644584 
   40600   -1275.1657    143.52205   -1131.6436    2225.1201    125407.12    10.472245   0.22446024 
   40700   -1281.0388    136.09288    -1144.946    2109.9405    120595.38    10.472245   0.20461297 
   40800   -1284.3334     138.3042   -1146.0292    2144.2241    118098.45    10.472245   0.19181151 
   40900   -1278.2702    145.88059   -1132.3896    2261.6861    122755.79    10.472245   0.23426484 
   41000   -1282.5373    141.58849   -1140.9488    2195.1428    118521.76    10.472245   0.21586469 
   41100   -1298.8611    139.33363   -1159.5275    2160.1841    107994.14    10.472245   0.18992223 
   41200   -1287.2962     142.0513   -1145.2449    2202.3181    116229.57    10.472245   0.20448624 
   41300   -1276.6801    142.16052   -1134.5196    2204.0113    123198.32    10.472245   0.21737977 
   41400   -1281.5319    137.18176   -1144.3502    2126.8222    119691.39    10.472245   0.21439699 
   41500   -1287.3156    142.26433   -1145.0513    2205.6208    116590.02    10.472245   0.22162556 
   41600   -1280.5269    145.85759   -1134.6693    2261.3296    122075.88    10.472245   0.22852828 
   41700   -1283.5196    144.40012   -1139.1195    2238.7333    119622.07    10.472245   0.20457161 
   41800   -1290.5665    138.58815   -1151.9784    2148.6265    114265.21    10.472245   0.18540736 
   41900   -1279.0003    145.60557   -1133.3947    2257.4222    122604.41    10.472245   0.20951018 
   42000   -1279.1561    142.87546   -1136.2806    2215.0954     121696.7    10.472245   0.23689783 
   42100   -1281.6276    130.10641   -1151.5212    2017.1283    119672.74    10.472245   0.22877804 
   42200   -1274.0218    141.80464   -1132.2172    2198.4938    124614.39    10.472245   0.24571929 
   42300   -1273.9076    139.45539   -1134.4522    2162.0719    124796.62    10.472245   0.21401496 
   42400   -1282.4324    134.17673   -1148.2557    2080.2332    118166.93    10.472245   0.18650154 
   42500    -1278.366    137.94748   -1140.4185    2138.6937     122115.8    10.472245   0.22613282 
   42600   -1278.5608     140.1883   -1138.3724    2173.4347    122156.22    10.472245   0.22627927 
   42700   -1279.6355    146.28886   -1133.3467    2268.0157    122627.98    10.472245   0.21522244 
   42800   -1275.8874    137.37929   -1138.5081    2129.8846    123476.26    10.472245   0.22415298 
   42900   -1285.0304    136.64491   -1148.3855     2118.499    117053.19    10.472245   0.19413832 
   43000   -1278.3362    146.56278   -1131.7734    2272.2626    122503.08    10.472245   0.20541255 
   43100    -1278.675    144.86558   -1133.8095    2245.9497    122476.34    10.472245   0.25060493 
   43200   -1289.2525     137.1407   -1152.1118    2126.1856    114866.62    10.472245    0.1955823 
   43300   -1280.0053    136.70183   -1143.3034    2119.3815    120031.96    10.472245   0.21357646 
   43400   -1278.5781    142.99138   -1135.5867    2216.8928    122495.02    10.472245   0.23089606 
   43500   -1266.4556    144.36278   -1122.0928    2238.1545     130195.4    10.472245   0.24804946 
   43600   -1273.7508    133.33644   -1140.4144    2067.2056    124016.94    10.472245   0.20151866 
   43700   -1284.4762    140.07195   -1144.4042    2171.6308    118304.07    10.472245   0.18889084 
   43800   -1279.3694    152.09311   -1127.2763     2358.003    122317.23    10.472245   0.22665285 
   43900    -1275.296    143.24122   -1132.0548    2220.7661    123905.74    10.472245   0.24323633 
   44000   -1275.7593    136.64423    -1139.115    2118.4885    122999.24    10.472245   0.23692609 
   44100   -1279.4999      144.889   -1134.6109    2246.3127       121112    10.472245   0.20527865 
   44200   -1277.4054    136.88839   -1140.5171    2122.2739    122814.41    10.472245    0.2294693 
   44300   -1290.1291    138.40024   -1151.7289    2145.7131    113612.91    10.472245   0.19054802 
   44400   -1273.3691    143.10771   -1130.2614    2218.6962    124926.66    10.472245   0.22422414 
   44500   -1283.5564    143.17289   -1140.3835    2219.7067    119405.89    10.472245   0.20858585 
   44600   -1276.9708     135.3769   -1141.5939    2098.8403    122339.22    10.472245   0.23071993 
   44700   -1276.1225    148.42418   -1127.6983    2301.1211    125343.08    10.472245   0.21705893 
   44800   -1284.2877    142.30039   -1141.9873    2206.1797    119145.26    10.472245   0.22077599 
   44900   -1277.4673    143.61118   -1133.8561    2226.5018     122683.2    10.472245   0.20987729 
   45000   -1276.3583    148.64841   -1127.7098    2304.5975    125421.86    10.472245   0.23716932 
   45100   -1278.7877    139.00214   -1139.7856    2155.0447    122490.49    10.472245   0.22404135 
   45200   -1284.7394     149.4318   -1135.3076    2316.7429    118293.79    10.472245   0.21571827 
   45300   -1281.9464    146.88616   -1135.0603    2277.2762    120082.26    10.472245    0.2555985 
   45400    -1276.485    137.36196    -1139.123     2129.616    122237.39    10.472245   0.20861525 
   45500   -1283.6857    138.03727   -1145.6485    2140.0858    117639.61    10.472245   0.26050698 
   45600   -1275.4273    148.48845   -1126.9388    2302.1176     125202.5    10.472245   0.26361236 
   45700   -1283.8325    146.00009   -1137.8324    2263.5387    118722.53    10.472245   0.22106744 
   45800   -1284.9953    139.76704   -1145.2283    2166.9036    117056.91    10.472245    0.2093926 
   45900   -1279.9178    142.87028   -1137.0475    2215.0152    121604.63    10.472245   0.21737365 
   46000   -1278.2287    146.98241   -1131.2463    2278.7683    123491.41    10.472245   0.26873872 
   46100   -1272.3993    147.63911   -1124.7601    2288.9496    127224.82    10.472245   0.22782892 
   46200   -1279.7031    138.51259   -1141.1905     2147.455    121124.25    10.472245   0.24224883 
   46300   -1271.1435    134.44788   -1136.6956     2084.437    125821.71    10.472245   0.23061506 
   46400   -1270.8368    148.68753   -1122.1492     2305.204    128290.31    10.472245   0.25244398 
   46500   -1278.1769     136.6945   -1141.4824    2119.2678     121434.2    10.472245   0.23906001 
   46600   -1282.3613    146.75457   -1135.6067     2275.236    120045.27    10.472245   0.20510066 
   46700   -1262.2381    136.22952   -1126.0086     2112.059     132068.6    10.472245   0.27327218 
   46800   -1280.8258    141.89242   -1138.9334    2199.8548    120305.19    10.472245   0.20973367 
   46900   -1285.0373    142.84728     -1142.19    2214.6586    118282.03    10.472245   0.19676141 
   47000   -1277.7559    153.05784   -1124.6981    2372.9599    123810.55    10.472245   0.22414462 
   47100   -1273.0002    138.54169   -1134.4585    2147.9061    125986.78    10.472245    0.2282128 
   47200   -1281.8953    140.68858   -1141.2067    2181.1909    120423.29    10.472245    0.2152409 
   47300   -1277.4864    140.96458   -1136.5219    2185.4698    123051.83    10.472245   0.20743008 
   47400   -1267.2791    144.32715   -1122.9519    2237.6021    130144.23    10.472245   0.27148038 
   47500   -1281.4377    137.89648   -1143.5412     2137.903    120433.77    10.472245   0.21273322 
   47600   -1280.9522    143.36459   -1137.5876    2222.6789    120778.52    10.472245   0.21301935 
   47700   -1273.4128    150.29872   -1123.1141    2330.1833    125571.19    10.472245   0.26855647 
   47800   -1281.4355    136.76239   -1144.6731    2120.3204    120265.76    10.472245   0.23713603 
   47900   -1277.4379    140.49465   -1136.9432    2178.1843    122148.48    10.472245   0.21100551 
   48000   -1275.5618    149.46606   -1126.0958    2317.2741    125328.73    10.472245   0.22122093 
   48100   -1284.0413    138.75313   -1145.2882    2151.1842    118476.61    10.472245   0.20312546 
   48200   -1284.2553    144.37626    -1139.879    2238.3634    118305.28    10.472245   0.20618892 
   48300   -1276.6011    147.81402   -1128.7871    2291.6614    123463.23    10.472245   0.23453121 
   48400   -1290.7989    144.88585    -1145.913    2246.2639    114500.86    10.472245   0.21183048 
   48500   -1274.0275     138.5714   -1135.4561    2148.3668    125742.34    10.472245   0.21330801 
   48600   -1270.7068    144.64884    -1126.058    2242.5894    127301.92    10.472245   0.23320956 
   48700   -1289.9047    143.78646   -1146.1182    2229.2194    113424.03    10.472245   0.18780701 
   48800   -1282.5931     144.8415   -1137.7516    2245.5763    119438.02    10.472245    0.2273894 
   48900   -1277.0626    146.93376   -1130.1289    2278.0141    124676.54    10.472245   0.22701966 
   49000   -1281.6595    144.25725   -1137.4023    2236.5184    120330.42    10.472245   0.20239113 
   49100   -1272.2947    132.27777   -1140.0169    2050.7922    125379.85    10.472245   0.24806029 
   49200   -1272.5841    149.04555   -1123.5385    2310.7546    125901.68    10.472245   0.24477567 
   49300   -1282.7339    143.54557   -1139.1883    2225.4847     118133.1    10.472245   0.22464861 
   49400    -1279.061    137.19492   -1141.8661    2127.0263     121242.8    10.472245   0.22326513 
   49500   -1272.5856    144.54565     -1128.04    2240.9896    126842.91    10.472245   0.24886966 
   49600   -1284.5701    142.86858   -1141.7015    2214.9889    118727.99    10.472245   0.21749202 
   49700   -1285.7079    142.36406   -1143.3438    2207.1669    116380.29    10.472245    0.1964177 
   49800   -1271.7434    139.72306   -1132.0204    2166.2216    126734.66    10.472245   0.21039235 
   49900   -1286.7951    136.63736   -1150.1577     2118.382    116397.57    10.472245   0.22496431 
   50000   -1282.0136    142.68871   -1139.3249    2212.2001    119600.43    10.472245   0.20163535 
   50100    -1279.903    148.62005    -1131.283    2304.1579    122783.86    10.472245   0.20084703 
   50200   -1277.2138    138.82084    -1138.393     2152.234    121865.68    10.472245   0.23193726 
   50300   -1285.2949    148.15236   -1137.1426    2296.9068    118596.69    10.472245   0.20027358 
   50400   -1278.3176     132.5508   -1145.7668    2055.0253    120248.89    10.472245   0.23163308 
   50500     -1279.64    145.63732   -1134.0027    2257.9145    122758.96    10.472245   0.20983086 
   50600   -1276.3675    143.44729   -1132.9202     2223.961    124166.21    10.472245   0.24048899 
   50700   -1283.4868    135.72251   -1147.7643    2104.1985    117879.22    10.472245   0.21432117 
   50800   -1275.3574    141.03745   -1134.3199    2186.5996    124230.52    10.472245   0.21688834 
   50900   -1277.6075    142.33021   -1135.2773    2206.6422    122174.57    10.472245    0.2458377 
   51000   -1271.7897    139.05201   -1132.7377    2155.8179    126896.19    10.472245   0.24171901 
   51100   -1281.7962    144.81683   -1136.9794    2245.1939    120644.52    10.472245    0.2264867 
   51200   -1283.6925    136.12594   -1147.5665     2110.453    118104.06    10.472245   0.22258051 
   51300    -1274.389    146.68781   -1127.7012    2274.2009    125287.54    10.472245   0.23092885 
   51400    -1278.696    142.06816   -1136.6278    2202.5793    120917.08    10.472245   0.22275369 
   51500   -1288.3776    143.82799   -1144.5496    2229.8633    115158.72    10.472245   0.21322537 
   51600   -1276.2835    140.09512   -1136.1884      2171.99    124402.98    10.472245   0.23662907 
   51700   -1268.4008    143.23699   -1125.1638    2220.7005     129099.2    10.472245   0.22408773 
   51800   -1282.8063    136.90999   -1145.8963    2122.6088    118501.17    10.472245   0.21771228 
   51900   -1269.9758    136.00945   -1133.9664     2108.647    126030.66    10.472245   0.22163964 
   52000   -1282.5279    159.71335   -1122.8146    2476.1447     121606.2    10.472245   0.19776471 
   52100    -1283.427    140.90808   -1142.5189    2184.5939    117296.75    10.472245    0.2253422 
   52200   -1281.3211    144.21353   -1137.1075    2235.8405    120575.45    10.472245   0.20704141 
   52300   -1275.0029    150.73828   -1124.2647    2336.9981    126878.95    10.472245   0.20746403 
   52400   -1283.9379    139.61874   -1144.3191    2164.6043    118293.93    10.472245   0.22736068 
   52500   -1279.9239    144.48021   -1135.4437    2239.9751    121968.27    10.472245   0.20063259 
   52600   -1277.4513    143.92858   -1133.5228    2231.4227    121325.06    10.472245   0.22417052 
   52700   -1283.1055    131.13713   -1151.9684    2033.1081    116793.06    10.472245   0.24526873 
   52800   -1270.5306    134.70542   -1135.8252    2088.4298    128214.46    10.472245   0.23641683 
   52900   -1276.9907    139.66655   -1137.3242    2165.3456    123325.36    10.472245   0.24517688 
   53000   -1292.0241    142.99527   -1149.0288    2216.9531    111897.89    10.472245   0.20469963 
   53100    -1269.741    142.21053   -1127.5305    2204.7867    127700.83    10.472245   0.23231751 
   53200   -1288.4681    149.31671   -1139.1514    2314.9586    116096.72    10.472245   0.18538784 
   53300    -1273.211    129.41643   -1143.7945    2006.4311    125915.64    10.472245   0.20693107 
   53400   -1281.0664    145.19915   -1135.8672    2251.1212     120687.4    10.472245   0.20800629 
   53500   -1277.8251    142.45196   -1135.3732    2208.5297       123454    10.472245   0.23300986 
   53600   -1277.4385    141.29772   -1136.1408    2190.6348    123089.48    10.472245    0.2175158 
   53700   -1285.4038    132.57401   -1152.8298    2055.3852    116227.82    10.472245   0.20538382 
   53800   -1285.9994    148.10758   -1137.8918    2296.2126    117696.67    10.472245   0.19266891 
   53900   -1281.1941    144.83894   -1136.3552    2245.5367    121082.12    10.472245   0.20447297 
   54000   -1284.2456    132.63109   -1151.6145    2056.2701    116171.06    10.472245   0.20950737 
   54100   -1279.9854    138.70573   -1141.2797    2150.4494    120606.31    10.472245   0.22338862 
   54200   -1273.0953    139.36538   -1133.7299    2160.6764    125729.39    10.472245   0.27011493 
   54300   -1273.1679    143.04553   -1130.1224    2217.7322    126163.93    10.472245   0.24473854 
   54400   -1283.1331    136.01537   -1147.1178    2108.7389    118962.06    10.472245   0.20021468 
   54500   -1282.5746    146.26566    -1136.309    2267.6562    120749.82    10.472245   0.20138937 
   54600   -1266.7509    155.88729   -1110.8636    2416.8268    131683.75    10.472245   0.23397212 
   54700   -1276.7778    147.13082   -1129.6469    2281.0692     123816.3    10.472245   0.20512624 
   54800   -1288.3731    144.77476   -1143.5984    2244.5416    115114.91    10.472245   0.20015344 
   54900   -1274.1084    139.84569   -1134.2627    2168.1229    124464.26    10.472245   0.25983517 
   55000   -1271.2853    144.17184   -1127.1134    2235.1942    127940.43    10.472245   0.21526671 
   55100   -1281.5172    142.69501   -1138.8222    2212.2978    120934.27    10.472245    0.2154412 
   55200   -1283.3246    142.57113   -1140.7535    2210.3772    119707.67    10.472245   0.20793277 
   55300   -1269.9921    140.43472   -1129.5574     2177.255    127285.25    10.472245   0.21906827 
   55400   -1281.3662    138.90471   -1142.4614    2153.5343    121120.05    10.472245   0.20500156 
   55500   -1283.1326    139.54522   -1143.5874    2163.4646    118934.03    10.472245   0.20137519 
   55600   -1276.1587    139.21276    -1136.946    2158.3101    123343.59    10.472245   0.23167853 
   55700   -1279.8928    142.19951   -1137.6933    2204.6157    121575.18    10.472245   0.20743945 
   55800    -1287.485    132.78562   -1154.6993    2058.6659    115496.13    10.472245   0.19764874 
   55900   -1276.7398     132.3624   -1144.3774    2052.1044    122940.64    10.472245   0.21232119 
   56000   -1271.6896    137.80153   -1133.8881     2136.431    125816.71    10.472245   0.23934056 
   56100    -1279.722    142.37871   -1137.3433     2207.394    121613.56    10.472245    0.2063318 
   56200   -1286.4757     138.0174   -1148.4583    2139.7777    116832.33    10.472245   0.20731736 
   56300   -1271.3182    136.81334   -1134.5049    2121.1103    127242.85    10.472245   0.24273763 
   56400   -1280.6264    144.34173   -1136.2847    2237.8281    121197.88    10.472245   0.24374527 
   56500   -1288.4005    135.02833   -1153.3721    2093.4361    114779.22    10.472245   0.20991097 
   56600   -1279.7275    138.48723   -1141.2403    2147.0618    121228.86    10.472245   0.19134669 
   56700   -1275.9244    137.69376   -1138.2306      2134.76    122880.97    10.472245   0.24759071 
   56800   -1275.1499    152.17994   -1122.9699    2359.3493    126091.95    10.472245    0.2180784 
   56900   -1283.2482    145.40683   -1137.8413     2254.341    119713.73    10.472245   0.23560661 
   57000   -1277.4031     137.3915   -1140.0116     2130.074    122470.38    10.472245   0.23869258 
   57100   -1275.6283    150.33549   -1125.2928    2330.7534    124772.95    10.472245   0.22359798 
   57200   -1280.0059    137.96963   -1142.0363    2139.0371    120567.45    10.472245   0.23195665 
   57300   -1280.4326    140.53764    -1139.895    2178.8508    122116.11    10.472245   0.22703458 
   57400   -1271.7494    144.67667   -1127.0727    2243.0209    127965.06    10.472245   0.22888397 
   57500    -1284.696    135.90806    -1148.788    2107.0752    117380.23    10.472245   0.20947098 
   57600   -1276.3025    141.68616   -1134.6164     2196.657    123555.27    10.472245   0.21052792 
   57700   -1281.2483     142.8169   -1138.4314    2214.1877    120123.59    10.472245   0.21951193 
   57800   -1286.7196    133.08819   -1153.6314    2063.3568    114302.92    10.472245   0.18925988 
   57900   -1276.0907    145.68774   -1130.4029    2258.6963    124169.75    10.472245     0.227111 
   58000   -1284.8832    144.02242   -1140.8608    2232.8776    118173.93    10.472245   0.20372182 
   58100    -1282.994    141.42749   -1141.5665    2192.6467     118664.2    10.472245    0.2049448 
   58200   -1265.6289    142.91725   -1122.7117    2215.7435    131482.76    10.472245   0.28388629 
   58300    -1278.949    143.52546   -1135.4235    2225.1729    121781.64    10.472245   0.22246637 
   58400   -1277.7855     136.7316   -1141.0539    2119.8431    121694.74    10.472245   0.21925271 
   58500   -1266.1542    145.68879   -1120.4654    2258.7125    130936.95    10.472245   0.25183342 
   58600   -1275.3597    140.45172    -1134.908    2177.5186    125790.42    10.472245   0.24970205 
   58700   -1280.3231    140.23001   -1140.0931    2174.0813    120962.23    10.472245   0.22942095 
   58800   -1274.7949    148.71019   -1126.0847    2305.5553    125365.23    10.472245   0.23355271 
   58900   -1276.7324    147.04107   -1129.6913    2279.6777    124041.76    10.472245    0.2595888 
   59000   -1275.7056     136.4157   -1139.2899    2114.9455    123735.03    10.472245   0.25349549 
   59100    -1275.305    146.95607    -1128.349    2278.3599    124033.86    10.472245   0.25069418 
   59200   -1274.4797    146.63013   -1127.8496    2273.3067    125730.09    10.472245   0.24257316 
   59300   -1279.0039    144.85524   -1134.1486    2245.7894    122416.46    10.472245   0.23945696 
   59400   -1277.3005    135.24057   -1142.0599    2096.7266    121715.36    10.472245   0.21479162 
   59500   -1283.1824    133.92959   -1149.2528    2076.4016    118366.04    10.472245   0.20605978 
   59600   -1273.5454    141.20119   -1132.3442    2189.1382     124181.2    10.472245   0.20692037 
   59700   -1278.4814    139.67466   -1138.8068    2165.4714    123119.26    10.472245    0.2228656 
   59800   -1294.6931    141.06895   -1153.6242     2187.088    111116.24    10.472245   0.18129566 
   59900   -1277.8697    140.22486   -1137.6448    2174.0014    122852.97    10.472245    0.1965346 
   60000   -1273.1132    134.08706   -1139.0262    2078.8429    124514.52    10.472245   0.22848959 
   60100   -1278.2454    141.20929   -1137.0361    2189.2637    121921.93    10.472245   0.21400997 
   60200   -1278.7184    150.92847   -1127.7899    2339.9468    122858.82    10.472245   0.22207497 
   60300   -1284.5791    144.60502   -1139.9741      2241.91     119339.2    10.472245   0.23679928 
   60400   -1280.1389    138.14804   -1141.9908    2141.8031    121122.92    10.472245   0.22855489 
   60500   -1268.8124    139.96927   -1128.8431    2170.0389    128563.39    10.472245   0.25021251 
   60600   -1271.7549    132.62559   -1139.1293    2056.1848    126909.03    10.472245   0.25381636 
   60700   -1279.9945     144.5615   -1135.4329    2241.2354    121774.09    10.472245   0.23973014 
   60800   -1269.6584    150.12341    -1119.535    2327.4654    127903.18    10.472245   0.26635272 
   60900   -1271.1419     134.9507   -1136.1912    2092.2326    125716.44    10.472245   0.24920064 
   61000   -1278.5628    141.55118   -1137.0116    2194.5643    122813.33    10.472245   0.22369105 
   61100   -1268.9603    147.06584   -1121.8945    2280.0618    128807.12    10.472245   0.24700471 
   61200   -1286.0599    144.74982   -1141.3101     2244.155    117344.35    10.472245   0.22307512 
   61300   -1278.7245    139.44801   -1139.2765    2161.9575    121579.85    10.472245    0.2156343 
   61400   -1275.6703    153.40691   -1122.2634    2378.3717    125943.21    10.472245   0.23749551 
   61500    -1278.465    137.96469   -1140.5003    2138.9604    122626.19    10.472245   0.20351164 
   61600    -1285.433    142.27028   -1143.1627     2205.713    117800.88    10.472245   0.19741113 
   61700    -1276.243    144.32972   -1131.9133     2237.642    124720.08    10.472245   0.22050511 
   61800     -1281.48    137.67167   -1143.8083    2134.4176    119610.42    10.472245   0.20059399 
   61900   -1282.1318    135.92414   -1146.2076    2107.3244    118439.75    10.472245   0.21313734 
   62000   -1281.3532    148.65479   -1132.6984    2304.6964    121995.34    10.472245   0.20378307 
   62100   -1280.1525     136.8996   -1143.2529    2122.4476    121269.33    10.472245   0.20718028 
   62200   -1292.9627    136.15722   -1156.8054     2110.938    111475.36    10.472245    0.1831388 
   62300    -1282.986    141.83527   -1141.1507    2198.9688    119143.88    10.472245   0.20172569 
   62400   -1276.8585     144.2338   -1132.6247    2236.1549     122704.7    10.472245   0.23383434 
   62500   -1284.7632    142.01836   -1142.7449    2201.8073    117032.07    10.472245   0.22393605 
   62600   -1281.8417    139.39656   -1142.4452    2161.1598    119762.94    10.472245   0.20990322 
   62700   -1274.8432    143.22139   -1131.6219    2220.4587    125487.52    10.472245   0.25924481 
   62800   -1280.3761    135.03964   -1145.3364    2093.6114    121077.49    10.472245   0.21969602 
   62900   -1285.4846    128.89137   -1156.5932    1998.2906    114933.84    10.472245    0.2298944 
   63000   -1274.7718    138.43927   -1136.3325    2146.3182    124155.92    10.472245    0.2432762 
   63100   -1276.1291    142.84533   -1133.2837    2214.6284    123852.23    10.472245    0.2429846 
   63200   -1283.0543    132.03769   -1151.0167    2047.0702    117502.35    10.472245   0.19750657 
   63300    -1281.238    140.87872   -1140.3593    2184.1387    119712.45    10.472245   0.20943914 
   63400   -1276.5133    138.23717   -1138.2761     2143.185     123006.1    10.472245   0.19677924 
   63500    -1286.642     139.4453   -1147.1967    2161.9154    116734.68    10.472245    0.2026414 
   63600   -1276.8785    145.41174   -1131.4667    2254.4173    124068.35    10.472245   0.24504149 
   63700   -1274.7135     142.1875    -1132.526    2204.4296    125379.84    10.472245   0.22690849 
   63800   -1281.2628    140.34551   -1140.9173     2175.872    120909.59    10.472245   0.21363339 
   63900   -1276.5836    139.83843   -1136.7452    2168.0104    123239.93    10.472245   0.22144052 
   64000   -1273.6458    147.35759   -1126.2882    2284.5851    126810.33    10.472245   0.22096182 
   64100   -1275.9676    138.21975   -1137.7479    2142.9149    123150.56    10.472245   0.22348204 
   64200   -1271.3311    128.72367   -1142.6074    1995.6907    124765.95    10.472245    0.2494571 
   64300   -1277.7049    145.05494     -1132.65    2248.8854     123071.6    10.472245   0.23674397 
   64400   -1281.6127    144.11871    -1137.494    2234.3705    120121.67    10.472245   0.22045223 
   64500   -1276.7709     136.8658   -1139.9051    2121.9236    122704.95    10.472245   0.23068461 
   64600   -1271.7277    142.21744   -1129.5103    2204.8938    125611.15    10.472245   0.22813855 
   64700   -1278.7127    135.76061   -1142.9521    2104.7892    122095.29    10.472245   0.23409416 
   64800   -1277.8324    138.18465   -1139.6477    2142.3708    121101.09    10.472245   0.24200863 
   64900   -1281.4837    147.05837   -1134.4253     2279.946     121184.1    10.472245   0.19501903 
   65000   -1277.5834    138.01815   -1139.5653    2139.7894    122303.08    10.472245    0.2266122 
   65100   -1282.0544    140.19307   -1141.8613    2173.5085    120383.31    10.472245   0.19332399 
   65200   -1276.1904    141.55921   -1134.6312    2194.6888    122942.44    10.472245   0.24821921 
   65300   -1272.8083    142.52706   -1130.2812    2209.6941    125527.71    10.472245   0.23185579 
   65400   -1283.6503    140.85933    -1142.791     2183.838     117986.3    10.472245   0.20267311 
   65500   -1279.1991    145.02229   -1134.1768    2248.3794    122336.71    10.472245   0.23972876 
   65600   -1271.9467    148.33505   -1123.6117    2299.7393    127622.29    10.472245   0.24428529 
   65700    -1271.325    135.40743   -1135.9176    2099.3136     126268.4    10.472245   0.27381208 
   65800   -1283.9112    139.81848   -1144.0927     2167.701    117740.63    10.472245   0.22165279 
   65900   -1285.6862    135.58273   -1150.1035    2102.0314    117189.74    10.472245   0.22953278 
   66000   -1276.2245    143.92801   -1132.2965    2231.4139    124397.45    10.472245   0.21937814 
   66100   -1279.2826    134.13655   -1145.1461    2079.6102    121128.91    10.472245   0.23164607 
   66200   -1289.8422    153.12585   -1136.7163    2374.0143    116835.89    10.472245   0.21340354 
   66300   -1274.5881    137.06273   -1137.5254    2124.9767     123025.2    10.472245   0.26273175 
   66400   -1285.2146    145.43836   -1139.7763    2254.8299    118068.68    10.472245   0.18860673 
   66500   -1279.5419    130.17481   -1149.3671    2018.1887    120035.49    10.472245   0.25711926 
   66600    -1276.907    144.91804    -1131.989    2246.7631    124220.82    10.472245   0.21142251 
   66700   -1283.6103      140.948   -1142.6623    2185.2127     118352.3    10.472245   0.22468408 
   66800   -1277.7135     144.1482   -1133.5653    2234.8277    123649.17    10.472245   0.20040843 
   66900   -1267.7635    138.23027   -1129.5332    2143.0779    129258.38    10.472245   0.24094019 
   67000   -1285.4651    140.55056   -1144.9145    2179.0511    117198.78    10.472245   0.19111596 
   67100   -1277.8226    142.11637   -1135.7062    2203.3268    122210.82    10.472245    0.2507353 
   67200   -1274.1328    143.43289   -1130.6999    2223.7377    125545.67    10.472245   0.29417764 
   67300   -1280.4659    145.14967   -1135.3162    2250.3542     121768.2    10.472245   0.26047429 
   67400   -1275.7734    139.36891   -1136.4045     2160.731     124275.4    10.472245   0.23529041 
   67500   -1283.3761    147.09908    -1136.277    2280.5771    120524.14    10.472245   0.23154525 
   67600   -1281.5062    142.93713   -1138.5691    2216.0517    120678.02    10.472245   0.22002618 
   67700   -1290.2018    141.79706   -1148.4047    2198.3764    114114.23    10.472245   0.20024234 
   67800   -1277.4879     146.5885   -1130.8994    2272.6613    122557.61    10.472245   0.21401898 
   67900   -1276.7776    140.76696   -1136.0107     2182.406    124314.26    10.472245   0.21123434 
   68000   -1279.9064    139.46361   -1140.4428    2162.1993     121982.6    10.472245   0.21371455 
   68100    -1285.171    148.42381   -1136.7472    2301.1154    118216.92    10.472245   0.20081295 
   68200   -1272.5062    139.81769   -1132.6885    2167.6888    126064.12    10.472245   0.26305892 
   68300   -1266.0682    145.65503   -1120.4132    2258.1891    130744.88    10.472245   0.26978105 
   68400    -1289.431    150.24243   -1139.1885    2329.3106    115139.04    10.472245   0.20377644 
   68500   -1278.7486    136.09898   -1142.6496    2110.0352    122190.24    10.472245   0.22225858 
   68600   -1276.2565    148.91493   -1127.3415    2308.7295    123591.66    10.472245   0.24797048 
   68700   -1283.5888    149.36115   -1134.2277    2315.6476    118734.04    10.472245   0.19135172 
   68800   -1280.5576    141.81256    -1138.745    2198.6167    122008.45    10.472245   0.21455571 
   68900   -1271.9474    139.10127   -1132.8461    2156.5817    124670.36    10.472245   0.24294793 
   69000   -1284.1581    149.85868   -1134.2994    2323.3611    119033.31    10.472245   0.19238182 
   69100   -1281.4781    137.42287   -1144.0552    2130.5603    120731.22    10.472245   0.22899074 
   69200   -1274.2814    141.85601   -1132.4254    2199.2902    125709.49    10.472245   0.25328863 
   69300   -1277.0556    139.59051   -1137.4651    2164.1667    122466.57    10.472245   0.21341226 
   69400   -1288.0923    134.44477   -1153.6475    2084.3888    115402.44    10.472245   0.19342482 
   69500   -1285.8923    137.56712   -1148.3252    2132.7967    115986.48    10.472245   0.19400936 
   69600   -1276.0108    141.67752   -1134.3333     2196.523    123532.97    10.472245   0.23616743 
   69700   -1279.4585    143.95329   -1135.5052    2231.8058    121945.94    10.472245   0.21115825 
   69800   -1284.0287    139.61229   -1144.4164    2164.5044    118485.26    10.472245   0.21266583 
   69900   -1277.4529    138.30103   -1139.1518     2144.175    123585.28    10.472245   0.22120605 
   70000     -1284.46    153.08875   -1131.3713    2373.4391    119259.16    10.472245   0.19390056 
   70100    -1274.434    153.45051   -1120.9835    2379.0478    125812.27    10.472245   0.22007855 
   70200   -1277.9186    139.67303   -1138.2456    2165.4461    122163.83    10.472245   0.23169574 
   70300   -1273.7761    138.39647   -1135.3797    2145.6546    123928.06    10.472245   0.21390752 
   70400   -1281.1489    152.73279   -1128.4161    2367.9204    122589.29    10.472245   0.19750734 
   70500   -1289.4935    144.13164   -1145.3619    2234.5709    114696.24    10.472245   0.21138319 
   70600   -1273.1323    137.16911   -1135.9632    2126.6261    124643.44    10.472245   0.26055493 
   70700     -1264.96     137.9405   -1127.0195    2138.5854    131120.44    10.472245   0.27014899 
   70800   -1281.1864    143.23364   -1137.9527    2220.6487     121410.7    10.472245   0.22869473 
   70900   -1285.4868    133.57122   -1151.9156    2070.8455    117086.01    10.472245   0.20336938 
   71000   -1274.4583     145.7533   -1128.7049    2259.7127    125557.37    10.472245   0.20731566 
   71100   -1277.6612    137.40364   -1140.2575    2130.2621    122469.54    10.472245   0.23168646 
   71200   -1286.2471     141.7784   -1144.4687     2198.087    116157.93    10.472245   0.20843846 
   71300   -1272.9427    145.70979   -1127.2329     2259.038    126947.99    10.472245   0.25920175 
   71400   -1285.5298    143.24942   -1142.2804    2220.8932    117611.02    10.472245    0.2362226 
   71500   -1272.9934    131.13333     -1141.86    2033.0492    125231.71    10.472245   0.25531045 
   71600   -1275.3123     145.2238   -1130.0885    2251.5034    125424.55    10.472245   0.23824563 
   71700   -1285.7422    140.04659   -1145.6956    2171.2377    116692.37    10.472245   0.21435748 
   71800   -1275.7606    130.31793   -1145.4426    2020.4076     122898.5    10.472245   0.20883578 
   71900    -1279.847    144.79471   -1135.0523     2244.851    121996.29    10.472245    0.2203049 
   72000   -1280.8705     139.2338   -1141.6367    2158.6363    120364.77    10.472245   0.22827959 
   72100   -1283.4392    135.57602   -1147.8632    2101.9272    117585.73    10.472245   0.21891236 
   72200    -1279.965    146.01433   -1133.9507    2263.7595    120978.46    10.472245   0.23457792 
   72300    -1278.902    134.53005   -1144.3719     2085.711    121921.42    10.472245   0.20727978 
   72400   -1283.5887    135.13404   -1148.4547    2095.0749    117008.25    10.472245   0.21317828 
   72500   -1274.9537     139.9487    -1135.005      2169.72    123104.96    10.472245   0.25295174 
   72600   -1278.9399    146.91648   -1132.0234    2277.7462     122113.2    10.472245   0.23695857 
   72700   -1285.9484     136.5728   -1149.3756     2117.381    117027.02    10.472245   0.22931828 
   72800   -1275.4073     139.8014   -1135.6059    2167.4362    124087.93    10.472245   0.25389982 
   72900   -1278.8396    143.94658   -1134.8931    2231.7019    122834.91    10.472245   0.24349146 
   73000   -1277.8311    127.92543   -1149.9057    1983.3151    119337.67    10.472245   0.24452137 
   73100   -1278.3992    144.43464   -1133.9646    2239.2686    123423.09    10.472245   0.21867009 
   73200   -1276.9936    144.40294   -1132.5907     2238.777    123878.13    10.472245   0.21863638 
   73300   -1281.7023    134.74236     -1146.96    2089.0025    119188.05    10.472245   0.21022182 
   73400   -1282.2706    143.13077   -1139.1398    2219.0538     119591.5    10.472245   0.20681896 
   73500   -1273.9714    139.15363   -1134.8178    2157.3935    124431.78    10.472245   0.21834873 
   73600    -1269.906    138.27386   -1131.6321    2143.7538    128580.32    10.472245   0.26183937 
   73700   -1280.4463    145.82779   -1134.6186    2260.8675    121699.19    10.472245   0.21428911 
   73800    -1285.158     137.2953   -1147.8627    2128.5825    116910.09    10.472245   0.21397379 
   73900   -1272.2591    143.29011    -1128.969    2221.5242     126931.1    10.472245   0.24898651 
   74000   -1275.7383    145.56565   -1130.1727    2256.8034    124549.31    10.472245   0.22818132 
   74100   -1282.1259    137.97226   -1144.1536    2139.0779    120034.96    10.472245   0.21381314 
   74200   -1280.0425    143.50993   -1136.5326    2224.9322    120951.16    10.472245   0.21291955 
   74300   -1281.3234    139.83443    -1141.489    2167.9484    120240.91    10.472245   0.20943337 
   74400   -1287.1671    141.87118   -1145.2959    2199.5254    117107.08    10.472245   0.19429672 
   74500   -1269.4283    139.17217   -1130.2561    2157.6809    127403.88    10.472245   0.25179914 
   74600   -1275.4507    142.31842   -1133.1322    2206.4593    123375.47    10.472245    0.2397174 
   74700   -1285.9339    137.25718   -1148.6767    2127.9914    117936.97    10.472245   0.19121005 
   74800   -1272.3084    140.73078   -1131.5776    2181.8451    126069.96    10.472245   0.25309502 
   74900   -1282.5881     148.5908   -1133.9973    2303.7043    120198.21    10.472245   0.22864065 
   75000   -1278.0051    135.11443   -1142.8907    2094.7709    121848.02    10.472245   0.23785404 
   75100   -1268.6357    140.36668    -1128.269    2176.2001    130097.39    10.472245    0.2476363 
   75200   -1277.0488    152.26428   -1124.7845    2360.6568    124244.32    10.472245    0.2562993 
   75300   -1285.3818    144.74486   -1140.6369    2244.0781    117003.33    10.472245   0.19704368 
   75400   -1285.0993    139.75596   -1145.3434    2166.7318    117736.42    10.472245   0.20542029 
   75500   -1276.8831    147.81081   -1129.0723    2291.6117    123768.06    10.472245   0.20108744 
   75600   -1278.9892    137.85071   -1141.1385    2137.1935       121634    10.472245   0.28485824 
   75700   -1292.9241    135.93328   -1156.9909    2107.4662    111639.18    10.472245   0.18418118 
   75800   -1283.7419    142.39494   -1141.3469    2207.6456    118013.88    10.472245   0.21810755 
   75900    -1278.269    143.95865   -1134.3103     2231.889    122575.25    10.472245   0.19249924 
   76000   -1285.8877    139.02815   -1146.8596     2155.448    116704.84    10.472245    0.1963476 
   76100    -1285.907    139.52314   -1146.3839    2163.1221    117818.75    10.472245   0.20055212 
   76200   -1273.6604    143.58305   -1130.0773    2226.0658    125343.99    10.472245   0.22769274 
   76300   -1282.8777    138.64039   -1144.2373    2149.4363    118849.13    10.472245   0.23249062 
   76400   -1275.8775    144.65065   -1131.2268    2242.6175    122720.98    10.472245      0.21807 
   76500   -1281.7156    148.70883   -1133.0068    2305.5342    120685.54    10.472245   0.21396525 
   76600   -1287.1976     146.3196    -1140.878    2268.4924    118581.53    10.472245   0.20299405 
   76700    -1278.017    143.24863   -1134.7684    2220.8811    122273.45    10.472245   0.21142428 
   76800    -1273.976    144.96351   -1129.0125     2247.468    125589.17    10.472245   0.23423921 
   76900   -1283.7673    139.20847   -1144.5588    2158.2437    119247.88    10.472245   0.19218161 
   77000   -1281.1234    144.36196   -1136.7615    2238.1417    121401.51    10.472245   0.20720515 
   77100    -1264.247    141.14818   -1123.0988    2188.3163    132440.07    10.472245   0.28131163 
   77200   -1283.9955    146.80362   -1137.1919    2275.9965    119700.93    10.472245   0.21593705 
[...]
   81400   -1272.2758    148.68439   -1123.5914    2305.1553    126900.56    10.472245   0.25367631 
   81500   -1279.0042    140.10561   -1138.8986    2172.1527    121529.23    10.472245   0.24086721 
   81600   -1289.1108    147.11921   -1141.9916    2280.8892    115793.74    10.472245   0.19745958 
   81700    -1275.176    149.90837   -1125.2676    2324.1314    125190.14    10.472245   0.19478536 
   81800   -1277.1776    142.43129   -1134.7463    2208.2092    123350.91    10.472245   0.21301368 
   81900   -1283.2627    140.45714   -1142.8056    2177.6026    118146.83    10.472245   0.21917733 
   82000   -1273.3687     140.4353   -1132.9334     2177.264    126098.38    10.472245   0.22777121 
   82100   -1265.1036     146.1523   -1118.9513    2265.8986    131341.25    10.472245   0.23366467 
   82200   -1280.0476    143.93951   -1136.1081    2231.5923    122223.01    10.472245   0.24376723 
   82300   -1285.9532    143.28747   -1142.6657    2221.4832    116894.46    10.472245   0.19176669 
   82400   -1279.2033    145.66314   -1133.5402    2258.3147    121950.23    10.472245   0.23915763 
   82500   -1275.7551    150.84783   -1124.9073    2338.6966    124819.66    10.472245   0.22407592 
   82600   -1275.5641     133.2663   -1142.2978    2066.1182    123475.14    10.472245    0.2633952 
   82700   -1276.3948     142.7699   -1133.6249     2213.459     123371.4    10.472245   0.20647387 
   82800   -1288.9883    138.56916   -1150.4191    2148.3321    115072.92    10.472245   0.18985771 
   82900   -1281.9794    141.73863   -1140.2408    2197.4704    119100.39    10.472245   0.20095504 
   83000    -1278.473    142.36832   -1136.1046     2207.233    122928.55    10.472245   0.24738339 
   83100   -1277.5922    146.11995   -1131.4722    2265.3971    124135.13    10.472245   0.22527249 
   83200   -1285.5053    139.85646   -1145.6488      2168.29    117981.24    10.472245   0.21770244 
   83300    -1277.347    138.54629   -1138.8007    2147.9774    122132.18    10.472245   0.23850969 
   83400   -1274.7514    145.49139     -1129.26     2255.652    125808.97    10.472245   0.23601031 
   83500   -1282.3662    138.90486   -1143.4613    2153.5366    119149.13    10.472245   0.18903632 
   83600   -1284.3716    143.82122   -1140.5504    2229.7583    119115.25    10.472245   0.21800636 
   83700   -1277.0803    139.92978   -1137.1505    2169.4266    123607.01    10.472245   0.23642787 
   83800   -1269.6627    143.23555   -1126.4271    2220.6782     128267.3    10.472245   0.23243846 
   83900   -1268.8761    145.38541   -1123.4907    2254.0089    128380.34    10.472245   0.23700846 
   84000   -1281.5166    141.53793   -1139.9786    2194.3589    119787.14    10.472245   0.19579222 
   84100   -1286.7883    139.00952   -1147.7788    2155.1592    116011.47    10.472245   0.21335837 
   84200   -1278.5894    148.87425   -1129.7152    2308.0989    123085.36    10.472245   0.22447756 
   84300   -1272.4507    132.19189   -1140.2588    2049.4608    125312.11    10.472245   0.24789334 
   84400   -1284.7359    140.68755   -1144.0484    2181.1748    118569.23    10.472245   0.20184707 
   84500   -1271.6518    140.43487   -1131.2169    2177.2573    126631.66    10.472245   0.26134876 
   84600   -1272.8574    142.46821   -1130.3892    2208.7817    127021.52    10.472245   0.23694523 
   84700   -1279.4513    137.82252   -1141.6288    2136.7564    121160.98    10.472245   0.28288171 
   84800   -1279.4681    144.22101   -1135.2471    2235.9565    122724.58    10.472245   0.26565812 
   84900   -1274.8323    150.05866   -1124.7737    2326.4615    124955.13    10.472245   0.27715902 
   85000   -1278.5089    136.92608   -1141.5828    2122.8583    121265.98    10.472245   0.27421025 
   85100   -1271.7919    139.37212   -1132.4198    2160.7808     126665.1    10.472245    0.2781115 
   85200   -1280.0577    150.22269    -1129.835    2329.0047    123597.59    10.472245   0.31384932 
   85300   -1289.5379     150.8514   -1138.6865     2338.752    116352.67    10.472245   0.23479566 
   85400   -1284.8573     145.2682   -1139.5892    2252.1917    119080.66    10.472245   0.29291218 
   85500   -1267.6612    148.81112   -1118.8501    2307.1201    129911.07    10.472245   0.30056406 
   85600   -1278.1796    141.97271   -1136.2069    2201.0996    122815.12    10.472245   0.24596376 
   85700   -1283.1814    140.44932   -1142.7321    2177.4815    119005.62    10.472245   0.27797834 
   85800   -1272.5194     147.5752   -1124.9442    2287.9588    128007.66    10.472245   0.30831965 
   85900    -1276.011    135.47666   -1140.5343    2100.3869    123216.69    10.472245   0.30947489 
   86000   -1278.7038    136.86117   -1141.8427    2121.8519    120842.91    10.472245   0.30618458 
   86100   -1277.8707    149.23363   -1128.6371    2313.6705    123939.22    10.472245   0.30186922 
   86200   -1286.1747    140.85853   -1145.3161    2183.8257    116673.89    10.472245   0.25906061 
   86300    -1280.579    136.67044   -1143.9085    2118.8948    120212.36    10.472245   0.27230685 
   86400   -1280.4682    149.29266   -1131.1755    2314.5857    122317.54    10.472245   0.28069511 
   86500   -1271.4338     136.8308    -1134.603     2121.381    126028.13    10.472245   0.33096885 
   86600   -1264.0083    145.19231    -1118.816    2251.0153    131790.98    10.472245   0.33617392 
   86700   -1283.6584    146.99918   -1136.6592    2279.0283    119571.41    10.472245   0.28651819 
   86800   -1284.9873    141.53332    -1143.454    2194.2875    117679.75    10.472245   0.25232355 
   86900   -1282.3032    152.55944   -1129.7438    2365.2328    121467.78    10.472245   0.26839262 
   87000    -1280.007    143.30568   -1136.7013    2221.7655    120970.46    10.472245   0.28459014 
   87100   -1283.5826    139.87653   -1143.7061    2168.6011    118712.69    10.472245   0.25602832 
   87200   -1276.5251    136.46558   -1140.0595    2115.7187    122016.16    10.472245   0.27142861 
   87300   -1281.2837    146.36868    -1134.915    2269.2533    121095.76    10.472245   0.29859938 
   87400   -1273.1105    147.22149    -1125.889    2282.4749    126856.96    10.472245     0.287048 
   87500   -1280.4821    136.76043   -1143.7216    2120.2901    121067.67    10.472245   0.28209119 
   87600   -1270.9254    133.40082   -1137.5246    2068.2037    127691.07    10.472245   0.32147584 
   87700   -1273.3058    147.30484    -1126.001    2283.7672    125884.35    10.472245   0.33451564 
   87800   -1278.6108    141.80774   -1136.8031     2198.542    121551.18    10.472245   0.30006314 
   87900   -1292.7859    136.52073   -1156.2652    2116.5738    112027.99    10.472245   0.25486607 
   88000   -1292.6432    138.97981   -1153.6634    2154.6985    113247.43    10.472245   0.26423467 
   88100   -1281.4933    146.05054   -1135.4428     2264.321    120801.66    10.472245   0.29178514 
   88200    -1279.874    145.52604   -1134.3479    2256.1892    123348.11    10.472245   0.26851792 
   88300   -1289.4896    143.53193   -1145.9577    2225.2732    114753.83    10.472245   0.26500334 
   88400   -1281.2253    140.08844   -1141.1368    2171.8864    119565.91    10.472245   0.30163477 
   88500   -1271.5474    138.54766   -1132.9997    2147.9987    126367.91    10.472245   0.30246918 
   88600   -1281.4076    144.66242   -1136.7452    2242.7999    120438.48    10.472245   0.25618213 
   88700   -1287.0222     139.4079   -1147.6143    2161.3355     114732.5    10.472245   0.27582838 
   88800   -1287.9619     139.7613   -1148.2006    2166.8146    115628.86    10.472245   0.26497518 
   88900   -1273.6807    141.36092   -1132.3198    2191.6146    126501.55    10.472245   0.30108117 
   89000   -1286.1096    142.17602   -1143.9336    2204.2516    116280.46    10.472245   0.26176678 
   89100   -1281.8695    133.96233   -1147.9072    2076.9092    118126.09    10.472245   0.28269855 
   89200     -1276.33    138.91288   -1137.4171    2153.6609    123377.71    10.472245   0.33061064 
   89300   -1276.8866    142.02644   -1134.8601    2201.9325    123972.07    10.472245   0.31927245 
   89400   -1291.4942    138.17534   -1153.3188    2142.2263    113011.95    10.472245   0.30542233 
   89500   -1278.4394    141.31839   -1137.1211    2190.9552     122486.9    10.472245   0.29509515 
   89600   -1273.8658    143.48336   -1130.3824    2224.5203    126183.57    10.472245   0.30075659 
   89700   -1289.6431    142.37719   -1147.2659    2207.3704    115418.45    10.472245   0.29220338 
   89800   -1280.8979    143.91409   -1136.9838    2231.1982    121010.87    10.472245   0.26911766 
   89900    -1276.423    144.30974   -1132.1132    2237.3321    124146.14    10.472245   0.29241895 
   90000   -1281.5407    144.87501   -1136.6656     2246.096    120692.73    10.472245   0.30289731 
   90100   -1287.9366    139.26277   -1148.6738    2159.0855    115841.68    10.472245    0.2590913 
   90200   -1284.9286    138.23526   -1146.6933    2143.1554    117933.36    10.472245   0.26315339 
   90300   -1279.5618    142.72846   -1136.8334    2212.8165    120965.44    10.472245   0.31178501 
   90400   -1277.7239    146.58387     -1131.14    2272.5895    123238.04    10.472245   0.31364408 
   90500   -1280.0509    151.14423   -1128.9066    2343.2919    122562.74    10.472245   0.30594048 
   90600   -1281.9959    138.60596   -1143.3899    2148.9026     119334.1    10.472245   0.30747029 
   90700   -1273.0602    145.95454   -1127.1056    2262.8326    126434.69    10.472245   0.33322658 
   90800   -1275.2643    148.17826    -1127.086    2297.3085     124890.2    10.472245   0.28359876 
   90900    -1285.559    147.32576   -1138.2332    2284.0916    119404.72    10.472245    0.2697613 
   91000   -1276.4261    132.17842   -1144.2477     2049.252    121755.19    10.472245   0.26927559 
   91100   -1285.4529    148.01004   -1137.4429    2294.7004    117870.72    10.472245   0.27675027 
   91200   -1278.0195    146.26562   -1131.7539    2267.6555    123348.04    10.472245   0.31756641 
   91300    -1289.551    139.61194   -1149.9391    2164.4989    115105.87    10.472245   0.26867523 
   91400   -1276.7661    138.04418   -1138.7219    2140.1929    122003.45    10.472245   0.33029568 
   91500   -1278.4425    142.52031   -1135.9222    2209.5894     123425.4    10.472245   0.28708369 
   91600   -1289.0908    137.01272   -1152.0781    2124.2014    113775.32    10.472245     0.293674 
   91700     -1278.84    138.95261   -1139.8874    2154.2769    121121.48    10.472245   0.27488745 
   91800   -1283.5241    145.16803    -1138.356    2250.6388    119042.05    10.472245   0.27540974 
   91900   -1288.1408     145.6931   -1142.4477    2258.7794    115624.05    10.472245   0.30364973 
   92000    -1277.488    139.02513   -1138.4628    2155.4012    122467.87    10.472245   0.28021873 
   92100   -1273.5729    145.15118   -1128.4217    2250.3776    126000.55    10.472245   0.26871891 
   92200   -1291.8716    145.66566   -1146.2059    2258.3538    113996.68    10.472245   0.28074242 
   92300   -1282.8397    144.58313   -1138.2565    2241.5706    118324.29    10.472245   0.26573872 
   92400   -1278.5101    141.92658   -1136.5835    2200.3844    122616.07    10.472245   0.27710771 
   92500    -1273.681    138.69437   -1134.9866    2150.2732    124484.06    10.472245   0.30224319 
   92600   -1280.7413    137.15565   -1143.5856    2126.4174    118978.53    10.472245   0.31051807 
   92700   -1274.2675    142.62384   -1131.6436    2211.1945    124213.26    10.472245   0.28725434 
   92800   -1275.3464    143.31712   -1132.0292    2221.9429    124535.56    10.472245   0.27197286 
   92900   -1286.5435    143.36548    -1143.178    2222.6927    117330.89    10.472245   0.25828261 
   93000   -1277.8317    143.75885   -1134.0728    2228.7913    123532.98    10.472245   0.27668738 
   93100   -1271.6146    148.14076   -1123.4738    2296.7271    128209.11    10.472245   0.29582812 
   93200   -1285.1812    142.63702   -1142.5442    2211.3988       118070    10.472245   0.28751877 
   93300   -1280.7514    143.33461   -1137.4168    2222.2141    120486.06    10.472245   0.28307625 
   93400   -1277.9708    154.02484   -1123.9459     2387.952    124432.89    10.472245   0.29961658 
   93500   -1278.6179    142.24376   -1136.3742    2205.3018    121979.67    10.472245   0.26875232 
   93600   -1273.7277    134.44461   -1139.2831    2084.3862    123539.81    10.472245   0.31078407 
   93700   -1274.7767    150.88244   -1123.8942    2339.2332    125559.56    10.472245   0.28476117 
   93800     -1278.63    134.03542   -1144.5945    2078.0423    120837.18    10.472245   0.28274968 
   93900   -1275.3003    136.84976   -1138.4505     2121.675     124695.3    10.472245   0.27580766 
   94000    -1273.409    147.98597    -1125.423    2294.3273    126266.74    10.472245   0.27073415 
   94100   -1284.1648    148.55472   -1135.6101    2303.1449     120044.8    10.472245   0.27162503 
   94200   -1286.5229    141.67216   -1144.8508    2196.4399    116947.92    10.472245   0.28613109 
   94300   -1274.8396    148.28657   -1126.5531    2298.9876    124746.96    10.472245   0.27303188 
   94400   -1283.4353     146.9981   -1136.4372    2279.0116    119515.76    10.472245   0.25837258 
   94500   -1280.7858      140.215   -1140.5708    2173.8485    120417.93    10.472245    0.2641124 
   94600   -1277.2434    153.37269   -1123.8707    2377.8411    125247.37    10.472245   0.28536095 
   94700    -1284.635    145.90056   -1138.7344    2261.9957     118444.7    10.472245   0.27250065 
   94800   -1280.9308     135.7571   -1145.1737    2104.7347    119517.97    10.472245    0.2846164 
   94900   -1266.1883    139.91715   -1126.2711    2169.2308    130112.92    10.472245   0.30963286 
   95000   -1284.6949    148.17819   -1136.5167    2297.3073    118620.76    10.472245   0.25501632 
   95100   -1281.8937    140.27089   -1141.6228     2174.715    119469.76    10.472245   0.26859163 
   95200   -1275.4372    149.58523   -1125.8519    2319.1216    124693.05    10.472245   0.28318999 
   95300    -1277.173    147.27643   -1129.8965    2283.3267    123617.35    10.472245   0.29674088 
   95400   -1278.6418    139.52769   -1139.1141    2163.1928    121723.55    10.472245   0.30084108 
   95500   -1276.2262    141.90153   -1134.3247     2199.996    124256.08    10.472245   0.26407046 
   95600   -1270.4356    146.67005   -1123.7656    2273.9257    128529.34    10.472245   0.29253252 
   95700   -1281.9788    140.12777   -1141.8511    2172.4962    119693.45    10.472245   0.27378603 
   95800   -1274.2154    141.76873   -1132.4467    2197.9371       124972    10.472245   0.31021918 
   95900   -1273.0903    145.66553   -1127.4248    2258.3519     125964.8    10.472245   0.31623987 
   96000   -1281.6502    138.37053   -1143.2796    2145.2525    119206.01    10.472245   0.30035243 
   96100   -1278.9552    147.30127   -1131.6539    2283.7118     121766.6    10.472245   0.28326457 
   96200   -1280.5735    157.83842   -1122.7351    2447.0764    122774.45    10.472245   0.28073893 
   96300   -1290.5372    148.21718   -1142.3201    2297.9118     114556.4    10.472245   0.26492441 
   96400   -1283.9429    146.11263   -1137.8303    2265.2836     119083.8    10.472245   0.27395507 
   96500   -1271.9504     144.3558   -1127.5946    2238.0462    126963.68    10.472245   0.28742586 
   96600   -1286.0198    136.05399   -1149.9658    2109.3377    116623.74    10.472245   0.27090757 
   96700   -1284.8889     147.4305   -1137.4584    2285.7155    118715.47    10.472245   0.27993254 
   96800   -1276.0597    141.07969     -1134.98    2187.2545    124709.93    10.472245   0.27010337 
   96900    -1284.093    134.61713   -1149.4759     2087.061    117736.25    10.472245   0.28019553 
   97000   -1286.4331    145.75004   -1140.6831    2259.6622    117078.58    10.472245   0.26525411 
   97100    -1272.138    139.89267   -1132.2453    2168.8513    126894.29    10.472245   0.38091245 
   97200   -1269.5799    143.49872   -1126.0812    2224.7583    128299.35    10.472245   0.34680579 
   97300   -1276.4268    133.62321   -1142.8036    2071.6515    121920.01    10.472245   0.27993149 
   97400   -1280.1294    144.98647   -1135.1429     2247.824     121486.5    10.472245   0.28661872 
   97500   -1277.0871     150.9524   -1126.1347    2340.3179    123990.91    10.472245   0.26971115 
   97600   -1284.7813    150.78009   -1134.0012    2337.6464    118374.18    10.472245   0.27018205 
   97700   -1285.7013    142.54199   -1143.1593    2209.9255     117389.3    10.472245   0.27482525 
   97800   -1275.5935    146.68395   -1128.9096    2274.1411     124017.2    10.472245   0.27972134 
   97900   -1279.5229    136.44053   -1143.0824    2115.3303    120549.19    10.472245   0.30289611 
   98000   -1277.0273    139.79243   -1137.2349    2167.2972    122691.98    10.472245   0.28416565 
   98100    -1264.265    135.06432   -1129.2007    2093.9941    129851.96    10.472245   0.30969537 
   98200   -1276.4934    138.24605   -1138.2473    2143.3225    122868.85    10.472245    0.2996561 
   98300   -1285.2014     145.4617   -1139.7397    2255.1918    117758.19    10.472245   0.25871638 
   98400   -1283.6827    141.77551   -1141.9071    2198.0422    118917.52    10.472245   0.26807738 
   98500   -1278.5815    150.48918   -1128.0923    2333.1362    123271.53    10.472245   0.27422735 
   98600   -1282.9256     135.9271   -1146.9985    2107.3704    118555.46    10.472245   0.25808004 
   98700   -1285.3554    144.99969   -1140.3557     2248.029     118189.3    10.472245   0.28186187 
   98800   -1276.7626    147.17578   -1129.5868    2281.7662    123863.55    10.472245   0.33618339 
   98900    -1277.446     143.2869   -1134.1591    2221.4743     123255.1    10.472245   0.29344635 
   99000   -1277.2045    137.65542   -1139.5491    2134.1657    122017.65    10.472245   0.29196357 
   99100   -1278.5901    142.48447   -1136.1056    2209.0338    121846.58    10.472245   0.29118222 
   99200   -1273.5423    147.34523   -1126.1971    2284.3934    126212.64    10.472245   0.35155966 
   99300   -1283.7636    142.52083   -1141.2428    2209.5974    118729.84    10.472245   0.29335334 
   99400   -1278.5177    139.65329   -1138.8644    2165.1401    122540.13    10.472245   0.30102844 
   99500   -1273.6513    149.28258   -1124.3687    2314.4295    126409.14    10.472245   0.31554717 
   99600   -1282.3221      144.772   -1137.5501    2244.4988    119643.64    10.472245   0.27726073 
   99700   -1276.8062    137.34879   -1139.4574    2129.4117    122082.26    10.472245   0.28556811 
   99800   -1279.1396    152.38645   -1126.7532    2362.5508    123275.32    10.472245   0.30586559 
   99900   -1290.1684    148.62608   -1141.5423    2304.2513    115633.87    10.472245   0.25131013 
  100000   -1284.4474    139.16752   -1145.2799    2157.6087    119555.34    10.472245    0.2618285 
Loop time of 151.355 on 1 procs for 100000 steps with 500 atoms

Performance: 285.422 ns/day, 0.084 hours/ns, 660.700 timesteps/s
100.0% CPU use with 1 MPI tasks x no OpenMP threads

MPI task timing breakdown:
Section |  min time  |  avg time  |  max time  |%varavg| %total
---------------------------------------------------------------
Pair    | 90.112     | 90.112     | 90.112     |   0.0 | 59.54
Neigh   | 7.8026     | 7.8026     | 7.8026     |   0.0 |  5.16
Comm    | 1.3223     | 1.3223     | 1.3223     |   0.0 |  0.87
Output  | 0.040034   | 0.040034   | 0.040034   |   0.0 |  0.03
Modify  | 51.769     | 51.769     | 51.769     |   0.0 | 34.20
Other   |            | 0.3086     |            |       |  0.20

Nlocal:    500 ave 500 max 500 min
Histogram: 1 0 0 0 0 0 0 0 0 0
Nghost:    1964 ave 1964 max 1964 min
Histogram: 1 0 0 0 0 0 0 0 0 0
Neighs:    25770 ave 25770 max 25770 min
Histogram: 1 0 0 0 0 0 0 0 0 0

Total # of neighbors = 25770
Ave neighs/atom = 51.54
Neighbor list builds = 6873
Dangerous builds = 21
    
Total wall time: 0:02:31
