LAMMPS (3 Mar 2020)
Reading data file ...
  orthogonal box = (0 0 0) to (17.469 17.469 17.469)
  1 by 1 by 1 MPI processor grid
  reading atoms ...
  217 atoms
  read_data CPU = 0.00120599 secs
Reading potential file library.meam with DATE: 2012-06-29
Reading potential file LiSi.meam with DATE: 2020-11-07
1 atoms in group Li
216 atoms in group Si
Neighbor list info ...
  update every 1 steps, delay 10 steps, check yes
  max neighbors/atom: 2000, page size: 100000
  master list distance cutoff = 6
  ghost atom cutoff = 6
  binsize = 3, bins = 6 6 6
  2 neighbor lists, perpetual/occasional/extra = 2 0 0
  (1) pair meam/c, perpetual
      attributes: full, newton on
      pair build: full/bin/atomonly
      stencil: full/bin/3d
      bin: standard
  (2) pair meam/c, perpetual, half/full from (1)
      attributes: half, newton on
      pair build: halffull/newton
      stencil: none
      bin: none
Setting up Verlet run ...
  Unit style    : metal
  Current step  : 0
  Time step     : 0.003
Per MPI rank memory allocation (min/avg/max) = 8.895 | 8.895 | 8.895 Mbytes
Step Temp E_pair E_mol TotEng Press Volume 
       0         1425   -951.04357            0   -911.25729   -116259.55    5330.9442 
    3200    1395.3711   -952.99103            0     -914.032    9067.5284    4559.6238 
Loop time of 2.33891 on 1 procs for 3200 steps with 217 atoms

Performance: 354.626 ns/day, 0.068 hours/ns, 1368.157 timesteps/s
100.0% CPU use with 1 MPI tasks x no OpenMP threads

MPI task timing breakdown:
Section |  min time  |  avg time  |  max time  |%varavg| %total
---------------------------------------------------------------
Pair    | 2.2763     | 2.2763     | 2.2763     |   0.0 | 97.32
Neigh   | 0.012126   | 0.012126   | 0.012126   |   0.0 |  0.52
Comm    | 0.014      | 0.014      | 0.014      |   0.0 |  0.60
Output  | 2.5632e-05 | 2.5632e-05 | 2.5632e-05 |   0.0 |  0.00
Modify  | 0.031182   | 0.031182   | 0.031182   |   0.0 |  1.33
Other   |            | 0.005258   |            |       |  0.22

Nlocal:    217 ave 217 max 217 min
Histogram: 1 0 0 0 0 0 0 0 0 0
Nghost:    957 ave 957 max 957 min
Histogram: 1 0 0 0 0 0 0 0 0 0
Neighs:    4176 ave 4176 max 4176 min
Histogram: 1 0 0 0 0 0 0 0 0 0
FullNghs:  8352 ave 8352 max 8352 min
Histogram: 1 0 0 0 0 0 0 0 0 0

Total # of neighbors = 8352
Ave neighs/atom = 38.4885
Neighbor list builds = 20
Dangerous builds = 0
Setting up Verlet run ...
  Unit style    : metal
  Current step  : 3200
  Time step     : 0.003
Per MPI rank memory allocation (min/avg/max) = 9.665 | 9.665 | 9.665 Mbytes
Step PotEng KinEng TotEng Temp Press Density c_msdli[4] c_msdsi[4] 
    3200   -952.99103    38.959028     -914.032    1395.3711    9067.5284    2.2118728            0 5.1290368e-32 
    3300   -957.69501    37.145136   -920.54987    1330.4041   -2951.8128    2.1977491   0.10021492  0.084709918 
    3400   -954.09482    40.119869   -913.97495    1436.9482   -8863.6232    2.1693907   0.25152425  0.083860243 
    3500   -951.89293    39.167045   -912.72588    1402.8215   -2271.1098    2.1827895  0.014265799  0.088451983 
    3600   -957.04028    38.483289   -918.55699    1378.3318    7588.2555    2.2200876   0.28454984   0.10830147 
    3700   -954.68866    37.639312   -917.04934    1348.1036    8346.8736    2.2191866  0.081497425  0.090947074 
    3800   -952.68937    40.125438   -912.56393    1437.1477     -3353.65    2.1844825  0.068796881   0.11800281 
    3900   -956.99808    42.116717   -914.88137    1508.4681   -11387.773    2.1722829  0.080911987   0.10807279 
    4000   -958.25119    38.380849   -919.87034    1374.6628   -2741.7704    2.2004921  0.068030892   0.11118996 
    4100   -951.80374    39.406595   -912.39715    1411.4013    7981.6568    2.2139036   0.13394452   0.11236811 
    4200   -954.25431    41.993814   -912.26049    1504.0661     7769.903    2.2156132  0.093297191  0.097790723 
    4300    -953.0935    37.531168   -915.56233    1344.2303   -3652.8035    2.1897771    0.3399894  0.096000877 
    4400   -952.57243    40.785002   -911.78743    1460.7709   -11911.563    2.1674948 0.0026305287  0.096068471 
    4500   -951.32844    42.705462   -908.62298    1529.5548   -2033.1566    2.1816929   0.10797796  0.099959577 
    4600   -953.11305    39.339814   -913.77324    1409.0095    7474.3329    2.2136662   0.18507548  0.098113424 
    4700    -954.7512    39.910491   -914.84071     1429.449    4451.2154    2.2102317   0.11647812   0.11604508 
    4800   -949.59951    42.862684   -906.73683    1535.1859    -6967.029    2.1700833   0.30420843   0.11588186 
    4900   -952.59606    39.828599   -912.76746     1426.516   -5225.7027    2.1775577   0.16475397  0.099047724 
    5000   -953.54023    38.720724    -914.8195    1386.8359    828.15274    2.1968813  0.063875802   0.10221098 
    5100   -954.22979    42.942542   -911.28725    1538.0461    5790.0342     2.208517  0.013255295   0.10179529 
    5200   -948.36492    41.378749   -906.98617    1482.0367    1757.2807    2.1887678  0.061429645   0.13140789 
    5300   -956.01049       40.132   -915.87849    1437.3827   -3671.4599    2.1902024   0.11222302   0.10287645 
    5400   -953.00393    38.490159   -914.51377    1378.5779   -3005.1143    2.1878243  0.041499176  0.092507317 
    5500   -950.92039    39.187634   -911.73275    1403.5589    2308.8667    2.1952048   0.20487012  0.096581093 
    5600   -954.80916    42.474203   -912.33496    1521.2719     2970.654    2.2030648   0.22053571  0.094864445 
    5700   -955.20055    36.462597   -918.73796     1305.958    3896.7585    2.2102215  0.046620085   0.10898551 
    5800   -954.69942    40.261084   -914.43834     1442.006   -2349.5384    2.1898164  0.073483049   0.11206542 
    5900   -955.48674    42.768678   -912.71806    1531.8189   -5768.4075    2.1822839  0.017292144   0.10499302 
    6000   -956.15911    37.979212    -918.1799    1360.2776   -2079.2319    2.1980713   0.18136599  0.092215356 
    6100   -956.94694    38.870913   -918.07603    1392.2151    2725.9274    2.2081156   0.28829462  0.096471339 
    6200   -954.93993    42.400477   -912.53946    1518.6313    4187.2872    2.2061457   0.11742695   0.10399019 
    6300   -952.29009    38.032105   -914.25798    1362.1721   -788.85653    2.1899848  0.042174474    0.1161127 
    6400   -957.60683    36.588728   -921.01811    1310.4756   -5882.7906    2.1894509  0.044261415   0.10984374 
    6500   -953.71995    39.267748   -914.45221    1406.4283   -1805.5595    2.1899621  0.064989706  0.096581491 
    6600   -953.78833    41.247517   -912.54081    1477.3365    6845.4261    2.2128053  0.097850969  0.090899253 
    6700   -953.80658    38.172694   -915.63389    1367.2075    6779.8342    2.2116679   0.14449199  0.097043828 
    6800   -956.52468    35.737003   -920.78768    1279.9698   -4723.8699    2.1899931   0.28029787  0.092832934 
    6900   -955.16857    37.422165   -917.74641    1340.3262   -5834.9349    2.1826812 0.0044855471   0.10191116 
    7000    -954.2704    40.171999    -914.0984    1438.8153    3225.5107     2.203199   0.17756041  0.093509935 
    7100   -953.01348    39.488291   -913.52519    1414.3274    7896.5586     2.213099   0.10952667   0.09777419 
    7200   -953.30988    39.013363   -914.29651    1397.3172    544.47111    2.1968947   0.10503258    0.1015178 
    7300   -950.26751    43.907394   -906.36012    1572.6036   -5825.5964     2.169537   0.14752361   0.10274093 
    7400   -950.91671    41.570415    -909.3463    1488.9015   -199.58164    2.1870962      0.13083   0.12026365 
    7500    -952.7515    39.214362   -913.53714    1404.5162    3376.0149    2.2056517   0.05189585   0.12317909 
    7600   -955.00196    40.436812   -914.56515    1448.2999    4001.0195    2.2088503  0.030006587    0.1180696 
    7700   -951.69908    43.778323   -907.92076    1567.9808   -3556.5898    2.1829172  0.032041173   0.12426041 
    7800   -949.52848    39.745296   -909.78318    1423.5324   -7939.0359    2.1688764   0.16671945    0.1122954 
    7900   -956.76134    41.778268   -914.98307     1496.346   -6629.0797    2.1872459   0.19974997   0.10562787 
    8000   -956.11339    42.901942   -913.21145     1536.592    8495.1751    2.2214441  0.012597994   0.10713573 
    8100   -946.63515    40.913735   -905.72142    1465.3816    11778.175    2.2113181   0.13558646   0.11417911 
    8200   -954.19316    41.713316   -912.47984    1494.0197   -5768.2314    2.1807414  0.055812348   0.10320957 
    8300   -954.36359    39.374819   -914.98877    1410.2632   -13309.441    2.1639915   0.15349118  0.093206354 
    8400   -952.91636    41.429422   -911.48694    1483.8516   -1592.1398    2.1872812   0.11281611   0.08507342 
    8500   -950.99333    45.336239   -905.65709    1623.7797    7777.7141    2.2081388  0.071172231    0.0983705 
    8600   -952.81949    38.088724   -914.73076       1364.2    7361.8139    2.2163488    0.1256241   0.11652691 
    8700   -950.43968    36.127389   -914.31229    1293.9521   -4967.0922    2.1795726   0.15480433   0.12754941 
    8800   -950.74017     38.77351   -911.96666    1388.7265   -6322.6127    2.1755524  0.072323651   0.11104366 
    8900   -958.68212    40.872275   -917.80985    1463.8967   -1417.4581    2.2036483   0.11650046   0.10148054 
    9000   -957.94046    40.032991   -917.90747    1433.8365     4697.023    2.2155128  0.078316624  0.097297492 
    9100   -955.65118    42.499506   -913.15167    1522.1782    1566.5236    2.2020834  0.015023203   0.10228808 
    9200   -953.38932    40.329235   -913.06008     1444.447    -3764.013     2.186147  0.046788756   0.11476663 
    9300   -956.07193     35.24756   -920.82437    1262.4398   -1918.0149    2.1969682  0.058034692   0.09205996 
    9400   -952.30686    37.628924   -914.67794    1347.7316    727.85092    2.1940969  0.025358589   0.10133355 
    9500   -952.38813    39.979076   -912.40905    1431.9055    5863.2595      2.20597   0.13963974  0.094073236 
    9600   -953.69473    36.685086   -917.00965    1313.9268    3650.7706    2.2051036  0.020177952  0.095767008 
    9700   -954.79901    34.951241   -919.84777    1251.8267   -5752.2167    2.1861418  0.047620465   0.10755479 
    9800   -951.94137    39.639869    -912.3015    1419.7563   -10099.646    2.1651027  0.034889988    0.1136789 
    9900   -957.31958    43.306465   -914.01311    1551.0805    -501.7968    2.2009948  0.087125385   0.10894333 
   10000   -955.98117    40.874288   -915.10688    1463.9688    16690.519    2.2387049  0.030047752   0.10566922 
   10100   -947.91022    41.600578   -906.30964    1489.9818    3052.3138    2.1911291  0.041653967   0.11679403 
   10200   -950.72577    39.495655   -911.23011    1414.5911   -12490.892    2.1602831  0.034609569   0.11569508 
   10300   -950.92386    35.831159    -915.0927    1283.3422   -6145.1397    2.1755286  0.031585583   0.10947362 
   10400    -952.5874     39.67672   -912.91068    1421.0762    7123.7273    2.2086006   0.10795379  0.099538958 
   10500   -950.62664    44.422286   -906.20435    1591.0452    4208.3765    2.1991244   0.31554535   0.11491781 
   10600   -954.14231    39.990408    -914.1519    1432.3114   -480.80045     2.195478  0.030265679  0.093636742 
   10700   -953.27918    38.558802   -914.72037    1381.0365   -4267.1287    2.1844227  0.031822542   0.10742634 
   10800    -951.1529    42.043773   -909.10913    1505.8555   -3353.7401    2.1827101  0.022239564   0.10436652 
   10900   -952.77748    42.626029   -910.15145    1526.7098    1507.6021     2.192743  0.060801969  0.099080744 
   11000   -953.42505    38.332002   -915.09305    1372.9133    2147.4358    2.2022221   0.14797119   0.11700323 
   11100    -952.1422    38.753304   -913.38889    1388.0028    1108.5648    2.1959796  0.037573115   0.10681188 
   11200    -950.1255    41.381514   -908.74399    1482.1358   -986.11298    2.1829018  0.024930116    0.1131289 
   11300   -949.29243    40.779858   -908.51257    1460.5866   -2480.4284    2.1743297   0.03375299   0.11298227 
   11400   -955.98311     41.04157   -914.94154    1469.9602   -2628.8532    2.1922482   0.13348483   0.10756451 
   11500   -955.15768    41.513876   -913.64381    1486.8765    6289.6946    2.2133133   0.25363871    0.1189709 
   11600   -954.35392    41.636673   -912.71725    1491.2746    6699.2783    2.2119643   0.10276033    0.1047163 
   11700   -948.20183    44.778996   -903.42284    1603.8212    -8760.937    2.1549981  0.055812029   0.10141129 
   11800   -953.63985    43.568392   -910.07146    1560.4618    -11258.94    2.1618094    0.1483758  0.095280124 
   11900   -951.87774    38.715475   -913.16226    1386.6479    4973.1817    2.2022854  0.013181287  0.095575636 
   12000   -958.07954     44.43833   -913.64121    1591.6198    9941.6713    2.2266374 0.0082606624  0.097187899 
   12100   -954.80948    39.292886   -915.51659    1407.3287     3443.813    2.2035473    0.1590155  0.090101954 
   12200   -960.77806    37.271722   -923.50634    1334.9379   -9015.5196    2.1883112  0.014165996  0.088387548 
   12300   -953.65397    36.400121   -917.25385    1303.7203   -6541.9131    2.1802891  0.037146219   0.11053203 
   12400   -954.45612     40.50934   -913.94679    1450.8976    2812.6018    2.2029322  0.046961837   0.11143583 
   12500   -952.20686    40.187853   -912.01901    1439.3831     7748.371    2.2116411  0.053596513   0.13235973 
   12600   -955.72416    40.188682   -915.53548    1439.4129   -925.48642    2.1974138  0.064108106   0.12100371 
   12700   -954.87168    35.909905   -918.96178    1286.1626   -3154.0247    2.1912641  0.023769441  0.096916348 
   12800   -955.91227    41.851768    -914.0605    1498.9785   -363.57564    2.1927215  0.077276446   0.09590606 
   12900   -954.10593     41.93839   -912.16754    1502.0811     3050.064    2.1987525  0.048085631  0.092303177 
   13000   -955.76929    36.389381   -919.37991    1303.3357    2559.8507    2.2064298  0.082673147  0.093291784 
   13100   -955.88407     39.12883   -916.75524    1401.4528   -2744.9609     2.190848   0.18927314  0.099667962 
   13200   -950.02932    37.470257   -912.55906    1342.0487   -31.493795    2.1879872  0.059239853  0.093983646 
   13300   -953.19929    38.318882   -914.88041    1372.4434    2148.3198    2.1988408 0.0090319715  0.096355006 
   13400   -960.11746    39.765506   -920.35195    1424.2562    3101.5546    2.2143651  0.098886002   0.10259163 
   13500   -949.58475    37.671157   -911.91359    1349.2442   -879.38543     2.185459   0.20784361   0.12172959 
   13600   -950.32805    36.808591   -913.51946    1318.3503   -4463.5403    2.1804957   0.12009734   0.13276513 
   13700   -955.45349    38.369828   -917.08366    1374.2681   -452.97347    2.1977281   0.38630812   0.11293412 
   13800     -954.556    35.736294   -918.81971    1279.9445    12769.593    2.2308894  0.020244949   0.10645782 
   13900   -951.62895    40.677721   -910.95123    1456.9284    2935.6691    2.1960292   0.19698988   0.10967279 
   14000   -952.75997    39.136735   -913.62323    1401.7359   -13200.771    2.1578763  0.084645554  0.089029359 
   14100   -951.71788    36.312327   -915.40555    1300.5759   -7114.6621    2.1730652  0.018279882   0.10232201 
   14200   -960.43474    39.617512   -920.81723    1418.9556     6289.428    2.2229525   0.15703896  0.087189595 
   14300   -959.82997    40.466278   -919.36369    1449.3553    11064.125    2.2330771  0.012574598  0.073084002 
   14400   -953.66831     39.05403   -914.61428    1398.7737   -1123.7413    2.1926825   0.08933417  0.096924408 
   14500   -954.22857    40.363666   -913.86491    1445.6801    -10871.01     2.167182  0.049366948  0.091594037 
   14600   -952.18427    40.826111   -911.35816    1462.2432   -3924.4926    2.1793462   0.16054666   0.10505688 
   14700   -952.43644    41.803953   -910.63249     1497.266    5097.3987    2.2028403   0.30552526    0.1252155 
   14800   -958.27366    39.953711   -918.31995     1430.997    6914.6505    2.2218884  0.023009932   0.10582043 
   14900   -953.88635    38.579399   -915.30695    1381.7742    431.46224    2.1945367  0.026828035   0.10360839 
   15000   -953.95045    40.698314   -913.25214     1457.666   -8756.2943    2.1719213   0.21025597  0.097997164 
   15100   -952.99667     42.16618   -910.83049    1510.2396   -4454.0876    2.1791117  0.020789325  0.097450542 
   15200   -957.96004    38.312436    -919.6476    1372.2125    4706.3439    2.2156831  0.042706705  0.095995004 
   15300   -955.25645    38.367496   -916.88895    1374.1846    1976.4496    2.2036417  0.050676294   0.10031331 
   15400   -950.40374    36.979855   -913.42388    1324.4843   -1446.3537    2.1846884   0.15733866   0.10636283 
   15500   -951.21876    39.407274   -911.81149    1411.4257    -3796.762    2.1793867   0.18953717  0.096029949 
   15600   -958.80961    38.359815   -920.44979    1373.9095    1578.5107    2.2092893  0.010681933  0.087767993 
   15700   -952.40548    36.829861   -915.57562    1319.1121    3159.8593    2.2015995  0.017356185   0.11043323 
   15800   -952.08632    39.593635   -912.49268    1418.1004   -357.73678    2.1896199   0.12888201   0.11063872 
   15900   -956.29665    40.273199   -916.02345    1442.4399   -4590.7997    2.1867274  0.060188512   0.11144159 
   16000   -954.40115    34.655123   -919.74602    1241.2208    14.643071    2.1982946   0.12601702   0.10325927 
   16100   -953.46163    41.136373   -912.32526    1473.3557    3883.3427    2.2035565  0.070517403  0.097700482 
   16200   -952.30336    39.081562    -913.2218    1399.7598    5878.9451    2.2039209    0.1720634    0.1078052 
   16300   -955.29021    36.270968   -919.01924    1299.0945   -3950.5289    2.1893077   0.10604866   0.10087439 
   16400   -953.25026    39.836013   -913.41424    1426.7815   -6811.5348    2.1755714   0.17726563   0.10431613 
   16500   -952.96235    41.147244    -911.8151    1473.7451    3370.3244    2.2017926  0.065777366  0.097694619 
   16600   -953.62379    39.003134   -914.62066    1396.9508    7959.6587     2.214973   0.03678611  0.096267413 
   16700   -953.82335    36.087764   -917.73559    1292.5328    1737.6889    2.1957155  0.020680328   0.10307227 
   16800    -947.6702    39.262642   -908.40756    1406.2455   -7841.6737    2.1609449  0.047232584   0.11537495 
   16900   -953.86034    41.542846    -912.3175    1487.9141   -1149.9495    2.1893155  0.022418901   0.10398883 
   17000   -954.00142    39.434567   -914.56685    1412.4032    7595.2459    2.2147574  0.094554553   0.10286706 
   17100   -952.34547    36.906762   -915.43871    1321.8664    8270.0058    2.2110812   0.05795105   0.10269195 
   17200   -949.40241    42.643459   -906.75895    1527.3341   -9559.1577    2.1637823  0.050052071   0.11457246 
   17300   -951.52562    38.010292   -913.51533    1361.3908   -6467.7911    2.1769509  0.050287236   0.10576915 
   17400   -953.24281    38.626432   -914.61637    1383.4587    5147.9896    2.2046705 0.0064902587  0.095875993 
   17500   -951.39565    40.855805   -910.53984    1463.3068    9413.5667    2.2118759  0.047828228   0.11017475 
   17600   -949.71074    41.002891   -908.70785    1468.5749    31.265344    2.1836963   0.04949437    0.1078401 
   17700   -956.00177    40.526388   -915.47538    1451.5082   -7365.8722    2.1790305    0.1656308  0.091500151 
   17800   -952.99376    39.554089   -913.43967     1416.684   -2713.6209     2.188057   0.34932219  0.096498546 
   17900   -946.44772    38.713458   -907.73426    1386.5757    7446.9492    2.1946841 0.0038271618  0.099336092 
   18000   -953.54294    38.481018   -915.06192    1378.2505    1883.9087    2.2008991  0.065953606   0.10746353 
   18100   -951.49959    35.983254   -915.51634    1288.7897   -962.92905    2.1888954  0.036561934    0.1076614 
   18200    -949.4543    36.970412   -912.48389    1324.1461   -689.03145    2.1861917  0.066554791   0.10172585 
   18300   -952.00057    42.767487   -909.23308    1531.7763    481.74952    2.1933896  0.087739731   0.10892007 
   18400   -956.18144    38.041748   -918.13969    1362.5175    3397.3291     2.211091  0.082079168   0.10976347 
   18500   -955.62597    39.727409   -915.89856    1422.8917   -4495.9934    2.1902519  0.022723024   0.10542793 
   18600    -952.2448    39.467191   -912.77761    1413.5717   -4454.1611    2.1837446   0.11568556   0.11488662 
   18700   -950.78434    38.228343   -912.55599    1369.2006    1548.2869    2.1940633  0.026096507   0.10798788 
   18800    -957.3275    37.306303    -920.0212    1336.1765    6644.2996    2.2241681   0.04984779   0.10376689 
   18900   -953.71037    40.151504   -913.55887    1438.0813    2239.5737    2.2017224  0.049686115  0.095214317 
   19000   -953.60561     40.74889   -912.85672    1459.4775   -6584.6389    2.1783076  0.039698277  0.091703794 
   19100   -955.82691    37.041802   -918.78511     1326.703   -6119.7298    2.1856127  0.082562545    0.1006368 
   19200   -954.40803    37.793596   -916.61444    1353.6295    4946.2358    2.2088741  0.034564055   0.10031699 
   19300   -953.96846    42.706117   -911.26234    1529.5782    13550.402    2.2270936  0.017652912    0.1105153 
   19400   -953.34879    38.420517   -914.92827    1376.0836    1124.4737    2.1988978   0.14160996   0.11344339 
   19500   -953.24378    33.716377    -919.5274    1207.5983   -16862.383    2.1572343 0.0071271658   0.10933231 
   19600   -954.40107    41.457962   -912.94311    1484.8739   -10676.805     2.168724  0.062887277    0.1167117 
   19700   -953.82002    42.037621    -911.7824    1505.6351    9902.0937    2.2187643  0.031163066   0.11157978 
   19800   -953.87242    38.843994   -915.02842     1391.251      8944.87    2.2172522  0.053617074   0.10619823 
   19900   -954.00631    40.731392   -913.27492    1458.8507   -2896.4758    2.1878039   0.10546245  0.097066159 
   20000    -947.9598    39.562555   -908.39724    1416.9872   -7313.1211    2.1634885  0.038388417  0.098769646 
   20100   -954.14968    39.177805   -914.97187    1403.2069   -3763.8982    2.1891695  0.024437907   0.09528295 
   20200   -954.53727     40.52569   -914.01158    1451.4833    7306.8271     2.215077  0.016394592  0.093482198 
   20300   -948.66901    42.026535   -906.64247    1505.2381    5460.5525    2.1986698  0.093524083   0.10488116 
   20400   -953.99247    39.975887   -914.01658    1431.7913   -2894.8021    2.1890911  0.036040688  0.099973019 
   20500   -952.87386    37.795699   -915.07816    1353.7049   -6029.8265    2.1755883  0.041846845   0.10672502 
   20600   -951.20552    41.283967   -909.92155     1478.642   -1305.0922    2.1841599  0.088552393   0.12596645 
   20700   -950.51731    38.177778   -912.33953    1367.3896    7137.4206    2.2080153  0.074872892    0.1039913 
   20800   -952.01069    35.705068   -916.30562    1278.8261    6493.0208    2.2100445  0.069878132   0.11653237 
   20900   -952.99738    39.914541   -913.08284    1429.5941   -2170.4918    2.1865106  0.018308248  0.099268743 
   21000   -953.17089    41.932143   -911.23875    1501.8573   -8479.4301    2.1723299  0.065167341   0.10762216 
   21100    -960.1428    40.079614   -920.06319    1435.5064   -219.98282    2.2104269  0.074963818   0.10341068 
   21200   -954.83557    40.272752   -914.56282    1442.4239     8486.217    2.2206905  0.039192528  0.091022812 
   21300   -950.55085    38.652332   -911.89852    1384.3864    3965.9365    2.2011763  0.068200541   0.11084871 
   21400   -954.72146    38.116168   -916.60529    1365.1829   -14142.149    2.1656257   0.20978431  0.098488086 
   21500   -955.98864    38.170185   -917.81846    1367.1176   -11566.486    2.1738313    0.3326902   0.11645754 
   21600   -953.30193    41.872737   -911.42919    1499.7296    8764.2025     2.216463   0.13391082   0.10599665 
   21700   -951.47608    38.132792   -913.34329    1365.7783    14418.461    2.2265159   0.12761472   0.12424432 
   21800   -957.57705    38.786711   -918.79034    1389.1993   -2557.1872    2.1979553   0.01894505   0.10807467 
   21900   -951.02806    39.789112   -911.23895    1425.1017   -8572.5225    2.1715549  0.073742333   0.11561022 
   22000   -951.77453    39.881072   -911.89345    1428.3954   -323.32354    2.1910084  0.057913919   0.12076353 
   22100   -956.25768    40.992948   -915.26473    1468.2187    3008.8701    2.2088436  0.065557668  0.097280345 
   22200   -953.51878    38.133214   -915.38557    1365.7934    4318.9343    2.2068643  0.055422314  0.098611843 
   22300    -949.8158    41.958503   -907.85729    1502.8014   -5723.3092    2.1718974  0.045112418  0.091336062 
   22400   -952.84491     38.42901    -914.4159    1376.3878    -3016.877    2.1842255  0.051937592   0.10093529 
   22500   -955.89272    41.108485   -914.78423    1472.3568    1932.5093    2.2037936  0.082402157  0.096110682 
   22600   -951.43293    44.380951   -907.05198    1589.5647    5504.8147    2.1989997   0.16421751  0.090106319 
   22700   -956.03501    43.016469   -913.01854    1540.6939    -608.7052    2.1975241   0.14073243   0.10981471 
   22800   -953.81747    38.249086   -915.56838    1369.9435   -6877.9091    2.1791239   0.28956525  0.098407327 
   22900   -951.49076    40.442442   -911.04832    1448.5016   -5748.7969    2.1748337  0.048072153   0.12228403 
   23000   -947.61059     39.57116   -908.03943    1417.2954    7695.3172    2.2001309   0.20726828   0.11731429 
   23100   -953.52395     37.91387   -915.61008    1357.9373    14286.168    2.2308021     0.118417   0.10599274 
   23200   -953.88301    40.473982   -913.40903    1449.6313    1003.4025    2.1964261  0.050104608   0.11431476 
   23300   -954.09734    42.350785   -911.74656    1516.8515   -15820.988    2.1558289 0.0085323592   0.10541947 
   23400   -958.34542    37.839383   -920.50603    1355.2695    -6941.941    2.1885539   0.33717023   0.10283721 
   23500     -956.106    40.855252   -915.25074     1463.287     6847.802    2.2145973   0.10706113  0.095014048 
   23600   -955.13165    43.286909   -911.84475    1550.3801    5182.9886    2.2082665  0.053610283  0.098675918 
   23700   -952.93924    36.916806   -916.02243    1322.2261    -662.0563    2.1926851   0.15126361   0.10652199 
   23800    -953.4708    34.700591   -918.77021    1242.8493   -531.09978    2.1958128   0.02664945   0.10005652 
   23900   -952.46922    40.315732   -912.15348    1443.9633   -467.55344    2.1902577  0.064015367   0.11869864 
   24000    -953.1662    39.114133   -914.05207    1400.9264    2253.9016     2.200387  0.048684891   0.10388543 
   24100   -957.45298    37.883598   -919.56938    1356.8531    3128.5588    2.2118161   0.15266644    0.1076552 
   24200   -950.85653    39.695424   -911.16111    1421.7461   -1768.3575    2.1843353  0.029359965   0.12107343 
   24300   -952.31333     39.31575   -912.99758    1408.1476   -3124.7248    2.1873682  0.068026406   0.11869675 
   24400   -954.98876    38.014103   -916.97466    1361.5273    1392.4614    2.2013152   0.29747982   0.11390095 
   24500   -952.59039    41.028755   -911.56164    1469.5012    4638.6154    2.2015358  0.047536679  0.094945799 
   24600   -953.09603    42.549206   -910.54683    1523.9583    1557.2033     2.194918  0.098305684  0.091243246 
   24700   -954.88568    39.351753   -915.53393    1409.4371   -3121.5694    2.1857725  0.088066928  0.084337875 
   24800   -955.34088    41.805541   -913.53534    1497.3229   -7210.9278    2.1808344   0.19987766   0.10358017 
   24900   -947.84456    39.644197   -908.20036    1419.9114    938.03832    2.1886871   0.18657935   0.11349546 
   25000   -952.54411     37.65396   -914.89015    1348.6283    8903.8347    2.2157645   0.36348598  0.096605261 
   25100   -951.71674     37.48094    -914.2358    1342.4313    4473.4815    2.2015886   0.23778365   0.10134971 
   25200   -951.12945     43.09344   -908.03601    1543.4507   -7962.5216    2.1612137   0.11703418  0.095455808 
   25300   -956.55238      40.3397   -916.21268    1444.8218   -8362.7603    2.1794545   0.30196916   0.10382676 
   25400   -956.60114     41.51837   -915.08277    1487.0375     1642.614    2.2029423  0.097322871   0.10873204 
   25500   -953.50052    42.995645   -910.50487    1539.9481    8231.5918    2.2130398   0.13092025   0.11079769 
   25600   -951.20689    36.145128   -915.06177    1294.5874    1212.4955    2.1934168  0.070981288   0.10970594 
   25700    -953.9161     36.16873   -917.74737    1295.4328   -9503.8543    2.1703594  0.027937778  0.099826192 
   25800   -954.17147    41.464206   -912.70726    1485.0975   -5021.5528    2.1786909  0.090033317  0.095871143 
   25900   -954.56443    42.484377   -912.08005    1521.6363    7983.7515    2.2146513  0.034044007   0.10171054 
   26000    -958.6746    39.481963   -919.19263    1414.1007    8870.4787    2.2267343  0.054365429  0.091108149 
   26100   -955.61673    43.447592   -912.16914    1556.1352   -5967.3719    2.1795027   0.16275338  0.090190089 
   26200   -952.78371    40.397447   -912.38626      1446.89   -7358.3609    2.1714308   0.11378858  0.098954297 
   26300    -959.0668    40.944873   -918.12192    1466.4969   -2494.8586     2.196584  0.070683216  0.088145845 
   26400   -956.66675    42.377935   -914.28881     1517.824    3661.7267    2.2061129   0.22820415  0.093397584 
   26500   -954.35089    43.180143   -911.17074    1546.5561    619.47286    2.1954812  0.055957288   0.10635887 
   26600    -955.6554    39.407481   -916.24791    1411.4331   -2862.5891    2.1894332   0.24144287   0.10952413 
   26700    -953.3296    38.670412   -914.65919    1385.0339   -3419.8698    2.1863159  0.047490237   0.11495664 
   26800   -950.31209    40.777388    -909.5347    1460.4982    588.29423    2.1882396   0.11333639   0.12179868 
   26900   -956.23124    41.391938    -914.8393    1482.5091    2352.2536    2.2030899   0.15585498  0.090305956 
   27000   -957.96607    42.614051   -915.35202    1526.2808   -476.25264    2.1998193 0.0067162489  0.090172876 
   27100   -947.54141    39.868044   -907.67336    1427.9288   -2255.3541    2.1758451  0.017015645   0.10408626 
   27200   -955.17912    40.202806   -914.97632    1439.9187   -2742.7787    2.1900937   0.11396039  0.088689918 
   27300   -953.35699    38.616243   -914.74075    1383.0938    2404.1198     2.200288  0.054915842   0.10363345 
   27400   -953.02265    45.189773   -907.83287    1618.5338    4465.1607    2.2001718  0.045292146  0.088087825 
   27500    -955.4688    40.771958   -914.69684    1460.3037    1994.6504      2.20024   0.19352267  0.096981788 
   27600   -957.05913    41.439108   -915.62002    1484.1986   -11970.121    2.1714498   0.13080076  0.098456928 
   27700   -950.66085    40.071145   -910.58971    1435.2031   -6535.1487    2.1710911  0.025301759   0.11605115 
   27800   -954.70469    37.732881   -916.97181     1351.455    7664.6443    2.2177461   0.14089987   0.11532102 
   27900   -955.90429    39.532326   -916.37197    1415.9046    10108.737     2.223584  0.013647378   0.10141706 
   28000   -953.36634    41.505095   -911.86124     1486.562   -3321.9323    2.1871156   0.35918956   0.10801491 
   28100   -954.47908    40.561184    -913.9179    1452.7545   -11533.798    2.1664386  0.089766429   0.10899453 
   28200   -956.13133    37.218903   -918.91243    1333.0461   -2466.3054     2.194781   0.19706805  0.087108778 
   28300   -949.44284     37.99764    -911.4452    1360.9377    9536.2267    2.2090663   0.22065982   0.10271934 
   28400   -952.81332    40.105556   -912.70777    1436.4356    6601.9958    2.2099355    2.2769366    0.1236617 
   28500   -955.08279     36.82426   -918.25853    1318.9114   -3292.7411    2.1949785    4.9194581   0.12682646 
   28600   -954.87134    39.693275   -915.17806    1421.6692   -7654.0606    2.1837291    5.1698754   0.12417684 
   28700   -949.48268    38.357165   -911.12551    1373.8145    563.25266    2.1866812    3.9789567   0.14301221 
   28800   -954.59144    41.719744    -912.8717    1494.2499    2052.3648    2.1983435    5.4082242   0.13656887 
   28900   -953.55896     36.90045   -916.65851    1321.6403     4114.835     2.208096    2.1579799   0.15229354 
   29000   -954.70628     42.97332   -911.73296    1539.1485   -1511.3223    2.1921123    4.5240398   0.15038466 
   29100   -951.77953    42.257352   -909.52218    1513.5051   -4695.4909    2.1813548   0.97480831   0.12884261 
   29200   -952.53785    39.324693   -913.21315    1408.4679   -2404.9267     2.186539   0.16667449   0.11729832 
   29300   -954.27153    39.775037   -914.49649    1424.5976   -1431.9712    2.1929342   0.75949334   0.11387429 
   29400    -947.9596    42.017109    -905.9425    1504.9005    2324.6978    2.1814603   0.56818345   0.10328308 
   29500   -953.47691    41.697602   -911.77931    1493.4569    2650.5825    2.1982695   0.49449554   0.11276467 
   29600   -953.75576    39.765736   -913.99002    1424.2645    3429.8862    2.2012652    1.4131288   0.12221459 
   29700   -950.54481    42.640246   -907.90456     1527.219   -1795.7953    2.1832576  0.023486852  0.098124458 
   29800   -950.33519    38.444306   -911.89088    1376.9356   -4926.3969    2.1783628   0.25826595   0.11453359 
   29900   -956.00784    40.868722   -915.13912    1463.7694   -5985.9551    2.1840061   0.11186338   0.10787618 
   30000   -950.89103    39.035574   -911.85545    1398.1127    10355.744    2.2137756  0.057856245   0.11381433 
   30100   -950.15691    40.835311    -909.3216    1462.5727    15209.093    2.2281129   0.10413348   0.12074651 
   30200   -955.22067    37.628054   -917.59262    1347.7004   -6626.0856    2.1869941  0.029646674   0.10234873 
   30300   -954.12263    38.176557   -915.94608    1367.3458    -17084.23    2.1519033   0.13241822    0.1066584 
   30400   -954.03679    40.711178   -913.32561    1458.1268   -3239.0074    2.1860159   0.14439565  0.099532028 
   30500    -954.5104    42.893802    -911.6166    1536.3004    9636.0239    2.2191477    0.1147609  0.096100306 
   30600   -955.67524    36.873288   -918.80195    1320.6674    6326.1278    2.2149191   0.13846454  0.093623291 
   30700   -955.99696    38.051744   -917.94522    1362.8755    -6205.261    2.1816087  0.068856568  0.083095894 
   30800   -951.68995    37.703351    -913.9866    1350.3973   -6239.7197    2.1789492   0.12154648   0.10720255 
   30900   -951.57344    39.440708   -912.13274    1412.6231    2293.0445    2.1975664  0.075809204    0.0936212 
   31000   -958.34723    38.443085   -919.90415    1376.8919    7504.7261    2.2224315   0.04488253  0.092150072 
   31100   -959.39578    43.144904   -916.25088     1545.294   -2688.1275    2.1989027    0.1414423   0.11430659 
   31200   -953.44999    40.530474   -912.91951    1451.6546   -5133.7183    2.1797495    0.2201705   0.11416025 
   31300   -951.17265    36.526164   -914.64648    1308.2347    -3506.486     2.185085  0.036458294   0.12388623 
   31400   -958.42866    37.577471   -920.85119    1345.8887     4521.822     2.220807    0.3293407   0.11143471 
   31500   -955.21104    42.526102   -912.68494    1523.1308    1238.8426    2.2046831   0.11762932   0.11376558 
   31600   -953.10205    39.920101   -913.18195    1429.7932   -1427.8038    2.1911664  0.025587511   0.11135768 
   31700   -953.04626     36.71882   -916.32744     1315.135   -4685.2384    2.1840487  0.027949515   0.11216778 
   31800   -956.51894     36.64792   -919.87102    1312.5956    -1055.774     2.201743   0.19923346  0.097358063 
   31900   -952.90673    41.715211   -911.19152    1494.0876     5492.776    2.2065009  0.031411649  0.099116646 
   32000   -955.81061    43.268264   -912.54235    1549.7123    5566.5414    2.2134177  0.043145139   0.10697639 
   32100   -952.44094    37.532689   -914.90825    1344.2848   -4055.3218    2.1846863   0.17134038   0.10523434 
   32200   -949.25378    37.398652   -911.85513    1339.4841   -11966.202     2.159139  0.074251034   0.11725145 
   32300   -951.40266    43.984827   -907.41783     1575.377   -3462.9605    2.1789023  0.020574437   0.11561173 
   32400    -952.8687    40.019919   -912.84879    1433.3684    11857.927    2.2234764   0.08327314   0.11342223 
   32500   -953.62253     39.06859   -914.55394    1399.2952    7410.7498     2.214535   0.25126121   0.12423407 
   32600    -948.5347    39.336759   -909.19794    1408.9001   -4165.9668    2.1734651   0.20959674    0.1259751 
   32700   -948.64019    39.295937   -909.34425     1407.438   -7174.7478    2.1638627   0.19982616   0.11082982 
   32800   -954.94047    40.005666    -914.9348    1432.8579    -1032.254    2.1973556   0.43681427   0.10376292 
   32900   -950.78463    37.710638     -913.074    1350.6583    9624.0302    2.2143654   0.24473829   0.11270033 
   33000   -951.23338    44.782711   -906.45066    1603.9543    638.60976    2.1918483   0.11099123   0.11290746 
   33100   -953.17297    38.717766    -914.4552      1386.73   -3198.2473    2.1914212   0.10729553   0.10789313 
   33200   -952.51007     37.74791   -914.76216    1351.9933   -3677.2167    2.1839883  0.098717861  0.095474671 
   33300   -952.51108    41.242432   -911.26865    1477.1544    441.11291    2.1918411  0.046736819   0.10356161 
   33400   -948.62623    41.440418   -907.18581    1484.2455      3905.56    2.1962257  0.066302838   0.11168703 
   33500   -951.33514    35.060901   -916.27423    1255.7543    6009.5177    2.2096208  0.077149098   0.10640722 
   33600   -952.78356    37.762055   -915.02151    1352.4999    -3674.966    2.1869878   0.24735399   0.12818011 
   33700   -953.41055    40.232348    -913.1782    1440.9768   -6884.1092    2.1813328   0.29443822   0.11581781 
   33800   -950.30229    40.705824   -909.59647     1457.935    2245.0063     2.193734   0.16604295   0.11399708 
   33900   -950.02399    47.004875   -903.01912    1683.5442    447.56735    2.1846956    0.3139875   0.12060853 
   34000   -950.36744    38.475003   -911.89243    1378.0351    3639.3457    2.1960049  0.048708035  0.092366941 
   34100   -951.79862    38.073323   -913.72529    1363.6483    1839.9001    2.1934662  0.018171385     0.104314 
   34200   -955.25583    40.281443   -914.97438    1442.7352   -591.38344    2.1942908  0.094087323  0.090094863 
   34300   -951.23394    37.007709   -914.22623    1325.4819    2751.8162    2.1958874   0.12071811  0.090419202 
   34400   -947.79551    40.599382   -907.19613    1454.1226   -2010.4558    2.1747626   0.16898649   0.10843979 
   34500   -953.49587    40.966062   -912.52981    1467.2558   -4224.8606    2.1840204  0.065288099   0.09579981 
   34600   -952.01913    37.306414   -914.71271    1336.1805    3520.3903    2.2018974   0.25064314     0.106028 
   34700   -951.17271    36.174929   -914.99778    1295.6548    6887.7061    2.2085502   0.18233108   0.11855052 
   34800   -947.49765    40.950735   -906.54692    1466.7068   -4729.8198    2.1689441   0.16440045   0.12017966 
   34900   -952.12216    38.898467    -913.2237     1393.202   -10062.717    2.1640147   0.15798282   0.10989922 
   35000   -953.59323    38.820275   -914.77295    1390.4015    4146.7297    2.2062668   0.22008927   0.11565364 
   35100   -951.67544    40.711559   -910.96388    1458.1404    21219.943    2.2423544   0.25665988   0.10459037 
   35200   -950.13373    42.805105   -907.32863    1533.1236    681.00628    2.1881231   0.28178321   0.11374391 
   35300   -953.60737    38.283702   -915.32367    1371.1834   -12474.281    2.1657398  0.054326438   0.09771105 
   35400   -955.84592    41.345824    -914.5001    1480.8575   -8304.9932    2.1767539  0.093614795  0.091235616 
   35500   -954.22143    43.690611   -910.53082    1564.8392    5409.5308    2.2072058    0.2280034   0.10053932 
   35600   -953.60962    39.784322    -913.8253    1424.9302    6333.7379    2.2133262   0.17905521   0.10321422 
   35700   -956.53702    38.905947   -917.63107    1393.4699   -3548.3167    2.1965245  0.057612039   0.10068837 
   35800    -955.7803    41.845124   -913.93518    1498.7406   -6351.7068    2.1813782   0.24807508   0.11079397 
   35900   -950.76057    39.294589   -911.46598    1407.3897   -2185.7448    2.1884608  0.034401887   0.12557145 
   36000   -956.03303    36.480051   -919.55298    1306.5831    4916.2637    2.2180266   0.17290142    0.1103755 
   36100   -954.44536    38.658941   -915.78642    1384.6231    3718.6119    2.2059723  0.075807067   0.10962168 
   36200    -950.9383    38.555192    -912.3831    1380.9072   -1720.5286    2.1863816  0.027788502   0.11738953 
   36300   -957.08203    41.359925    -915.7221    1481.3625   -8011.5738    2.1856845   0.19586221   0.11097199 
   36400   -956.13959      36.9966   -919.14299     1325.084    1909.6436    2.2090057  0.045585765   0.10028413 
   36500   -951.46556    39.767491   -911.69807    1424.3273    8178.1827     2.212234   0.22165568   0.11044768 
   36600    -953.8941    40.251976   -913.64213    1441.6798     1524.286    2.1988167   0.05133301   0.10015049 
   36700   -956.53575    37.368934   -919.16681    1338.4197   -8852.6727    2.1803625  0.025468088  0.098904054 
   36800   -951.28004    38.517563   -912.76247    1379.5594   -6894.6298    2.1775492  0.039862262   0.12082424 
   36900    -949.8411    38.293688   -911.54741     1371.541    11603.476    2.2206214   0.12476629   0.12037063 
   37000   -954.69766    40.072199   -914.62546    1435.2409     11273.29    2.2289092  0.045735117   0.11972586 
   37100   -955.31458    39.337186    -915.9774    1408.9154   -4290.1354    2.1905889   0.14800158   0.11307317 
   37200   -949.46706    42.207195   -907.25986    1511.7087   -13864.751    2.1539905  0.095301332   0.12846783 
   37300   -954.52099    40.545747   -913.97525    1452.2016   -2269.2766    2.1961621   0.17950772   0.12717735 
   37400   -951.97491    37.342332   -914.63257    1337.4669    8681.4508    2.2170522  0.029050571   0.12516075 
   37500   -951.06014    41.989584   -909.07055    1503.9146    4693.0372    2.2007906   0.14267927   0.12010097 
   37600   -949.95461     39.14458   -910.81003    1402.0169   -3360.3407    2.1829147   0.22166125    0.1175035 
   37700   -954.03002    38.274888   -915.75513    1370.8677   -5559.6758    2.1858675  0.092098576   0.12008128 
   37800   -952.12366    40.170497   -911.95317    1438.7615    50.680364    2.1970397   0.12820244    0.1207826 
   37900   -951.02439    42.563298   -908.46109     1524.463    5959.5023    2.2036785  0.074039268   0.11399028 
   38000    -954.1739    37.058047   -917.11585    1327.2849    6496.5334     2.216177  0.026998325     0.112584 
   38100   -954.12675    39.819561   -914.30719    1426.1923   -4424.5133    2.1885422   0.10631686   0.11513006 
   38200   -951.83228    40.152987    -911.6793    1438.1344   -7492.3464    2.1740138   0.13418372   0.11897815 
   38300   -956.33509    36.658071   -919.67702    1312.9592    642.52738    2.2045482    0.1081373   0.11295144 
   38400   -954.35973     38.23514   -916.12459     1369.444    5880.1852    2.2128723   0.15712193   0.10910755 
   38500   -950.37555     38.42948   -911.94607    1376.4046    4739.5087    2.2020577  0.024562076   0.12530279 
   38600   -955.72632    39.703672   -916.02265    1422.0415   -8190.7927     2.182103   0.14930504    0.1212505 
   38700   -953.18666    33.641042   -919.54562    1204.9001   -8400.1341    2.1790656  0.095376638   0.11229165 
   38800   -953.65906    41.406367   -912.25269    1483.0259    1116.0567    2.1990103  0.040196767   0.10385084 
   38900   -951.54135    38.896093   -912.64526     1393.117    16740.359    2.2348349   0.15236141   0.10388328 
   39000   -955.80199    38.293135   -917.50886    1371.5212     6365.689     2.214467  0.034868096  0.099355798 
   39100   -948.28426    39.274886   -909.00937     1406.684   -11950.442     2.156472  0.022301118   0.12701839 
   39200   -950.91095    39.411854    -911.4991    1411.5897   -6579.2225    2.1718843   0.15503484   0.10916442 
   39300   -951.74843    36.831591   -914.91684     1319.174    7418.2266    2.2108951  0.015278755   0.11558598 
   39400   -953.84961     39.04822   -914.80139    1398.5656    8172.4397     2.216354  0.046539429   0.10093949 
   39500   -948.58525    41.098673   -907.48657    1472.0054   -2904.9915    2.1792827   0.12770508   0.12371544 
   39600   -955.47217    40.632119   -914.84005    1455.2952   -7180.2889    2.1825582 0.0030554274   0.12593485 
   39700   -954.37026    39.708519   -914.66175    1422.2151   -1798.3671    2.1946742  0.022353751   0.12477875 
   39800   -952.63264    45.047254   -907.58538    1613.4293    1649.8355    2.1979123   0.15924254   0.11688469 
   39900   -952.86169    38.552508   -914.30918     1380.811     4911.765    2.2070035  0.062113032   0.11229453 
   40000   -952.94559    37.431665   -915.51392    1340.6665   -4150.5358    2.1883771  0.045721291   0.11639978 
   40100   -951.45134    40.505237    -910.9461    1450.7507   -4822.5193    2.1794649  0.022257939   0.10535897 
   40200   -951.64818    39.340584    -912.3076     1409.037    912.36678    2.1967417   0.10660459   0.11953523 
   40300   -955.09271    37.921806    -917.1709    1358.2216    7413.1039    2.2183397   0.35328223   0.10746173 
   40400   -953.95026    41.520922   -912.42934    1487.1288    3598.8767    2.2035606   0.15693047   0.10861194 
   40500   -953.59525    40.770431   -912.82482     1460.249   -7693.2388    2.1752993   0.10604275   0.12507161 
   40600   -956.70127    36.483855   -920.21741    1306.7194   -8863.7973    2.1828283  0.018481007  0.098781616 
   40700   -952.73938    38.978276    -913.7611    1396.0605    4248.8123    2.2024516 0.0030648167   0.11166234 
   40800   -955.12041    44.080976   -911.03943    1578.8207     16085.55    2.2362233   0.02296485   0.11532174 
   40900    -955.4807    37.936039   -917.54466    1358.7314    3310.3548    2.2103372   0.26645389    0.1132858 
   41000   -950.49944    38.426236    -912.0732    1376.2884   -14990.946    2.1489967  0.090463417   0.12804957 
   41100   -954.01742    42.870592   -911.14682    1535.4691    -10097.11    2.1678664  0.045323088   0.10744414 
   41200   -951.53015    37.284991   -914.24516    1335.4132    9060.0282    2.2143842   0.18650584   0.10553431 
   41300   -956.05519    39.922332   -916.13286    1429.8732    7541.1973    2.2210828  0.049926585   0.10530768 
   41400      -947.68    40.222045   -907.45795    1440.6078   -1962.2396    2.1784326  0.072026912   0.11579407 
   41500    -951.2198    37.522332   -913.69747    1343.9138   -2919.9172    2.1822669   0.10048182   0.12032351 
   41600   -955.61082    40.592115   -915.01871    1453.8624    -807.2367    2.1971159  0.033899289   0.10308439 
   41700   -951.22219    42.688062   -908.53413    1528.9316    2874.2941    2.1995387  0.062348431   0.11890992 
   41800   -952.60931    40.735049   -911.87426    1458.9817    3006.8755    2.1987715   0.21907257   0.12482502 
   41900   -955.57096    39.750949   -915.82002    1423.7348   -6102.9124    2.1876976   0.02623942   0.11904893 
   42000   -953.35987    41.325775   -912.03409    1480.1394   -4888.6971    2.1852611  0.057209795   0.12044735 
   42100   -949.42578    41.614653   -907.81113     1490.486    3882.5363    2.1980133 0.0091012498   0.11491861 
   42200   -956.79389     40.10408   -916.68981    1436.3827    8480.1149    2.2281638    0.1058803    0.1121368 
   42300   -952.49231    38.403701   -914.08861    1375.4813     -582.026    2.1944931  0.044729256   0.11149088 
   42400   -952.52766    40.767735   -911.75992    1460.1524    -13775.35    2.1628926   0.35526008   0.12245035 
   42500   -957.30829    37.823311   -919.48498    1354.6938   -6757.0921    2.1893467  0.078749655   0.10134565 
   42600   -955.22468    38.800689   -916.42399       1389.7    8889.4848    2.2233455  0.058659137   0.10125009 
   42700   -953.04206    41.572864   -911.46919    1488.9892    11611.211    2.2240374   0.18324046   0.12022819 
   42800   -952.40208    37.135933   -915.26615    1330.0744   -2572.8585    2.1901471   0.13061816   0.11751606 
   42900   -953.08568    32.689281    -920.3964    1170.8115   -7629.7704    2.1836126   0.13816791    0.1221536 
   43000   -953.18759    40.580517   -912.60707     1453.447   -1549.8665     2.189982    0.0286364   0.12067401 
   43100   -954.81812    41.700347   -913.11777    1493.5552    4443.8611    2.2084966   0.10382439   0.11300656 
   43200   -955.00273    36.957387   -918.04535    1323.6796    3261.5521    2.2096161   0.10718858   0.10626496 
   43300   -952.81148    39.001123   -913.81036    1396.8788   -1026.7901    2.1971951  0.042220084    0.1140778 
   43400   -952.59839    41.388679   -911.20971    1482.3924   -1125.5894    2.1891695  0.016397775   0.11235339 
   43500   -951.10453    36.491547   -914.61299    1306.9949   -381.09265    2.1927144  0.087623564   0.11058241 
   43600   -952.87347    37.335778   -915.53769    1337.2322    1743.7331    2.2035776  0.022721841   0.11859945 
   43700    -948.6643    41.803911   -906.86039    1497.2645   -1020.9515    2.1839944   0.12101875   0.11971895 
   43800   -953.60292    40.531952   -913.07097    1451.7075    1054.6982    2.1967702   0.02096239    0.1057124 
   43900   -954.92653    39.766715   -915.15982    1424.2995    2168.0096    2.2017511  0.069059364  0.097907974 
   44000   -953.94603    44.428942   -909.51709    1591.2836   -1703.4025    2.1901219   0.11394703   0.10578376 
   44100   -951.93618    41.735791   -910.20039    1494.8247   -2595.5974     2.186738 0.0018176144   0.12328173 
   44200   -954.03566    38.563211   -915.47245    1381.1944   -2871.5138    2.1936701   0.19727631   0.12206391 
   44300   -955.34799    42.708533   -912.63946    1529.6648   -217.86132    2.1979812  0.048856743   0.11781249 
   44400   -950.43011    43.613922   -906.81619    1562.0925     3145.375    2.1937529   0.15466333    0.1173727 
   44500    -955.1116    39.557378   -915.55423    1416.8018     3171.559    2.2053507  0.040325089  0.098614457 
   44600   -955.45618    41.015664   -914.44051    1469.0323   -4612.7386     2.186525   0.15990621   0.10151615 
   44700   -949.86107    39.379845   -910.48122    1410.4432   -4560.4925    2.1767484 0.0072750993   0.10807309 
   44800   -955.44165    38.961442   -916.48021    1395.4576   -1774.3733    2.2002449  0.080521624    0.1042584 
   44900   -957.80949    40.832982    -916.9765    1462.4893    4207.1119    2.2155287  0.015139903   0.10026565 
   45000   -952.18779    39.750085   -912.43771    1423.7039    5096.7358    2.2051264   0.19574264    0.1078837 
   45100   -952.58583    38.914624    -913.6712    1393.7807   -6062.0028    2.1816174  0.073721655   0.11171503 
   45200   -956.14224    35.687511   -920.45472    1278.1972   -5916.3372     2.189428  0.011734409   0.11083569 
   45300   -951.46878    38.034885    -913.4339    1362.2716    2265.5169    2.1972696  0.053766882   0.12055467 
   45400   -953.84905    41.770532   -912.07852     1496.069    9142.7289     2.217985  0.094881592    0.1099543 
   45500    -955.5764     36.98048   -918.59592    1324.5067    4734.8066    2.2144705  0.088547487   0.11263382 
   45600   -955.18595    41.243134   -913.94281    1477.1795   -10298.261    2.1747978  0.028644983   0.10029465 
   45700   -950.39979    38.338781   -912.06101    1373.1561   -6424.9651    2.1743928 0.0080939502   0.10914007 
   45800   -954.10718    39.292132   -914.81505    1407.3017    4992.3162    2.2124508  0.069455198   0.11038745 
   45900   -957.43981    40.180559   -917.25925    1439.1219    11533.499    2.2284312   0.08726913   0.09800688 
   46000   -948.60158    40.323063   -908.27852    1444.2259   -1151.5651    2.1800049  0.086434902   0.11517991 
   46100   -952.84453    39.778205   -913.06632     1424.711   -9373.4724     2.167104   0.18598215   0.10322428 
   46200   -956.72792    41.098776   -915.62914    1472.0091    -4677.334     2.189351  0.098206057   0.11019913 
   46300   -952.75984    42.219388   -910.54046    1512.1454    10238.661    2.2171631  0.047906181   0.11224363 
   46400   -949.25528    40.146616   -909.10867    1437.9062    7898.7951    2.2053334  0.014563894   0.12361709 
   46500   -953.61605    38.246623   -915.36943    1369.8554   -7492.2577    2.1747633  0.030259019   0.11033549 
   46600   -950.20057    36.684872    -913.5157    1313.9191   -9020.4269    2.1661728  0.052961415    0.1109964 
   46700   -947.41131    40.249439   -907.16187    1441.5889    4222.0667     2.191485  0.030657116   0.10973604 
   46800    -955.6846    40.183102   -915.50149     1439.213     8385.627    2.2183029   0.09345568  0.092992951 
   46900   -952.14829    37.083099   -915.06519    1328.1821    535.88041    2.1972329  0.059209177   0.10710817 
   47000   -949.76702    39.046978   -910.72005    1398.5212   -2616.7506    2.1820057   0.24439523   0.10742215 
   47100   -954.22327    40.076266     -914.147    1435.3865   -3358.4819    2.1893192   0.12275444   0.10252062 
   47200   -956.07248    38.838859   -917.23362    1391.0671    1386.1146    2.2045977  0.037293195   0.09851933 
   47300   -951.26027    38.921832   -912.33844    1394.0389    5225.6344     2.205883  0.062496818   0.11464092 
   47400   -954.88061    41.620184   -913.26042    1490.6841   -155.48449    2.1965423  0.061243504   0.11676198 
   47500   -956.68602    36.723306   -919.96271    1315.2956   -3452.1448    2.1981721 0.0021689354   0.12060119 
   47600   -955.35084    42.234827   -913.11601    1512.6983   -5003.7656    2.1853819  0.026262555   0.10332263 
   47700   -954.36114    42.003579   -912.35756    1504.4159     1730.411    2.1976935  0.014033353  0.089496679 
   47800    -955.5712    36.276374   -919.29482    1299.2882    6352.5598    2.2166115 0.0048881801   0.10030506 
   47900   -951.72186    38.687413   -913.03445    1385.6428    1407.4348    2.1969807   0.11810246  0.095069274 
   48000   -952.00144    39.604158   -912.39729    1418.4773   -2296.3611    2.1859681  0.008768346   0.10937901 
   48100   -954.38924    37.422483   -916.96676    1340.3376   -3013.1755    2.1928467   0.17924151   0.10141093 
   48200   -955.64272    39.752412   -915.89031    1423.7872    2308.8157    2.2052963 0.0041418552    0.1035563 
   48300   -954.50999    44.354839   -910.15515    1588.6295    2704.1483    2.1986754  0.057375338   0.10114153 
   48400    -952.0761    37.514075   -914.56203    1343.6181   -790.45152    2.1895287  0.033887827   0.11182624 
   48500   -951.18719    34.933393    -916.2538    1251.1874   -4435.0291    2.1829667 0.0084376486   0.11447521 
   48600   -951.91655    44.037386   -907.87916    1577.2595   -3652.0755    2.1813198   0.02866039   0.11948282 
   48700   -955.97465    42.973141   -913.00151    1539.1421    9116.4685    2.2194111  0.020766025   0.10803178 
   48800   -953.32987     38.40597    -914.9239    1375.5626     8569.525    2.2131358   0.01300176  0.088077487 
   48900   -950.20455    40.774981   -909.42957    1460.4119   -6383.9194    2.1688723  0.018731408  0.095140349 
   49000   -950.48297    39.706874   -910.77609    1422.1562   -9850.5145    2.1584176  0.046247266  0.096939455 
   49100   -956.90693    41.072676   -915.83426    1471.0743    -1543.831    2.1944691   0.13485073  0.088648651 
   49200   -952.08159    40.614953   -911.46664    1454.6803    11671.875    2.2182583   0.16557126   0.10340351 
   49300   -950.72388    40.842179    -909.8817    1462.8187    3797.9546    2.1976591  0.089252374  0.098413542 
   49400   -955.63121     37.76298   -917.86823     1352.533   -4495.8328    2.1869441 0.0054524984    0.1047056 
   49500   -954.20353    39.888775   -914.31476    1428.6713   -4696.5742    2.1805738  0.043196639   0.10418778 
   49600   -953.79544    42.693073   -911.10236    1529.1111    193.54883    2.1906236  0.080177477   0.11234217 
   49700   -954.96509    36.139726   -918.82536    1294.3939    5587.5575    2.2103081  0.065640556   0.10520925 
   49800   -952.75968    36.959248   -915.80044    1323.7462    272.09775    2.1940902   0.15622504  0.097404834 
   49900   -951.67036    39.562901   -912.10746    1416.9996   -1980.4424    2.1812774   0.11290206   0.10241446 
   50000   -956.38506    39.610807   -916.77425    1418.7155   -2968.6535    2.1905787  0.077413381  0.088275896 
   50100   -955.49372     37.48243   -918.01129    1342.4847    3434.4377    2.2047068   0.16601818  0.092140996 
   50200   -955.19793    43.745357   -911.45257       1566.8   -576.37162    2.1925988   0.12049051  0.095553169 
   50300   -953.76309     38.68005   -915.08304    1385.3791   -2484.7244    2.1885875  0.088832187   0.10201443 
   50400    -957.3169    38.546575   -918.77033    1380.5985   -4226.2004    2.1910186  0.066545832   0.10262554 
   50500   -951.87374    41.580764   -910.29297    1489.2722   -2633.0433    2.1835416   0.14471463    0.1057513 
   50600   -955.36059    42.338333   -913.02226    1516.4056    6250.1951    2.2140423 0.0088890597   0.11497515 
   50700   -952.69769    36.645452   -916.05224    1312.5072    9553.9289    2.2170265   0.06288315    0.1199573 
   50800   -948.55548    40.636723   -907.91876    1455.4601   -6648.3055    2.1644292   0.17821638    0.1330874 
   50900    -949.3302    37.831169   -911.49903    1354.9753    -9598.438    2.1615744  0.023168203   0.11785764 
   51000   -954.40839    39.223019   -915.18537    1404.8263    2281.4932    2.2030204  0.055543484   0.10100608 
   51100   -957.37037    44.704846   -912.66553    1601.1655    12684.181    2.2282164  0.038788688  0.088402534 
   51200   -952.70767    45.626457   -907.08121    1634.1742    197.85391    2.1929799  0.011923575   0.10433659 
   51300   -951.58625    36.350481   -915.23576    1301.9424   -6848.5183    2.1780885    0.1556553   0.10874637 
   51400   -951.98127     37.40851   -914.57276    1339.8372    -5845.769    2.1816463  0.046142471   0.11164527 
   51500   -951.37047    42.015914   -909.35455    1504.8577    4577.3991    2.1996262   0.20574817   0.10294211 
   51600    -956.1621    42.140727   -914.02138     1509.328    2829.1575    2.2084514   0.02844657  0.086895592 
   51700   -954.30351    37.927755   -916.37575    1358.4346   -1045.5831    2.1969348   0.14937864   0.11822786 
   51800   -954.58681    41.658947   -912.92786    1492.0724   -6058.3286    2.1855617   0.12849006   0.11834725 
   51900   -950.71946    39.752255    -910.9672    1423.7816    947.03135    2.1934587  0.033545288   0.13275637 
   52000   -960.00292     40.70721   -919.29571    1457.9846    4417.9372    2.2205051  0.022290833   0.10880647 
   52100   -954.75946    40.796183   -913.96328    1461.1713   -185.15889    2.1993926  0.086880762  0.099871389 
   52200   -951.52601    39.413431   -912.11257    1411.6462   -4829.7306     2.181267   0.25273464   0.10424576 
   52300   -956.88573    38.112131    -918.7736    1365.0383   -4277.1401    2.1940835    0.2711915  0.091169029 
   52400   -955.96114    39.968327   -915.99281    1431.5205    1348.6261    2.2041341   0.25905385   0.10482223 
   52500   -952.15362    40.683763   -911.46985    1457.1449    6518.6465     2.206058   0.10978998  0.098688688 
   52600     -955.148    38.791882   -916.35611    1389.3845    55.212268    2.1989812  0.043208253    0.1035601 
   52700   -956.63115    38.155136   -918.47601    1366.5786   -6369.1142    2.1855478  0.092355587  0.096226188 
   52800   -952.77562    41.552508   -911.22312    1488.2602   -9510.4649     2.170563  0.048280465   0.10259926 
   52900   -956.67072    42.374828   -914.29589    1517.7127    4864.1915    2.2107737    0.1463153   0.11510899 
   53000   -953.90499    38.768181   -915.13681    1388.5357    20685.448    2.2464813   0.12295143    0.1179526 
   53100   -947.11681    40.099029   -907.01778    1436.2018   -728.63069     2.181082   0.13362647     0.124722 
   53200   -954.44186    41.550146   -912.89172    1488.1756   -16166.566    2.1543611   0.11526604   0.11437174 
   53300   -953.97036    38.727609   -915.24275    1387.0825   -4842.4434    2.1829641   0.21402249  0.097879331 
   53400   -954.01289    43.266724   -910.74616    1549.6571    9354.9918    2.2180672  0.054597596   0.10794606 
   53500   -950.39812    41.871917    -908.5262    1499.7002    8162.4795    2.2071171   0.19497256   0.11129929 
   53600   -952.48821     36.81515   -915.67306    1318.5852   -3270.0975    2.1896111  0.048299478   0.11623499 
   53700   -951.95746    38.200937   -913.75653     1368.219   -5924.1117    2.1784323  0.078199497   0.10471674 
   53800   -948.86047    40.354803   -908.50566    1445.3627    1281.0831    2.1866074   0.19018468   0.11057062 
   53900   -954.29489    37.709565   -916.58532    1350.6199    7169.5863    2.2169731  0.091518681   0.10531467 
   54000   -952.73831     37.37374   -915.36457    1338.5918    1850.8479    2.1998761  0.085350257    0.1073342 
   54100   -952.08604    40.125738    -911.9603    1437.1584   -6039.3941    2.1794858  0.016897091   0.12339995 
   54200   -950.56996    37.383318   -913.18664    1338.9349   -1828.4439    2.1835848  0.096487391   0.11911938 
   54300   -954.33991     35.81032   -918.52959    1282.5958    6332.0169    2.2145187   0.16785773   0.11512635 
   54400   -955.82161    43.547704    -912.2739    1559.7208    5487.1237    2.2146429   0.03241257   0.10050532 
   54500   -951.48782    38.427933   -913.05989    1376.3492    14.341254    2.1935652  0.074117867   0.10138595 
   54600   -957.09907    36.881329   -920.21774    1320.9555   -10099.925    2.1800952 0.0062626542   0.10132694 
   54700   -950.76753    37.013136    -913.7544    1325.6763   -4037.8139     2.182355   0.17000437   0.10652041 
   54800   -953.53698     42.18624   -911.35074    1510.9581    11705.933    2.2231102  0.027859975    0.1079079 
   54900    -957.1262    40.565561   -916.56063    1452.9113     14404.73    2.2367521  0.020257175  0.099214411 
   55000   -953.35623    38.562435   -914.79379    1381.1666   -5815.9252    2.1826466  0.043673485   0.10660836 
   55100   -950.23781    39.574738   -910.66308    1417.4236   -12163.916    2.1570631   0.19978718   0.11809246 
   55200   -954.18795     38.91758   -915.27037    1393.8866   -3043.9566    2.1905371  0.042744567   0.11754706 
   55300   -953.02644    37.669373   -915.35707    1349.1803    7288.9895    2.2126369   0.14071762   0.10508988 
   55400   -949.21386    41.355721   -907.85813     1481.212    3621.1153    2.1904742   0.18849035   0.11287958 
   55500   -955.06602    40.497785   -914.56824    1450.4838   -2400.6316    2.1910926  0.095132635  0.099825158 
   55600   -957.47955    42.325645   -915.15391    1515.9511   -5045.4061    2.1875119   0.12966655  0.090372838 
   55700   -947.72857    39.869375   -907.85919    1427.9764    2190.7762    2.1849308  0.058479015   0.10582981 
   55800   -955.46503     40.39253    -915.0725    1446.7139    4355.6594    2.2093806  0.035679023  0.093403247 
   55900   -955.14586    39.908604   -915.23726    1429.3815    1289.9819    2.2022154  0.031720439  0.091942305 
   56000   -951.00596     40.93383   -910.07213    1466.1013   -3324.5439    2.1786038  0.097940966   0.10377144 
   56100   -953.58635    39.208971   -914.37737    1404.3231   -6199.2174     2.180832   0.16291823  0.096236549 
   56200   -956.79508    40.154746   -916.64033    1438.1974    593.09995    2.2035292   0.15850433   0.10200076 
   56300   -950.29247    39.139306   -911.15316     1401.828     9744.294    2.2123354   0.12094966   0.11384461 
   56400   -955.09501    40.558028   -914.53698    1452.6415   -864.76913    2.2003989  0.070566844   0.12058557 
   56500   -954.61428     35.60073   -919.01355     1275.089   -7838.3685    2.1796602  0.026757444   0.11804387 
   56600   -952.91664    40.033799   -912.88284    1433.8655   -7644.6348    2.1764779   0.21235423   0.12045997 
   56700    -953.6958    40.949546   -912.74625    1466.6643    6217.5434    2.2127412   0.11025301    0.1088066 
   56800   -956.33843    37.494759   -918.84367    1342.9263    14221.161    2.2393922  0.018623631  0.095937688 
   56900   -951.07586    39.815069   -911.26079    1426.0314   -2109.4837    2.1863728  0.087102871   0.11303832 
   57000   -952.21797    39.759774   -912.45819    1424.0509   -11352.428    2.1640267  0.052784602   0.10504062 
   57100   -953.65067    37.462481   -916.18819    1341.7702   -3982.1505    2.1899666  0.058401159   0.10259996 
   57200   -957.16134    40.880968   -916.28037     1464.208    7806.2942     2.221756   0.18520602  0.091635839 
   57300   -953.25517    43.867051   -909.38812    1571.1587     3132.711    2.1968409 0.0028708878   0.10742276 
   57400   -951.90771    37.408499   -914.49921    1339.8368   -2164.0744    2.1875187  0.073729474   0.12396018 
   57500   -954.02592    38.403349   -915.62257    1375.4687   -3360.1943    2.1899024   0.15682111   0.12596637 
   57600   -949.19524    41.953319   -907.24192    1502.6157   -418.77126    2.1839985  0.038612019   0.13736503 
   57700   -953.15271    39.553369   -913.59935    1416.6582     4109.643    2.2044832   0.10953779   0.10513433 
   57800   -952.52268    37.180671   -915.34201    1331.6768    2156.1799    2.2013799  0.058318689   0.10967436 
   57900   -952.17857    42.782822   -909.39574    1532.3255   -3450.0603     2.182485  0.010331349   0.10307509 
   58000   -950.35671    38.124802    -912.2319    1365.4922   -2800.6976    2.1829872   0.17184427   0.10729687 
   58100   -953.69551    37.747715   -915.94779    1351.9863    751.31889    2.1981071  0.031434318    0.1011448 
   58200   -951.58569    40.063101   -911.52259     1434.915    6290.1666    2.2069306  0.026898346   0.10230601 
   58300   -953.87525    42.774736   -911.10051    1532.0359    2944.2606     2.199462 0.0066979868   0.09322622 
   58400   -955.81242    37.530485   -918.28193    1344.2059   -4145.0501     2.189971  0.012887477  0.096025864 
   58500   -951.08075    36.962979   -914.11777    1323.8799   -5368.9335    2.1764985   0.12216492   0.11250284 
   58600   -953.09796    41.832712   -911.26525     1498.296    2341.3972    2.1981859  0.049181716   0.11414625 
   58700   -957.04228    38.142893   -918.89939    1366.1401    12076.513    2.2358432  0.068417485   0.11588592 
   58800   -951.72462    36.636752   -915.08787    1312.1956    2662.0316    2.1993117  0.017870951   0.10231107 
   58900   -951.05651    38.504019   -912.55249    1379.0743   -10746.495    2.1612851  0.079351629   0.10872109 
   59000   -954.48355    38.931027   -915.55252    1394.3682   -7740.2411    2.1790037   0.12119472  0.095721455 
   59100   -955.90211    37.454389   -918.44772    1341.4804     10983.54    2.2287336  0.092765288  0.095425277 
   59200   -954.59126    44.254644   -910.33661    1585.0409    5465.4591    2.2106091  0.043572669  0.099728422 
   59300   -957.06902    43.231154   -913.83787    1548.3832    -5537.307     2.186919  0.033091607  0.086013187 
   59400    -955.3279    38.326928   -917.00098    1372.7316   -7107.7523    2.1835039   0.13546389  0.093381051 
   59500   -950.95414    41.382908   -909.57123    1482.1857    1638.7784    2.1928637  0.025477393  0.090264809 
   59600   -950.38705    39.572653    -910.8144    1417.3489    6460.3567    2.2073665   0.02074414   0.10906988 
   59700   -953.57615    38.107844   -915.46831    1364.8848    3473.1343    2.2045074  0.042427296   0.10864154 
   59800   -954.39581    41.859653   -912.53616    1499.2609   -3393.0106    2.1877855  0.079426871    0.1098831 
   59900   -949.19341    40.509643   -908.68376    1450.9085   -4077.0621    2.1791786   0.19062835   0.10956507 
   60000    -953.9314    38.269912   -915.66149    1370.6895    2628.1581    2.2043864  0.088227043  0.095402524 
   60100   -953.56705    40.454987   -913.11206    1448.9509    5422.6775    2.2088754  0.086884248   0.10750772 
   60200   -948.07528    40.255978    -907.8193    1441.8232    2360.2472    2.1912415   0.12077958   0.10507695 
   60300    -953.9738    37.567546   -916.40626    1345.5332   -1659.0345    2.1948743   0.23489674    0.1109845 
   60400   -954.68676    39.970268   -914.71649      1431.59   -5351.1062    2.1839572   0.14207474    0.1048104 
   60500    -949.7894     39.44248   -910.34693    1412.6866    1623.5578     2.191865  0.047141472  0.099997183 
   60600   -956.24628    38.397564   -917.84871    1375.2615    10868.208    2.2299235   0.19061321  0.098354984 
   60700   -955.35227    39.204101   -916.14817    1404.1487    3753.4336    2.2048349  0.032949214   0.10299448 
   60800   -950.81474    38.421245    -912.3935    1376.1097   -11161.642    2.1634883   0.18009775    0.1128831 
   60900   -952.86876     39.88136    -912.9874    1428.4057   -10544.738    2.1692898   0.21634299   0.10710584 
   61000   -960.83498    41.529149   -919.30583    1487.4235     6261.576    2.2254811  0.024721846    0.1071988 
   61100   -952.86047    41.291906   -911.56856    1478.9263    10034.125    2.2205224   0.18941903   0.10995232 
   61200   -950.45913    37.267594   -913.19153    1334.7901    1108.0894    2.1936279   0.18442827   0.11535375 
   61300   -954.94819    36.598789   -918.34941    1310.8359   -7735.9451    2.1804774 0.0050061861   0.10326246 
   61400   -952.94457    39.729605   -913.21497    1422.9704   -2818.2259    2.1874608  0.051942716   0.10374923 
   61500    -953.9777    42.814752   -911.16295    1533.4692    6308.0839    2.2103655   0.11411973   0.10530069 
   61600   -952.37603    36.937566   -915.43846    1322.9697    5717.3122    2.2081936  0.082910209   0.10238514 
   61700   -953.47848     38.65847   -914.82001    1384.6062   -2690.0041    2.1898963 0.0051534601   0.10705371 
   61800   -954.08774    45.132081   -908.95566    1616.4675   -10963.702    2.1676025   0.16723193   0.10844589 
   61900    -956.5038    41.323555   -915.18024    1480.0599   -4153.4321    2.1927069   0.17589502   0.10220811 
   62000   -954.34989    39.916286    -914.4336    1429.6566    7162.6119    2.2126351  0.076912395  0.099853676 
   62100   -948.31984    41.292426   -907.02741    1478.9449    4324.8027    2.1951768   0.14375845   0.10562622 
   62200   -954.03074      39.3772   -914.65354    1410.3485   -2922.7307     2.189798    0.1489258   0.10334853 
   62300   -951.50111    36.543465   -914.95765    1308.8544   -5109.3511    2.1812523   0.11797813   0.10854974 
   62400   -950.95942    41.810682   -909.14874     1497.507   -1976.3311     2.185411  0.031888864   0.10947592 
   62500   -954.64761    39.445941   -915.20167    1412.8106    3818.3227    2.2084143   0.15002215     0.110616 
   62600   -955.62539    39.423808   -916.20158    1412.0178    1088.3662    2.2019855  0.047948767   0.11622414 
   62700   -949.28427    37.299093   -911.98517    1335.9182    1530.2524    2.1916994    0.2739336   0.10403674 
   62800   -950.45485    38.045723   -912.40912    1362.6598   -656.49594    2.1912052  0.018304904   0.11730248 
   62900   -959.46625    40.284527   -919.18172    1442.8456   -304.18716    2.2103677  0.053811371   0.10016409 
   63000   -954.06967    40.902686   -913.16698    1464.9859    673.25269    2.2008994   0.17158861  0.098226248 
   63100   -953.05181    40.487709    -912.5641    1450.1229   -625.17447    2.1942839  0.078057255   0.11651398 
   63200   -955.37662    35.436201   -919.94042    1269.1962     1053.249    2.2057986  0.051647916   0.10204355 
   63300   -955.20743     41.42062   -913.78681    1483.5364   -1325.1149    2.1948929  0.044916031   0.10553345 
   63400   -955.85238    43.491622   -912.36075    1557.7122    220.40834    2.1967024   0.10304971   0.10560798 
   63500   -955.27584    37.623213   -917.65262     1347.527      1261.98    2.2063252   0.15176898   0.10677897 
   63600   -955.15885    39.335348    -915.8235    1408.8495    544.99228    2.2031651   0.12958168   0.10677334 
   63700   -952.41863    41.153295   -911.26533    1473.9618   -1462.9299    2.1906183   0.17022046   0.11867093 
   63800   -954.19281    39.051733   -915.14108    1398.6915   -2573.6659    2.1913762  0.034725555   0.11726947 
   63900   -954.98012    38.773017    -916.2071    1388.7089    1664.0975    2.2012002  0.019952646   0.10619335 
   64000   -950.63549    42.649595   -907.98589    1527.5538    4031.6055    2.1994701   0.28453691   0.11837754 
   64100   -956.51374    43.305776   -913.20797    1551.0559    1730.4032    2.2052551  0.058143039  0.099406215 
   64200   -954.46392    38.656091   -915.80783     1384.521   -2588.9902    2.1915624   0.01563292   0.10144305 
   64300   -952.40139    43.967232   -908.43416    1574.7468   -9185.1572    2.1717395   0.16836276   0.11092306 
   64400   -954.31846    42.575879   -911.74258    1524.9136   -57.234973    2.1975355  0.053308173   0.10716424 
   64500   -956.65309    41.941325   -914.71176    1502.1862    7323.5105    2.2171797  0.030346895  0.092243436 
   64600   -952.23703    40.031889   -912.20514    1433.7971    4485.1986    2.2018869  0.052573998   0.10237692 
   64700   -951.58386    43.991195   -907.59267    1575.6051   -9365.3169    2.1640323  0.094315298  0.096324495 
   64800   -953.79309    37.236057   -916.55703    1333.6605   -3424.4685    2.1867736   0.15182831  0.094604442 
   64900    -953.5062    39.290001    -914.2162    1407.2254    4804.4497    2.2078997  0.080341766   0.10876033 
   65000   -951.25784    40.886097   -910.37174    1464.3917    8027.4183    2.2103874  0.024476579   0.11394554 
   65100   -953.22595    40.269502   -912.95644    1442.3075   -3250.6138    2.1868122  0.015118487  0.098926294 
   65200   -953.00718    35.601372   -917.40581     1275.112   -7613.7635    2.1763225  0.067497967   0.10007857 
   65300   -954.49359    41.008329   -913.48526    1468.7696   -1533.3902    2.1917753  0.035690474  0.099520186 
   65400    -953.7042    43.039255   -910.66495      1541.51    7824.3427    2.2147129   0.05591251   0.11098006 
   65500   -956.67927    37.788223   -918.89105    1353.4371    4370.7753    2.2151624   0.10878216   0.11713017 
   65600   -955.47768    40.096727   -915.38096    1436.1194   -8501.3833    2.1771424  0.046503566  0.099606984 
   65700   -953.62912    41.319295   -912.30983    1479.9073   -6552.4626    2.1799055  0.076338964    0.1017184 
   65800   -951.99563    35.449311   -916.54632    1269.6658    4131.6229    2.2052478  0.058581332   0.10095474 
   65900   -957.12148    38.969468   -918.15201     1395.745     3644.746    2.2137498   0.26558861   0.10216359 
   66000   -949.94251    38.366073   -911.57644    1374.1336    1053.0938    2.1916775  0.057481443   0.11398753 
   66100   -956.41156    41.355368   -915.05619    1481.1993    -5432.612    2.1890749   0.12253286    0.1047403 
   66200   -955.99662    37.175358   -918.82126    1331.4865    11.155682     2.202265   0.15343409   0.10363879 
   66300   -949.66716    39.486101   -910.18106    1414.2489    2245.2143    2.1928507  0.024261319   0.10708944 
   66400   -951.11351    38.315054   -912.79845    1372.3063     5740.063    2.2050277    0.1710621   0.10379362 
   66500   -953.83034      37.5737   -916.25664    1345.7537     2734.245     2.203743   0.20202754   0.11249839 
   66600    -951.5905    42.514996    -909.0755     1522.733   -5476.6404    2.1809086  0.023325109   0.11422759 
   66700   -949.23019    38.172398   -911.05779    1367.1969   -426.23664    2.1885706  0.083880106   0.10671658 
   66800   -953.10974    37.808283   -915.30146    1354.1556    2545.6064    2.2034452  0.066660872   0.10285092 
   66900   -951.74914    39.367946   -912.38119    1410.0171    4819.4426    2.2061798   0.05573609  0.095062146 
   67000   -946.40529    38.541901   -907.86339    1380.4311     1100.655    2.1803864  0.013837866  0.091888756 
   67100   -954.87075    38.943776   -915.92697    1394.8248   -7679.8472    2.1792689   0.14128313   0.10076189 
   67200   -953.68615    39.819768   -913.86638    1426.1997   -411.67501    2.1952234  0.041450675   0.10931999 
   67300   -949.28855    41.066664   -908.22188     1470.859    11332.046    2.2108334   0.16598062   0.10722111 
   67400   -953.67218    38.081654   -915.59052    1363.9467    4308.7023    2.2073105  0.043482288   0.11019913 
   67500   -954.96987     39.26169   -915.70818    1406.2113   -11111.874    2.1675356     0.133753  0.091662151 
   67600   -951.60914    39.782882   -911.82626    1424.8786   -9639.1517    2.1662379   0.10586342    0.1032313 
   67700   -954.54037    38.486068    -916.0543    1378.4314    5500.9539     2.211787  0.054569097   0.10449944 
   67800   -958.53669    40.795049   -917.74164    1461.1307    8570.8184     2.226905  0.057984256  0.097682117 
   67900   -952.67463    40.625194   -912.04944    1455.0471    1343.3152    2.1958646  0.039785851  0.098799867 
   68000   -954.09776    40.020286   -914.07747    1433.3815    -6359.741    2.1800938   0.13017132  0.089045169 
   68100   -955.61833    35.846875   -919.77146     1283.905   -2786.0626    2.1954931   0.12353952  0.099956769 
   68200   -950.49197    38.578654   -911.91332    1381.7475    2425.4041    2.1954487  0.070045884   0.10336244 
   68300    -956.0689    42.872088   -913.19682    1535.5227    1977.6588     2.203295  0.071411675   0.10634269 
   68400    -955.5942    37.221883   -918.37232    1333.1529    2268.4272    2.2041686  0.071276075  0.097070149 
   68500   -952.78589    41.744061   -911.04183    1495.1209   -2897.5606    2.1842572  0.074784608   0.10074905 
   68600   -950.78798    38.839342   -911.94863    1391.0844    598.20793    2.1922984   0.26304357   0.10397687 
   68700   -956.52086    40.667246   -915.85361    1456.5533    3409.3982    2.2063391  0.030927896  0.099732923 
   68800    -954.3131     40.76113   -913.55197    1459.9159    1641.6904    2.1999375  0.090217313   0.11313888 
   68900   -948.56226    39.447103   -909.11516    1412.8522   -2003.3497    2.1805627   0.11779205   0.10381697 
   69000   -958.43042    42.948472   -915.48195    1538.2585   -9234.9741    2.1808862  0.013781655  0.093854668 
   69100   -956.89782    42.859176   -914.03865    1535.0603   -1156.0897    2.1961046  0.037332475  0.081266028 
   69200   -951.80458    45.175518   -906.62907    1618.0232    11244.403    2.2137859  0.025885917  0.091501995 
   69300   -951.86318    37.956798   -913.90638    1359.4749    9458.1691    2.2139988  0.020632606   0.10807396 
   69400   -954.71667    39.389262   -915.32741    1410.7805   -11607.139     2.165202  0.051821015  0.094936816 
   69500   -948.84097    39.580626   -909.26034    1417.6345    -11585.08    2.1519982  0.098577043   0.10926874 
   69600   -955.75916    39.869743   -915.88942    1427.9896    3801.3372    2.2071093   0.23189248  0.096621942 
   69700   -954.44697    38.708452   -915.73852    1386.3964     11089.36     2.221747   0.22368262    0.1007019 
   69800   -952.43436    40.491077   -911.94329    1450.2435      2478.41    2.1967462  0.061940158  0.091804585 
   69900   -952.82566    39.549935   -913.27572    1416.5353   -8339.1519     2.171517  0.099900129    0.1012999 
   70000   -955.21541    35.999301   -919.21611    1289.3644   -4764.9577    2.1903517   0.17621236    0.1063333 
   70100   -954.90482    42.455873   -912.44895    1520.6154    3042.4448    2.2033556   0.10899495  0.097028634 
   70200    -952.4789    39.679794   -912.79911    1421.1863    7387.5685    2.2099798   0.21249622  0.099898058 
   70300   -955.80626    36.290213   -919.51605    1299.7838     2583.403    2.2044035   0.18553537  0.081605466 
   70400   -952.99364    40.730242    -912.2634    1458.8096   -6334.1472    2.1767503  0.039924143  0.092515753 
   70500   -951.93579    39.459384    -912.4764     1413.292   -2166.3065    2.1911438  0.080390362   0.11475131 
   70600   -954.59884    37.692691   -916.90615    1350.0155    5946.6477    2.2147005 0.0033668146   0.11245826 
   70700   -952.77872    39.277974   -913.50074    1406.7946    6884.0547    2.2100239  0.094331543   0.10508581 
   70800   -949.19978    38.882222   -910.31756    1392.6202     279.7129    2.1864163  0.060818677   0.11160028 
   70900   -953.40343    37.836468   -915.56696    1355.1651   -8337.3137    2.1765843   0.19749505  0.094405565 
[...]
  186800   -957.14475    38.699937   -918.44481    1386.0914    11965.361      2.23335  0.088094778  0.099675756 
  186900   -951.58823     41.61081   -909.97742    1490.3483    4571.3245    2.2010033   0.21610872   0.10965815 
  187000   -950.83745    37.546896   -913.29055    1344.7936   -7179.4805    2.1688047  0.062016481   0.10926235 
  187100   -954.23178    37.404836   -916.82694    1339.7056   -9735.8417    2.1747655  0.063736448   0.10273184 
  187200   -952.62619    40.560441   -912.06575    1452.7279     5101.613    2.2051583   0.10251223   0.11003384 
  187300    -950.5942    40.989325   -909.60487     1468.089     11698.36    2.2154569   0.15497534   0.10007072 
  187400   -952.95624    37.735695   -915.22054    1351.5557   -362.10359    2.1954929   0.11398253  0.096569414 
  187500    -951.5367    37.764599    -913.7721     1352.591   -6006.6374    2.1765139  0.030807983   0.10920643 
  187600   -952.56651    45.240699   -907.32581    1620.3578   -6560.9585     2.175371  0.084782211   0.10895048 
  187700   -952.20615    36.965536   -915.24061    1323.9714    7666.3854    2.2112963 0.0092820073   0.10826485 
  187800   -950.28087    36.165736   -914.11514    1295.3255    7942.6815    2.2069151   0.12657174   0.11171951 
  187900   -951.24351    42.466123   -908.77739    1520.9825   -3894.2873     2.177255   0.15805064   0.10582328 
  188000   -956.05578    39.972011   -916.08377    1431.6525   -4815.2987    2.1844771   0.06967602  0.099914789 
  188100   -954.81004    39.247994   -915.56204    1405.7208   -2050.9995    2.1935356  0.024881548     0.101949 
  188200   -955.19761    44.295029   -910.90258    1586.4873    1043.1418    2.1968732  0.070576724  0.099993291 
  188300   -956.15308    40.843352   -915.30972    1462.8607   -755.67195    2.1975241    0.5668362  0.099972329 
  188400   -955.36808    37.648138   -917.71994    1348.4198   -1063.2572    2.1926011   0.09094848  0.099667485 
  188500   -953.33693    41.002628    -912.3343    1468.5655   -3657.8315    2.1850945   0.18028883   0.10485822 
  188600   -954.41086    40.885655    -913.5252    1464.3759    1758.5736    2.1965462  0.038736255  0.096414153 
  188700   -956.56149    37.342976   -919.21852      1337.49    8468.7725    2.2201939   0.12528317   0.10423192 
  188800   -952.27454    40.696099   -911.57844    1457.5867   -471.04385    2.1893448   0.19296631   0.11397727 
  188900   -954.04636    40.554388   -913.49197    1452.5111   -11156.311    2.1619278    0.1045376   0.10679377 
  189000   -955.98469    37.585142   -918.39955    1346.1635   -6862.4316    2.1813528  0.054385399  0.090331955 
  189100   -955.08226    41.329404   -913.75286    1480.2694    10680.507    2.2248517   0.13820738   0.10303852 
  189200   -950.27351    39.838867   -910.43465    1426.8837    15410.148    2.2234382  0.053220697  0.098659578 
  189300    -953.5425    37.614013   -915.92849    1347.1976   -3201.8494    2.1847773   0.16083909  0.092185843 
  189400   -951.37689    37.918375   -913.45851    1358.0987    -8836.807    2.1641565   0.13619011   0.10056694 
  189500   -948.38493    39.691823   -908.69311    1421.6172   -1789.6765     2.176841   0.13995489   0.11124541 
  189600   -955.03811    40.581075   -914.45704    1453.4669    7252.3822     2.212551   0.20344868   0.10914236 
  189700   -955.98407    41.059231   -914.92484    1470.5928    5215.2727     2.209609   0.12288427   0.11551633 
  189800   -947.78268    40.566618   -907.21607    1452.9491    -3474.195    2.1702121  0.062656434   0.12711953 
  189900   -953.28256    38.601487   -914.68107    1382.5653   -4950.6104    2.1797757   0.02315511   0.10586198 
  190000   -955.27985    40.418882   -914.86096    1447.6578   -839.00832    2.1926823  0.031342766    0.1003093 
  190100   -952.96802     43.55046   -909.41756    1559.8195    4664.0804     2.199559   0.04510352  0.095528602 
  190200   -954.40034    40.944293   -913.45604    1466.4761    389.48167    2.1942137   0.26940404  0.092150089 
  190300   -955.51732    38.835858   -916.68147    1390.9596   -6184.3647    2.1814906  0.096246687   0.10714379 
  190400    -952.1114    39.708769   -912.40263    1422.2241   -2845.4838    2.1821409   0.16473382   0.10770557 
  190500   -954.47096    43.248564   -911.22239    1549.0067    3539.5351    2.2038857  0.056565274   0.10036884 
  190600      -955.19    36.634516   -918.55548    1312.1155    14137.335    2.2351057  0.016251778   0.11758017 
  190700   -950.68526    37.830145   -912.85512    1354.9386    272.75422    2.1910087  0.084909859   0.11316996 
  190800   -952.50856    39.684737   -912.82382    1421.3634   -15054.181    2.1518545  0.029917334   0.12057581 
  190900   -954.32721    35.772386   -918.55482    1281.2372   -7277.8566    2.1828321   0.24437674   0.11708163 
  191000   -952.09191    36.337715   -915.75419    1301.4852    14319.889     2.229622  0.087218047   0.10966374 
  191100   -954.70103    43.798172   -910.90286    1568.6917    8631.1556    2.2148291  0.066620855  0.099299889 
  191200   -954.16433    38.089949   -916.07438    1364.2438   -3702.2258    2.1859342  0.068063203  0.086601715 
  191300   -953.09065    36.371377   -916.71927    1302.6908   -5734.2277    2.1818064  0.040250864  0.096830674 
  191400    -952.2685    42.522792    -909.7457    1523.0122   -2818.1701    2.1835301  0.029607001   0.10060015 
  191500   -954.06284    39.734596   -914.32824    1423.1491    2628.7618    2.2051074  0.056970167  0.098942678 
  191600   -954.94408    38.792253   -916.15183    1389.3978    4398.7316    2.2085762  0.010865956  0.096956125 
  191700   -952.13664    44.488412   -907.64823    1593.4136   -3579.1465    2.1769838   0.13494105   0.10842875 
  191800   -955.75283    41.893336    -913.8595    1500.4674   -3825.9945    2.1871466  0.068292491   0.10543829 
  191900   -952.53897    37.194159   -915.34481    1332.1599    1741.3356    2.1991265  0.033902857   0.11368785 
  192000    -954.3942    45.751076   -908.64312    1638.6376    392.38375    2.1969739  0.076382645    0.1135203 
  192100   -953.01901    40.140175   -912.87883    1437.6755    3337.7167    2.1989817  0.046781065  0.092073913 
  192200   -952.85494    36.780205   -916.07473    1317.3336   -4280.2518    2.1840079   0.22585928   0.10886952 
  192300   -952.43609    40.981631   -911.45446    1467.8134   -7105.9916    2.1768549  0.044549445  0.090139937 
  192400   -953.42827     43.25561   -910.17266    1549.2591    5348.4486    2.2019198   0.10180978  0.091493281 
  192500   -955.95782    39.135347   -916.82248    1401.6862    13439.493    2.2332907   0.28265415   0.10236103 
  192600   -953.20033     40.57311   -912.62722    1453.1817     3232.755    2.1994329   0.21855762   0.10472269 
  192700   -953.16966    40.627916   -912.54174    1455.1446   -10919.909    2.1624745   0.16665339   0.11664547 
  192800   -955.62777    35.481604   -920.14617    1270.8224   -6257.4092    2.1845804  0.023220344    0.1033152 
  192900   -955.29203    41.385141   -913.90689    1482.2657    4680.5213    2.2100204   0.17180953   0.10129522 
  193000   -950.53492    38.822455   -911.71246    1390.4795    11219.737     2.217478  0.015068993   0.11273556 
  193100    -956.7687    38.439346   -918.32935     1376.758   -525.38208    2.2000508   0.21348559   0.10377026 
  193200   -955.95995    41.561003   -914.39894    1488.5644   -7560.4279    2.1809165  0.077946924  0.091522736 
  193300   -953.13405    41.587466   -911.54658    1489.5122   -2183.6954    2.1848402   0.10157351  0.094362992 
  193400   -957.45833    41.543071   -915.91526    1487.9222    647.61799    2.2035802  0.033463417  0.090287677 
  193500   -953.29583    36.808983   -916.48684    1318.3643    4937.1991    2.2086621   0.22959215  0.099346711 
  193600   -951.35386    42.144289   -909.20957    1509.4556   -2427.0778    2.1828712   0.27898578   0.11595967 
  193700   -953.86401    39.342473   -914.52154    1409.1047   -3908.8351    2.1875168   0.02309158   0.10184217 
  193800   -951.23121    35.950693   -915.28051    1287.6234    3290.7264    2.1989563 0.0027919207    0.1093809 
  193900   -951.61661    44.341107    -907.2755    1588.1376    1133.3039    2.1926194  0.060727319   0.11851464 
  194000    -953.1794    39.073631   -914.10577    1399.4757    4272.0425    2.2080261   0.16937726   0.10340936 
  194100   -952.89678    37.527177    -915.3696    1344.0874   -1436.3825    2.1934915  0.093973772   0.10096113 
  194200   -950.42891    41.600995   -908.82792    1489.9968   -7815.6114    2.1681899   0.20344553  0.097722126 
  194300   -952.81039    38.612182   -914.19821    1382.9483   -2237.7575    2.1918051  0.047194195  0.099355894 
  194400   -953.90576    38.535923   -915.36984     1380.217    9875.2841    2.2237397   0.20665713    0.1057724 
  194500    -952.9564    42.112919   -910.84348     1508.332    9901.3613    2.2205028   0.07669746  0.088389321 
  194600   -953.05255    39.537876   -913.51467    1416.1033   -8259.3564    2.1760546 0.0027876118    0.1073031 
  194700    -953.5442    35.023723   -918.52047    1254.4228   -11427.516    2.1706582  0.062189137  0.099587195 
  194800   -953.14194    40.546323   -912.59561    1452.2222    193.92429    2.1956819 0.0093468858   0.10700051 
  194900   -951.89652    39.523381   -912.37314    1415.5842    11825.623    2.2230119   0.02580826   0.12798017 
  195000   -956.67537    37.427585   -919.24778    1340.5204    7193.5442    2.2219416   0.17742522   0.10442388 
  195100    -951.6236    39.877093    -911.7465    1428.2529   -5435.6772    2.1780393  0.067009878   0.10273294 
  195200   -953.63198    40.842172    -912.7898    1462.8185   -6694.8855    2.1792452   0.10608733   0.10365306 
  195300   -954.74986    37.344411   -917.40545    1337.5414    2621.2653    2.2067892  0.071461465  0.098935864 
  195400    -952.7895    40.602825   -912.18667     1454.246    7112.0029    2.2130365   0.10960813    0.1063594 
  195500   -954.60317    43.674642   -910.92852    1564.2673     717.5363    2.1963121   0.11179654   0.10368974 
  195600   -954.56078    38.370969   -916.18981     1374.309    -4791.628    2.1845387 0.0092310713  0.084794268 
  195700   -948.16104    35.420233    -912.7408    1268.6243   -554.69803    2.1847898    0.2995543   0.10049203 
  195800   -951.53499    42.603755   -908.93123     1525.912    1730.9899     2.192764  0.082989465    0.1186882 
  195900   -954.56556    39.053556     -915.512    1398.7567      3970.46    2.2087528   0.11385655   0.11771602 
  196000   -952.35138    38.871189   -913.48019     1392.225    433.10304    2.1968655   0.30959801   0.12759519 
  196100   -948.79731    40.578076   -908.21923    1453.3595   -5303.5271    2.1732876  0.089380445   0.12032061 
  196200    -957.4526    40.569106    -916.8835    1453.0382   -3159.0733    2.1962504   0.14723053   0.10395335 
  196300   -953.76148     39.78693   -913.97455    1425.0235    7282.5243    2.2146067   0.19320288   0.10162904 
  196400    -950.9676    41.504618   -909.46298    1486.5449    8801.6915    2.2093687   0.41821544   0.10366263 
  196500   -953.50326    37.586319   -915.91694    1346.2056   -6711.0091    2.1766354   0.05374017   0.10002767 
  196600   -950.66359    34.472827   -916.19077    1234.6916   -14625.776    2.1577485   0.14615191   0.10578424 
  196700   -954.47632    42.915682   -911.56064    1537.0841   -2806.8634    2.1913006  0.093969118    0.1001836 
  196800   -953.60869    39.005037   -914.60365     1397.019    12866.332    2.2279361   0.19618993  0.098520392 
  196900   -954.13469    35.683251   -918.45144    1278.0446    6957.8184    2.2166371   0.20276807   0.11169127 
  197000   -950.05766    38.269463    -911.7882    1370.6734   -5407.4582    2.1731604   0.25914203   0.11704155 
  197100   -951.58502    37.425308   -914.15971    1340.4388   -7718.9744    2.1717896   0.31610452   0.12772981 
  197200   -954.20768    35.514393   -918.69329    1271.9968    2203.4207    2.2066236   0.22296025   0.12077343 
  197300   -951.19544    40.893673   -910.30177    1464.6631    7969.1081    2.2067464  0.066859816   0.11343524 
  197400   -954.98322    41.896552   -913.08667    1500.5825    935.39366    2.1977366   0.12201896   0.10425833 
  197500   -954.75726    37.112638   -917.64462    1329.2401   -6621.0878    2.1830554   0.16822467  0.098464434 
  197600   -953.18387    42.654614   -910.52925    1527.7336   -6047.6631    2.1771047  0.067011579    0.1092097 
  197700   -954.65287    42.811989   -911.84088    1533.3702    2815.0692    2.2032507  0.056763874     0.107713 
  197800   -952.37002    36.543456   -915.82657    1308.8541    7461.8204     2.212155  0.061252956    0.1053455 
  197900   -951.15345    40.451852    -910.7016    1448.8386    119.37984    2.1858774   0.13997789    0.1014071 
  198000   -950.77674    40.101987   -910.67475    1436.3077   -7214.4607    2.1710507  0.064217803   0.11097251 
  198100    -953.5799    36.971321   -916.60858    1324.1786   -2591.8407    2.1898448   0.19210785   0.11584582 
  198200   -954.59939    42.840933   -911.75846    1534.4068    4842.7171    2.2081814   0.18810317   0.11977356 
  198300    -951.2716     41.64165   -909.62995    1491.4529    8505.1971    2.2088526   0.13349677     0.115765 
  198400   -955.25845    38.158078   -917.10037     1366.684   -5222.3899    2.1872801   0.15632379   0.10913809 
  198500   -950.86523    37.118687   -913.74654    1329.4568    -15610.92    2.1495524  0.066933207   0.11254987 
  198600   -951.25792     40.24754   -911.01038    1441.5209   -2898.5049    2.1813235   0.04278106   0.11153799 
  198700   -956.75388    39.379533   -917.37434    1410.4321    18757.375    2.2473642   0.12950051   0.10714684 
  198800   -953.71244    39.131985   -914.58046    1401.5658    11677.568    2.2213456   0.17576894   0.10838333 
  198900   -948.77621    36.755353   -912.02086    1316.4435   -4772.6699    2.1725805  0.058734104    0.1089656 
  199000   -956.04233    39.263273   -916.77906    1406.2681   -11171.677    2.1744151    0.2342784     0.105583 
  199100   -953.42672    37.108153   -916.31856    1329.0795    1861.1413    2.2001594  0.081957234   0.10803937 
  199200   -952.77457    42.783445   -909.99112    1532.3478     5239.342    2.2034668   0.19825459   0.10339114 
  199300   -955.15397    40.293905   -914.86006    1443.1816    1603.0635    2.1996753   0.19350689   0.10520526 
  199400   -955.18243      38.2671   -916.91533    1370.5888   -4477.4065    2.1846152  0.024277032  0.094921777 
  199500   -950.75019    42.071733   -908.67846    1506.8569   -7382.0809    2.1658838   0.06329112   0.11465946 
  199600   -951.85568    37.589614   -914.26606    1346.3236    3979.4181     2.198928  0.084183524   0.11292608 
  199700   -953.19517    38.095747   -915.09942    1364.4515    8886.8531    2.2142236  0.072772996   0.10449459 
  199800   -948.82351    40.834194   -907.98932    1462.5327    1326.4867     2.185135  0.088623522   0.11243306 
  199900   -952.67234    39.191172   -913.48116    1403.6857   -5610.6903    2.1735221   0.11189789  0.095774983 
  200000   -952.73407    36.862072     -915.872    1320.2657   -5279.7659    2.1783788   0.10917347   0.10011944 
  200100   -948.79752    39.034629   -909.76289    1398.0788    6258.6275    2.1975122   0.12133598   0.10790859 
  200200   -953.42978    39.783528   -913.64625    1424.9017    10137.784    2.2173251  0.070871116  0.087868504 
  200300   -954.38217    37.624915   -916.75725     1347.588    1003.8686    2.1948209   0.23540559  0.090684231 
  200400   -954.47443    42.050252   -912.42418    1506.0875   -11398.569    2.1675269    0.1325708   0.10096832 
  200500   -950.13843    39.189446   -910.94899    1403.6238   -5749.7718    2.1718998     6.324482   0.12233449 
  200600   -955.40409    36.561013   -918.84307    1309.4829    11452.306     2.228339    8.9612969   0.12180599 
  200700   -951.92456    39.960728   -911.96384    1431.2484    9112.4341    2.2153771    11.860014   0.13077462 
  200800   -950.33659    38.620757   -911.71583    1383.2554   -6838.5831    2.1687255    14.492569   0.13284123 
  200900   -952.94392     37.81417   -915.12975    1354.3665   -13582.435    2.1655473    13.373779   0.13088344 
  201000    -957.9249    39.536846   -918.38805    1416.0664    1173.1743    2.2053228    12.957425   0.11678508 
  201100   -950.49246    40.025988   -910.46647    1433.5857    8882.0426    2.2109727    13.607174   0.12678659 
  201200   -950.19794    37.202593   -912.99534     1332.462    3559.2575    2.1977139    17.465629   0.10632524 
  201300   -955.73787    39.167613   -916.57026    1402.8418   -4902.4883    2.1880239    14.291123   0.10329827 
  201400   -954.07891    38.908332   -915.17058    1393.5553     103.0897    2.1945814    14.534061    0.1027033 
  201500   -949.27946    39.565595   -909.71387    1417.0961    2875.7571    2.1893278     15.13162   0.10068307 
  201600   -953.03567    39.066419   -913.96925    1399.2175    729.01373    2.1942501    15.316488   0.10662059 
  201700   -954.18398    38.053702   -916.13028    1362.9456   -179.27396    2.1969283    15.194418   0.10419906 
  201800   -948.69746    40.875336   -907.82213    1464.0063    407.03565     2.185075    17.627652   0.11790193 
  201900   -953.62552    41.772388   -911.85314    1496.1354    1700.4808    2.2002597    15.351587    0.1066848 
  202000   -953.96882    38.503155   -915.46567    1379.0434    1202.6761    2.1988307    18.338853   0.10867986 
  202100   -952.44368    40.983511   -911.46017    1467.8807   -2500.2332    2.1846517    16.154328   0.10344972 
  202200   -950.24545     41.33699   -908.90846    1480.5411   -3569.2082    2.1746602    15.896845     0.108992 
  202300   -954.69586    38.877944   -915.81791    1392.4669    1644.6179    2.2000343    13.880204   0.11757117 
  202400    -954.7094    41.941976   -912.76742    1502.2095    5086.4324    2.2076884    14.407731   0.11626554 
  202500   -950.20546    41.609237   -908.59622     1490.292    495.97346     2.186768    18.232412   0.10803431 
  202600   -956.74763    39.484887   -917.26274    1414.2055   -3194.6038    2.1910728    16.575454   0.10394457 
  202700   -954.33393    39.480498   -914.85343    1414.0482   -5745.7556    2.1842849    15.646427     0.106314 
  202800    -953.1799    42.155155   -911.02475    1509.8448    -14.27596    2.1950624    17.097731   0.11279765 
  202900   -956.33046    38.381494   -917.94896    1374.6859    5546.3574     2.217245    16.283134   0.10540645 
  203000   -956.72223    40.138464   -916.58376    1437.6142   -878.32932    2.2002415    16.461867   0.11111592 
  203100   -951.79549    39.650522   -912.14496    1420.1379   -6813.4614    2.1751883    15.642565   0.10346222 
  203200   -950.98039    36.366284   -914.61411    1302.5084   -4128.1978    2.1818586     15.00031   0.11064502 
Loop time of 144.343 on 1 procs for 200000 steps with 217 atoms

Performance: 359.143 ns/day, 0.067 hours/ns, 1385.584 timesteps/s
100.0% CPU use with 1 MPI tasks x no OpenMP threads

MPI task timing breakdown:
Section |  min time  |  avg time  |  max time  |%varavg| %total
---------------------------------------------------------------
Pair    | 140.84     | 140.84     | 140.84     |   0.0 | 97.58
Neigh   | 0.35857    | 0.35857    | 0.35857    |   0.0 |  0.25
Comm    | 0.85037    | 0.85037    | 0.85037    |   0.0 |  0.59
Output  | 0.070621   | 0.070621   | 0.070621   |   0.0 |  0.05
Modify  | 1.9084     | 1.9084     | 1.9084     |   0.0 |  1.32
Other   |            | 0.3122     |            |       |  0.22

Nlocal:    217 ave 217 max 217 min
Histogram: 1 0 0 0 0 0 0 0 0 0
Nghost:    953 ave 953 max 953 min
Histogram: 1 0 0 0 0 0 0 0 0 0
Neighs:    4211 ave 4211 max 4211 min
Histogram: 1 0 0 0 0 0 0 0 0 0
FullNghs:  8422 ave 8422 max 8422 min
Histogram: 1 0 0 0 0 0 0 0 0 0

Total # of neighbors = 8422
Ave neighs/atom = 38.8111
Neighbor list builds = 604
Dangerous builds = 1
Total wall time: 0:02:26
