LAMMPS (3 Mar 2020)

    # ---------- Initialize simulation ---------------------
    units metal
    atom_style atomic
    dimension  3
    boundary   p p p
    read_data /home/modeler/RemLabs/Lab4/Problem2A_size_3/temp_1000/lammps.data
  orthogonal box = (0 0 0) to (12.27 12.27 12.27)
  1 by 1 by 1 MPI processor grid
  reading atoms ...
  108 atoms
  read_data CPU = 0.00088134 secs

    pair_style eam
    pair_coeff * * /usr/share/lammps-stable/potentials/Ag_u3.eam
Reading potential file /usr/share/lammps-stable/potentials/Ag_u3.eam with DATE: 2007-06-11

    velocity  all create 1000 87287 dist gaussian

    # ---------- Describe computed properties------------------
    compute msdall all msd
    thermo_style custom step pe ke etotal temp press density c_msdall[4]
    thermo 100

    # ---------- Specify ensemble  ---------------------
    #fix  1 all nve
    fix  1 all nvt temp 1000 1000 0.05

    # --------- Compute RDF ---------------
    compute rdfall all rdf 100 1 1
    fix 2 all ave/time 1 2500 2500 c_rdfall[*] file /home/modeler/RemLabs/Lab4/Problem2A_size_3/temp_1000/lammps.rdf mode vector

    # --------- Run -------------
    timestep 0.001
    run 10000
Neighbor list info ...
  update every 1 steps, delay 10 steps, check yes
  max neighbors/atom: 2000, page size: 100000
  master list distance cutoff = 7.55
  ghost atom cutoff = 7.55
  binsize = 3.775, bins = 4 4 4
  2 neighbor lists, perpetual/occasional/extra = 1 1 0
  (1) pair eam, perpetual
      attributes: half, newton on
      pair build: half/bin/atomonly/newton
      stencil: half/bin/3d/newton
      bin: standard
  (2) compute rdf, occasional, copy from (1)
      attributes: half, newton on
      pair build: copy
      stencil: none
      bin: none
Per MPI rank memory allocation (min/avg/max) = 3.723 | 3.723 | 3.723 Mbytes
Step PotEng KinEng TotEng Temp Press Density c_msdall[4] 
       0       -307.8    13.830836   -293.96916         1000    7997.0658    10.472245            0 
     100   -299.04514    8.5177024   -290.52744    615.84872    34628.116    10.472245  0.054048654 
     200   -296.40379    14.251589    -282.1522    1030.4214    47437.443    10.472245  0.061372336 
     300   -293.53859    17.479667   -276.05892    1263.8186    58951.915    10.472245  0.070783646 
     400   -294.29762    13.341862   -280.95575    964.64613    53756.593    10.472245  0.075620635 
     500   -295.89075    15.460693   -280.43006    1117.8423    50937.175    10.472245  0.058071296 
     600   -294.24105    12.313954    -281.9271    890.32613    52644.826    10.472245  0.073512201 
     700   -293.37279     14.87704   -278.49575    1075.6429    58427.386    10.472245  0.074964347 
     800   -294.99758    14.287401   -280.71018    1033.0107    52038.957    10.472245  0.063188667 
     900   -293.68823    11.948243   -281.73999    863.88443    55062.785    10.472245  0.072217318 
    1000   -293.06271    13.672865   -279.38985    988.57837    59181.369    10.472245  0.068165859 
    1100   -294.81985    13.220743    -281.5991    955.88895    53262.943    10.472245  0.066784552 
    1200   -295.83733    12.788873   -283.04845    924.66377    49135.213    10.472245  0.064256931 
    1300   -293.43606    14.353502   -279.08256      1037.79    58645.962    10.472245   0.06851418 
    1400   -294.85318    15.341487    -279.5117    1109.2235    54556.625    10.472245  0.062326955 
    1500   -294.39059     13.17552   -281.21507    952.61925    53606.467    10.472245  0.073016484 
    1600   -293.86888    15.428376    -278.4405    1115.5057    56780.144    10.472245  0.074531539 
    1700   -293.48401     12.53826   -280.94575    906.54396    55044.639    10.472245  0.075524533 
    1800   -294.69949    13.741316   -280.95818    993.52755    52789.381    10.472245  0.068770974 
    1900   -293.74217    14.491072   -279.25109    1047.7365    55628.246    10.472245  0.073167784 
    2000   -294.00025    15.244507   -278.75575    1102.2116    56586.001    10.472245    0.0689186 
    2100    -295.1905    13.004577   -282.18592    940.25968    50665.195    10.472245  0.066494193 
    2200   -294.11682    15.018546   -279.09827    1085.8741    55858.432    10.472245     0.073234 
    2300   -293.82795    15.340477   -278.48748    1109.1504    56576.854    10.472245  0.075023879 
    2400   -293.58058    12.480867   -281.09971    902.39428    55532.479    10.472245  0.070682219 
    2500   -293.91214    12.977117   -280.93502    938.27425    56000.314    10.472245  0.067558793 
    2600   -295.78883    13.956772   -281.83206    1009.1055    49287.637    10.472245  0.064012469 
    2700     -294.325    15.806157   -278.51884    1142.8201    55767.891    10.472245  0.067710133 
    2800   -293.97514    13.006368   -280.96878    940.38917     54739.42    10.472245  0.069592648 
    2900    -294.6455    12.292415   -282.35308    888.76879    53221.469    10.472245  0.062443381 
    3000   -294.08752    14.096272   -279.99125    1019.1916    55481.516    10.472245  0.068601666 
    3100   -293.31458    15.481923   -277.83266    1119.3773    59189.385    10.472245  0.079038196 
    3200   -292.94958    12.114383    -280.8352    875.89666    57561.231    10.472245  0.079423729 
    3300   -295.88169    13.897602   -281.98409    1004.8274    50057.349    10.472245  0.067612598 
    3400   -293.68576     13.65758   -280.02818    987.47327    56696.306    10.472245    0.0739261 
    3500    -294.4965    12.898507   -281.59799    932.59056    53326.355    10.472245  0.071639633 
    3600    -294.6627    15.903575   -278.75913    1149.8636    54281.475    10.472245  0.069468288 
    3700   -294.02608     14.72716   -279.29892    1064.8063    55536.713    10.472245  0.072284231 
    3800   -295.55406    12.965761    -282.5883    937.45323    48779.198    10.472245  0.071260436 
    3900   -294.28712    15.432145   -278.85498    1115.7782     54822.82    10.472245  0.073904601 
    4000   -294.62838     14.45393   -280.17445    1045.0511    54134.118    10.472245   0.07155566 
    4100   -295.32639    14.039498   -281.28689    1015.0867     50689.27    10.472245  0.070283865 
    4200   -292.84686    15.030774   -277.81609    1086.7582    60073.857    10.472245  0.072158202 
    4300   -294.97998    15.035199   -279.94478    1087.0781    53028.293    10.472245  0.069210173 
    4400   -294.11312    13.789989   -280.32313     997.0467    54684.934    10.472245   0.07676201 
    4500   -293.51628    15.378655   -278.13762    1111.9108    57295.938    10.472245  0.077278286 
    4600   -295.31913    14.111696   -281.20743    1020.3068    50733.613    10.472245  0.072131368 
    4700   -294.93478    11.328474    -283.6063     819.0737    49865.509    10.472245  0.073815518 
    4800    -295.3836    14.862821   -280.52078    1074.6149    50880.458    10.472245   0.06986252 
    4900   -292.75042    13.288304   -279.46212    960.77374    59461.682    10.472245  0.087061019 
    5000   -291.49577    13.434998   -278.06077    971.38004    63299.656    10.472245  0.086279605 
    5100   -293.69784    13.473827   -280.22401     974.1875    56147.965    10.472245   0.08006431 
    5200    -293.3323    13.506317   -279.82598    976.53659    57499.908    10.472245  0.077182295 
    5300   -294.47968    14.749684      -279.73    1066.4348    54007.268    10.472245  0.063719891 
    5400   -293.71552     12.66835   -281.04717    915.94969    55927.879    10.472245  0.074972554 
    5500   -292.51822    14.625342   -277.89288    1057.4446    61276.841    10.472245   0.07444046 
    5600   -292.94523    14.213841   -278.73139    1027.6921    59496.849    10.472245  0.073174687 
    5700   -294.04623    13.023766   -281.02246    941.64705    54716.306    10.472245  0.064888874 
    5800   -294.32649    12.370031   -281.95645    894.38058    53607.091    10.472245  0.060094308 
    5900   -294.94916    14.152463    -280.7967    1023.2544    53126.153    10.472245  0.065129596 
    6000   -292.68319    15.544681    -277.1385    1123.9148    60788.196    10.472245  0.076633465 
    6100   -293.24394    12.528513   -280.71543    905.83921    57281.739    10.472245  0.082246899 
    6200   -293.89969    14.597082   -279.30261    1055.4013    55698.021    10.472245  0.071533716 
    6300   -295.01131    12.452273   -282.55903    900.32689     51848.44    10.472245  0.062303735 
    6400   -295.50341    14.805127   -280.69829    1070.4434    51097.548    10.472245   0.05953978 
    6500   -293.24412    14.508671   -278.73545     1049.009    58938.478    10.472245   0.07254269 
    6600   -295.17468    13.830097   -281.34458    999.94659    51678.326    10.472245  0.064858374 
    6700   -295.26538     13.11023   -282.15515    947.89862    50342.064    10.472245   0.06559395 
    6800    -295.0748     15.70371   -279.37109    1135.4129    53146.997    10.472245  0.067501507 
    6900   -294.01013    14.457809   -279.55232    1045.3315    55296.061    10.472245  0.075739665 
    7000   -294.96614    15.020215   -279.94593    1085.9947    52882.371    10.472245  0.068936436 
    7100   -294.28999    14.220682   -280.06931    1028.1868     54844.69    10.472245  0.067969401 
    7200   -292.97908    13.713293   -279.26579    991.50139    57960.503    10.472245   0.07683489 
    7300   -295.21207    15.791877   -279.42019    1141.7876    52636.888    10.472245  0.064421348 
    7400   -295.11842    14.196092   -280.92233    1026.4089    51316.716    10.472245  0.060216902 
    7500   -295.13447    14.179572    -280.9549    1025.2144    51722.783    10.472245  0.058064617 
    7600   -294.23065    13.599949    -280.6307    983.30639    54908.951    10.472245  0.068028048 
    7700   -293.94199     14.21342   -279.72857    1027.6617    55291.792    10.472245  0.073684206 
    7800   -296.06017    13.681401   -282.37877    989.19557    47780.688    10.472245   0.06955359 
    7900   -294.49342     12.72159   -281.77183    919.79911    52750.206    10.472245  0.077419305 
    8000   -293.60148     15.22504   -278.37644    1100.8041    57320.476    10.472245   0.08010553 
    8100   -293.57408    12.603676    -280.9704    911.27367    55589.738    10.472245  0.078074304 
    8200   -294.18027    15.792207   -278.38807    1141.8115    55549.162    10.472245  0.061567707 
    8300   -295.13199    13.380252   -281.75174    967.42183    50671.303    10.472245  0.064044638 
    8400   -293.90976     14.40384   -279.50592    1041.4295    55887.568    10.472245  0.066354384 
    8500   -293.92859    15.025145   -278.90344    1086.3512    55603.757    10.472245  0.066715837 
    8600   -293.69665    13.083964   -280.61269    945.99952    56670.298    10.472245  0.074914609 
    8700   -295.04335    16.204091   -278.83926    1171.5916    54007.826    10.472245  0.064421306 
    8800   -295.14423    12.570788   -282.57344    908.89575    50672.149    10.472245   0.06681998 
    8900   -294.32385    14.786095   -279.53775    1069.0674    55054.644    10.472245  0.065232006 
    9000   -294.75174    14.775759   -279.97598    1068.3201    52992.054    10.472245  0.065143621 
    9100   -296.20156    15.380685   -280.82088    1112.0576    48659.252    10.472245  0.060980895 
    9200   -294.28909    15.544528   -278.74456    1123.9038    55503.866    10.472245  0.073080424 
    9300   -294.47604    16.164118   -278.31192    1168.7015    55488.324    10.472245  0.063402659 
    9400   -294.87489    12.471189    -282.4037    901.69455     51687.32    10.472245  0.061955771 
    9500   -294.66546    14.393307   -280.27215    1040.6679    53672.997    10.472245  0.064306422 
    9600   -292.58942    14.728394   -277.86102    1064.8955    60834.763    10.472245  0.074991497 
    9700   -293.37844    13.903708   -279.47474    1005.2688    58101.412    10.472245  0.077879579 
    9800   -293.98882     14.16251   -279.82631    1023.9808    55190.549    10.472245  0.076628502 
    9900   -293.32907    15.317692   -278.01138     1107.503    58006.433    10.472245  0.066261336 
   10000   -294.79662    12.659923    -282.1367    915.34041    52095.635    10.472245  0.072398494 
Loop time of 2.07988 on 1 procs for 10000 steps with 108 atoms

Performance: 415.408 ns/day, 0.058 hours/ns, 4807.961 timesteps/s
100.0% CPU use with 1 MPI tasks x no OpenMP threads

MPI task timing breakdown:
Section |  min time  |  avg time  |  max time  |%varavg| %total
---------------------------------------------------------------
Pair    | 1.3723     | 1.3723     | 1.3723     |   0.0 | 65.98
Neigh   | 0          | 0          | 0          |   0.0 |  0.00
Comm    | 0.04143    | 0.04143    | 0.04143    |   0.0 |  1.99
Output  | 0.0014875  | 0.0014875  | 0.0014875  |   0.0 |  0.07
Modify  | 0.65503    | 0.65503    | 0.65503    |   0.0 | 31.49
Other   |            | 0.009607   |            |       |  0.46

Nlocal:    108 ave 108 max 108 min
Histogram: 1 0 0 0 0 0 0 0 0 0
Nghost:    990 ave 990 max 990 min
Histogram: 1 0 0 0 0 0 0 0 0 0
Neighs:    4644 ave 4644 max 4644 min
Histogram: 1 0 0 0 0 0 0 0 0 0

Total # of neighbors = 4644
Ave neighs/atom = 43
Neighbor list builds = 0
Dangerous builds = 0
    
Total wall time: 0:00:02
