LAMMPS (3 Mar 2020)

# ---------- 1. Initialize simulation ----------
units metal
atom_style atomic
dimension 3
boundary p p p
read_data /home/modeler/RemLabs/Project/arrhenius/T1800.0/n3_T1800.0_timestep3.000000e-03_eqsteps3200_time15_rseed3321/20201205-061747/lammps.data
  orthogonal box = (0 0 0) to (17.469 17.469 17.469)
  1 by 1 by 1 MPI processor grid
  reading atoms ...
  217 atoms
  read_data CPU = 0.00096622 secs

pair_style meam/c
pair_coeff * * library.meam Li Si LiSi.meam Li Si
Reading potential file library.meam with DATE: 2012-06-29
Reading potential file LiSi.meam with DATE: 2020-11-07

group Li type 1
1 atoms in group Li
group Si type 2
216 atoms in group Si

velocity all create 1800.0 3321 dist gaussian

# ---------- 2. Specify equilibration ensemble  ----------
fix 1 all npt temp 1800.0 1800.0 0.15 tchain 2 iso 1.0 1.0 1.0 pchain 2
# fix 1 all nvt temp 1800.0 1800.0 0.15

# ---------- 3. Run equilibration -------------
timestep 0.003
run 3200
Neighbor list info ...
  update every 1 steps, delay 10 steps, check yes
  max neighbors/atom: 2000, page size: 100000
  master list distance cutoff = 6
  ghost atom cutoff = 6
  binsize = 3, bins = 6 6 6
  2 neighbor lists, perpetual/occasional/extra = 2 0 0
  (1) pair meam/c, perpetual
      attributes: full, newton on
      pair build: full/bin/atomonly
      stencil: full/bin/3d
      bin: standard
  (2) pair meam/c, perpetual, half/full from (1)
      attributes: half, newton on
      pair build: halffull/newton
      stencil: none
      bin: none
Per MPI rank memory allocation (min/avg/max) = 8.895 | 8.895 | 8.895 Mbytes
Step Temp E_pair E_mol TotEng Press Volume 
       0         1800   -951.04357            0   -900.78722   -114161.75    5330.9442 
    3200    1756.5131   -940.37259            0    -891.3304    5156.2177    4633.0905 
Loop time of 2.25689 on 1 procs for 3200 steps with 217 atoms

Performance: 367.515 ns/day, 0.065 hours/ns, 1417.882 timesteps/s
100.0% CPU use with 1 MPI tasks x no OpenMP threads

MPI task timing breakdown:
Section |  min time  |  avg time  |  max time  |%varavg| %total
---------------------------------------------------------------
Pair    | 2.1506     | 2.1506     | 2.1506     |   0.0 | 95.29
Neigh   | 0.057388   | 0.057388   | 0.057388   |   0.0 |  2.54
Comm    | 0.015032   | 0.015032   | 0.015032   |   0.0 |  0.67
Output  | 4.3572e-05 | 4.3572e-05 | 4.3572e-05 |   0.0 |  0.00
Modify  | 0.028973   | 0.028973   | 0.028973   |   0.0 |  1.28
Other   |            | 0.004834   |            |       |  0.21

Nlocal:    217 ave 217 max 217 min
Histogram: 1 0 0 0 0 0 0 0 0 0
Nghost:    953 ave 953 max 953 min
Histogram: 1 0 0 0 0 0 0 0 0 0
Neighs:    4129 ave 4129 max 4129 min
Histogram: 1 0 0 0 0 0 0 0 0 0
FullNghs:  8258 ave 8258 max 8258 min
Histogram: 1 0 0 0 0 0 0 0 0 0

Total # of neighbors = 8258
Ave neighs/atom = 38.0553
Neighbor list builds = 98
Dangerous builds = 1

# ---------- 4. Describe computed properties----------
compute msdli Li msd
compute msdsi Si msd
thermo_style custom step pe ke etotal temp press density c_msdli[4] c_msdsi[4]
thermo 100

# ---------- 3. Run production -------------
timestep 0.003
run 5000
Per MPI rank memory allocation (min/avg/max) = 9.663 | 9.663 | 9.663 Mbytes
Step PotEng KinEng TotEng Temp Press Density c_msdli[4] c_msdsi[4] 
    3200   -940.37259    49.042182    -891.3304    1756.5131    5156.2177    2.1767993            0 8.5058339e-32 
    3300   -940.77466    46.275132   -894.49953    1657.4074    -6510.913    2.1501448  0.075170565   0.12928042 
    3400   -932.44093    48.961884   -883.47904    1753.6371   -957.36443    2.1411888    0.6217015   0.13826821 
    3500   -939.35881    50.372762   -888.98605    1804.1697    12399.476    2.1866054  0.026160677   0.15528164 
    3600   -940.28807    47.877272    -892.4108    1714.7902   -2621.5335    2.1555554   0.15257584   0.14271627 
    3700   -933.66565    48.930542   -884.73511    1752.5146   -6097.1033    2.1320746   0.59085193   0.14017148 
    3800   -939.40682    49.891679   -889.51515     1786.939    7428.3419    2.1807743   0.45340244   0.13029132 
    3900   -939.94468    46.361249   -893.58343    1660.4918    1916.0456    2.1714153   0.89819856   0.15977012 
    4000   -936.50659    48.480304   -888.02629    1736.3887   -6433.5894    2.1381939     1.551951   0.14810535 
    4100   -936.31604     52.32457   -883.99147    1874.0763     5603.926    2.1660761    4.4686973    0.1773911 
    4200   -943.99378    49.198415   -894.79537    1762.1088    6586.6323    2.1870146    3.4782825   0.16234614 
    4300   -938.37228    47.213163   -891.15912    1691.0043   -10864.894    2.1361178    2.6385758   0.15824044 
    4400   -939.90854    53.007713   -886.90083     1898.544   -3947.4084    2.1528995    3.8775624   0.16940122 
    4500   -943.33794    49.738293   -893.59964    1781.4453    9913.1603    2.1933662    3.4438819   0.17679473 
    4600   -943.44528    47.788898   -895.65638     1711.625   -6122.9102    2.1525963    4.3774611   0.17823601 
    4700   -940.65373    53.106999   -887.54673    1902.1001   -9317.4134    2.1334228    3.5761936   0.17954275 
    4800   -942.81775     52.74725    -890.0705    1889.2152    9634.6489    2.1861836    5.2220453   0.17103795 
    4900   -945.82024    50.217756   -895.60249    1798.6179    1424.5996    2.1746727    3.9941019   0.15043089 
    5000   -938.06183    52.650426    -885.4114    1885.7473   -12672.335    2.1226464    3.6719585   0.16678731 
    5100   -943.51495    53.949772   -889.56518    1932.2852    3813.0154    2.1752991    4.3999718   0.16339147 
    5200   -941.88264    49.222109   -892.66053    1762.9574    8837.6265    2.1865302    4.1672172   0.18017537 
    5300   -937.29826    51.249506   -886.04876    1835.5715    -7053.193    2.1340175    4.2129677   0.17435403 
    5400   -938.50024    51.930579   -886.56966     1859.965   -2427.4545    2.1450269    3.9303574   0.17516411 
    5500   -943.85144     51.26662   -892.58482    1836.1844    11112.605    2.1954591    3.9586505   0.16431675 
    5600   -941.61586    53.345774   -888.27009    1910.6522   -3570.8056    2.1525929    3.5689837   0.16537081 
    5700   -936.67381    50.710787   -885.96303    1816.2765   -7346.6044    2.1273396    4.5894492   0.17644879 
    5800   -945.68948    51.079767   -894.60971     1829.492    9513.0906    2.1942289     4.482202   0.16920544 
    5900   -937.71757    48.728067    -888.9895    1745.2626    5315.6571    2.1707175    4.0786864   0.16917574 
    6000   -939.89121    51.932583   -887.95862    1860.0368   -11187.363    2.1301799    5.2631012   0.16054442 
    6100   -942.01477    46.692667    -895.3221     1672.362    4112.2633    2.1729966    4.0990712   0.15458451 
    6200   -941.09666    49.143203   -891.95345    1760.1313    7104.0139    2.1812417    3.7531353   0.18697374 
    6300   -938.37632     50.98061   -887.39571    1825.9406    -7953.503    2.1364436    5.3982965   0.20377355 
    6400   -942.46839    48.445023   -894.02337     1735.125   -3267.1684    2.1575011    4.6948799   0.17391306 
    6500   -943.30965    50.025122   -893.28453    1791.7184     5487.557    2.1837891    4.6371188   0.16645943 
    6600   -937.23558    51.704335   -885.53125    1851.8618   -3353.4179    2.1475071    5.2761514   0.16146467 
    6700   -942.80002    49.401262   -893.39876     1769.374   -4836.0209    2.1534536    4.0530807   0.15803684 
    6800   -942.11727    49.851241   -892.26603    1785.4907      4060.79     2.175814    3.2691312   0.16922601 
    6900   -936.71287    52.500687   -884.21218    1880.3842    2883.0082    2.1537284    5.2226888   0.17368998 
    7000    -945.4187    52.192855   -893.22584    1869.3588   -4177.5549    2.1580751    4.6683866   0.17659148 
    7100   -945.07643    52.531148   -892.54528    1881.4752   -2381.5192    2.1638699    3.9951883   0.18216593 
    7200    -940.1435    55.761321   -884.38218    1997.1683   -415.01028    2.1547437    4.0184836   0.18394517 
    7300   -941.50031    48.332709    -893.1676    1731.1024    3157.0917    2.1676563    4.0417728   0.17547032 
    7400   -941.14426    48.472529   -892.67173    1736.1102   -1792.0115    2.1594793    4.1941055   0.16026497 
    7500   -939.46363    54.156378   -885.30725    1939.6851   -1269.2472    2.1535892      3.79612   0.17707499 
    7600   -941.47312    47.884535   -893.58859    1715.0504    2645.2557    2.1706299    3.9980517   0.15536715 
    7700   -940.43348    47.677947   -892.75553    1707.6512   -750.82303    2.1635487    2.8383211   0.16657666 
    7800   -935.81157    50.549263   -885.26231    1810.4913   -436.58294     2.154897    4.6121087   0.18187143 
    7900   -941.86617      48.6112   -893.25497    1741.0769    3749.3871    2.1733339    3.7654804   0.16328848 
    8000   -941.91224    48.804922   -893.10732    1748.0153   -1489.8091    2.1616581    4.4788502   0.16873617 
    8100   -940.75128    55.157143   -885.59414    1975.5288   -5375.4127    2.1469493    4.5910084   0.19505736 
    8200    -942.9441    49.557583   -893.38652    1774.9729    6560.1237    2.1842521    3.6771297   0.16453211 
Loop time of 3.50515 on 1 procs for 5000 steps with 217 atoms

Performance: 369.742 ns/day, 0.065 hours/ns, 1426.473 timesteps/s
100.0% CPU use with 1 MPI tasks x no OpenMP threads

MPI task timing breakdown:
Section |  min time  |  avg time  |  max time  |%varavg| %total
---------------------------------------------------------------
Pair    | 3.3385     | 3.3385     | 3.3385     |   0.0 | 95.24
Neigh   | 0.088621   | 0.088621   | 0.088621   |   0.0 |  2.53
Comm    | 0.023563   | 0.023563   | 0.023563   |   0.0 |  0.67
Output  | 0.001614   | 0.001614   | 0.001614   |   0.0 |  0.05
Modify  | 0.045323   | 0.045323   | 0.045323   |   0.0 |  1.29
Other   |            | 0.007563   |            |       |  0.22

Nlocal:    217 ave 217 max 217 min
Histogram: 1 0 0 0 0 0 0 0 0 0
Nghost:    957 ave 957 max 957 min
Histogram: 1 0 0 0 0 0 0 0 0 0
Neighs:    4214 ave 4214 max 4214 min
Histogram: 1 0 0 0 0 0 0 0 0 0
FullNghs:  8428 ave 8428 max 8428 min
Histogram: 1 0 0 0 0 0 0 0 0 0

Total # of neighbors = 8428
Ave neighs/atom = 38.8387
Neighbor list builds = 152
Dangerous builds = 0
Total wall time: 0:00:05
