LAMMPS (3 Mar 2020)
Reading data file ...
  orthogonal box = (0 0 0) to (17.469 17.469 17.469)
  1 by 1 by 1 MPI processor grid
  reading atoms ...
  217 atoms
  read_data CPU = 0.00102255 secs
Reading potential file library.meam with DATE: 2012-06-29
Reading potential file LiSi.meam with DATE: 2020-11-07
1 atoms in group Li
216 atoms in group Si
Neighbor list info ...
  update every 1 steps, delay 10 steps, check yes
  max neighbors/atom: 2000, page size: 100000
  master list distance cutoff = 6
  ghost atom cutoff = 6
  binsize = 3, bins = 6 6 6
  2 neighbor lists, perpetual/occasional/extra = 2 0 0
  (1) pair meam/c, perpetual
      attributes: full, newton on
      pair build: full/bin/atomonly
      stencil: full/bin/3d
      bin: standard
  (2) pair meam/c, perpetual, half/full from (1)
      attributes: half, newton on
      pair build: halffull/newton
      stencil: none
      bin: none
Setting up Verlet run ...
  Unit style    : metal
  Current step  : 0
  Time step     : 0.003
Per MPI rank memory allocation (min/avg/max) = 8.895 | 8.895 | 8.895 Mbytes
Step Temp E_pair E_mol TotEng Press Volume 
       0         1600   -951.04357            0   -906.37126   -115280.58    5330.9442 
    3200    1615.5669   -949.39595            0   -904.28901    1438.1432    4609.3457 
Loop time of 2.35697 on 1 procs for 3200 steps with 217 atoms

Performance: 351.909 ns/day, 0.068 hours/ns, 1357.675 timesteps/s
100.0% CPU use with 1 MPI tasks x no OpenMP threads

MPI task timing breakdown:
Section |  min time  |  avg time  |  max time  |%varavg| %total
---------------------------------------------------------------
Pair    | 2.2697     | 2.2697     | 2.2697     |   0.0 | 96.30
Neigh   | 0.033799   | 0.033799   | 0.033799   |   0.0 |  1.43
Comm    | 0.015317   | 0.015317   | 0.015317   |   0.0 |  0.65
Output  | 2.4418e-05 | 2.4418e-05 | 2.4418e-05 |   0.0 |  0.00
Modify  | 0.032668   | 0.032668   | 0.032668   |   0.0 |  1.39
Other   |            | 0.005452   |            |       |  0.23

Nlocal:    217 ave 217 max 217 min
Histogram: 1 0 0 0 0 0 0 0 0 0
Nghost:    957 ave 957 max 957 min
Histogram: 1 0 0 0 0 0 0 0 0 0
Neighs:    4245 ave 4245 max 4245 min
Histogram: 1 0 0 0 0 0 0 0 0 0
FullNghs:  8490 ave 8490 max 8490 min
Histogram: 1 0 0 0 0 0 0 0 0 0

Total # of neighbors = 8490
Ave neighs/atom = 39.1244
Neighbor list builds = 56
Dangerous builds = 0
Setting up Verlet run ...
  Unit style    : metal
  Current step  : 3200
  Time step     : 0.003
Per MPI rank memory allocation (min/avg/max) = 9.663 | 9.663 | 9.663 Mbytes
Step PotEng KinEng TotEng Temp Press Density c_msdli[4] c_msdsi[4] 
    3200   -949.39595    45.106937   -904.28901    1615.5669    1438.1432    2.1880129            0 5.0559228e-32 
    3300   -951.25058    41.789755   -909.46082    1496.7575    6316.4365    2.2062482   0.18288388  0.097345718 
    3400   -945.53473    45.749138   -899.78559    1638.5682    -6141.198    2.1566906  0.023133417   0.10039032 
    3500   -947.16051     44.41778   -902.74273    1590.8838   -2868.7854    2.1672054  0.053985244  0.084795688 
    3600   -949.63385    43.881753    -905.7521    1571.6852    6008.5365    2.1980778   0.11872825   0.12577878 
    3700    -942.7927    45.918769   -896.87393    1644.6438    5303.7609    2.1796887  0.052123872   0.10433044 
    3800   -949.69757     49.81706   -899.88051    1784.2664   -7646.3603    2.1608026  0.019689726   0.10444581 
    3900   -950.11072    45.256291   -904.85443    1620.9162   -6277.4998    2.1664829    0.1752788   0.12146743 
    4000   -946.72456    45.068409   -901.65615     1614.187    4436.3043    2.1895964   0.12658339   0.10511473 
    4100   -941.50646    45.917484   -895.58898    1644.5978    5253.3795    2.1742533   0.05771983    0.1085928 
    4200   -948.10109    43.565244   -904.53584    1560.3491   -3412.2021    2.1706139  0.011646987   0.10030928 
    4300   -950.52104    46.971478   -903.54956     1682.348   -5470.2093     2.173498   0.03086173  0.093131534 
    4400    -944.4367    48.168308   -896.26839    1725.2141    5331.9272    2.1790006 0.0034825936    0.1320151 
    4500   -949.47534    45.643329   -903.83202    1634.7785    131.57972    2.1839726 0.0068325158   0.11392913 
    4600   -951.05464    45.964383   -905.09026    1646.2775   -8359.5208    2.1641047    0.2397316   0.11749245 
    4700   -948.83822    48.222213   -900.61601    1727.1448   -2264.0024    2.1728471  0.013963365   0.11390946 
    4800   -948.55877    46.291256   -902.26751    1657.9849    6089.2773    2.1906354  0.095510061   0.10825066 
    4900    -947.2738    39.078353   -908.19544    1399.6449    2875.1238    2.1861463  0.093572792   0.11535788 
    5000   -942.95877    40.086396   -902.87238    1435.7493   -2364.0322    2.1641191   0.17788901   0.12688733 
    5100   -944.68129    43.965626   -900.71567    1574.6893     425.7438    2.1755226    0.1697161   0.11983673 
    5200   -950.17227    41.541539   -908.63073    1487.8673    4501.0247    2.1968191   0.72741705   0.10603655 
    5300   -946.13376    44.658426   -901.47533    1599.5029   -2720.5038    2.1694283   0.17327256   0.11585159 
    5400   -946.91642    47.066718    -899.8497    1685.7592   -6402.7488    2.1629816   0.20089287   0.13413459 
    5500   -946.47059    42.750814   -903.71977    1531.1791    5099.8296     2.184614   0.36705598   0.11565121 
    5600   -950.39243    41.513107   -908.87933     1486.849    5617.6793    2.2012191   0.09378928   0.11947245 
    5700    -943.1792    43.443901    -899.7353     1556.003   -2454.2368    2.1622865   0.21943083   0.12842658 
    5800   -946.63529    43.511389    -903.1239    1558.4202   -2266.4025     2.170257   0.13903113   0.11401527 
    5900   -948.29312    41.628592   -906.66453    1490.9852    5379.2747    2.1939874  0.034643225   0.10949003 
    6000   -943.94956    46.647222   -897.30234    1670.7343    1509.0086    2.1735577  0.088538982    0.1167711 
    6100   -946.17588    44.235703   -901.94018    1584.3625    -1064.369    2.1681081   0.30062356  0.096301744 
    6200   -949.84245    44.105216   -905.73724    1579.6889   -1268.6885    2.1767049 0.0073514546  0.097135471 
    6300   -943.54473    45.151117   -898.39361    1617.1493    4345.4381    2.1794681   0.17659693   0.10903844 
    6400   -948.31766    48.533091   -899.78457    1738.2793     924.0515    2.1823941   0.02255423   0.10401728 
    6500   -949.21579    43.535547   -905.68024    1559.2854   -5457.4703    2.1664996  0.018680427   0.12473491 
    6600   -949.40514    48.729821   -900.67532    1745.3255   -3820.9759    2.1685483  0.081136177    0.1167427 
    6700   -943.44458    46.974093   -896.47049    1682.4417    7988.6726    2.1859174   0.16741838   0.12357167 
    6800   -948.72989    43.391813   -905.33808    1554.1374    4745.7403    2.1931518  0.082811296   0.11893154 
    6900   -944.43078    41.513026   -902.91776     1486.846   -6144.8427    2.1575373  0.039922158   0.10897392 
    7000   -940.75932    42.510999   -898.24832    1522.5898    498.11617    2.1617698    0.3507383   0.12136246 
    7100   -953.46525    45.831808   -907.63344    1641.5291     12294.35    2.2228471   0.12599338    0.1015735 
    7200   -947.81531    43.964422   -903.85089    1574.6461    2387.7866    2.1821077  0.027492683   0.10118043 
    7300   -945.89503    44.655928    -901.2391    1599.4134   -13026.103    2.1435231    0.0633052   0.12172225 
    7400   -951.69411    45.615103   -906.07901    1633.7676   -2709.7737    2.1818458  0.085867115   0.11657723 
    7500   -951.67553    44.783843   -906.89169    1603.9949    14366.923    2.2208454   0.12431374   0.11735275 
    7600   -945.76509    45.827374   -899.93772    1641.3703    -1217.704    2.1716498    0.1196209   0.13574588 
    7700   -947.56809    43.410752   -904.15733    1554.8157   -6381.4733    2.1593978    0.1145232   0.11654715 
    7800    -949.3025    42.751286   -906.55122     1531.196    3503.4126    2.1902801  0.055560775   0.10107798 
    7900   -945.30057    47.782329   -897.51824    1711.3898    621.89059    2.1744466  0.031525271    0.1088423 
    8000   -945.71263    42.466187   -903.24644    1520.9848    796.13184    2.1767002  0.078766422    0.1058907 
    8100    -950.2442    44.372763   -905.87144    1589.2714   -2171.8959    2.1803397  0.025781711   0.10662187 
    8200   -943.04078    46.311766   -896.72901    1658.7195    1046.5852    2.1692275  0.054689543   0.11528065 
    8300   -945.89316    43.603717   -902.28944     1561.727    4084.2008    2.1871673   0.21535769   0.12051181 
    8400   -947.89185    42.267968   -905.62388    1513.8853   -733.67332    2.1825642  0.057787237   0.12361692 
    8500   -945.19578    46.930703   -898.26508    1680.8876    -5504.423    2.1616668   0.11393679   0.12536623 
    8600   -948.08574    46.843179   -901.24257    1677.7528    725.96174     2.182045   0.29512275   0.11610972 
    8700    -951.4535    46.109573   -905.34393    1651.4777    3042.3126     2.194373   0.16345398   0.11140996 
    8800   -941.99751    42.242502   -899.75501    1512.9732    39.887606    2.1708275  0.064405445   0.12582798 
    8900   -945.05114    44.702325   -900.34881    1601.0752   -7059.1339    2.1573671  0.031040306   0.11635264 
    9000   -948.05743    41.218337   -906.83909    1476.2913    6017.7013     2.193807  0.064676554   0.10703399 
    9100   -946.07538    46.298906   -899.77647    1658.2589    9817.3987    2.2008763  0.072210152  0.098875907 
    9200   -946.79929    44.706619   -902.09268     1601.229   -4208.6079    2.1674611  0.065330863   0.11510283 
    9300   -946.71078    37.681728   -909.02905    1349.6228   -7439.8347    2.1606947   0.23279426   0.10359629 
    9400   -949.93011    48.277251   -901.65286    1729.1161    962.11149    2.1866136   0.17266188   0.10557327 
    9500    -948.3177     47.78487   -900.53283    1711.4807    10598.351    2.2053272   0.21487666   0.11718093 
    9600   -951.40862    42.951569   -908.45706    1538.3694   -5561.6685     2.176143    0.2090816   0.11331173 
    9700   -944.02581    42.935741   -901.09007    1537.8025   -7488.3849    2.1489228  0.035775473   0.11893748 
    9800   -947.12452    47.248944   -899.87558    1692.2858    2291.4998    2.1850164  0.063890027   0.11156108 
    9900   -950.86599    45.059475   -905.80651     1613.867    5202.4764    2.2004574   0.24090377    0.1001656 
   10000   -945.29501    45.383608   -899.91141    1625.4763   -1342.7281    2.1648735  0.048755633   0.10158687 
   10100   -944.04013    44.555776   -899.48435    1595.8263   -3746.7157    2.1617408   0.22150241   0.11695652 
   10200   -952.16397    46.376069    -905.7879    1661.0226    173.32442    2.1886275   0.11338989   0.10939093 
   10300   -946.97334     46.00758   -900.96576    1647.8247     4320.939    2.1851426    0.1397665    0.1182923 
   10400   -944.70097    45.979768    -898.7212    1646.8286    -2075.992    2.1657563  0.054497744   0.11417038 
   10500   -950.71338    43.859713   -906.85367    1570.8958   -3933.4431      2.17995   0.17580317   0.11701518 
   10600   -942.18457    40.775685   -901.40889    1460.4372     6446.164    2.1875127   0.21616244   0.12818177 
   10700   -943.91832    45.426587   -898.49173    1627.0156    2929.1987    2.1790306   0.14114037   0.13608288 
   10800    -948.8365    41.271391   -907.56511    1478.1915   -514.60126    2.1841728   0.10697195   0.12600408 
   10900   -947.71958    44.805669   -902.91391    1604.7766   -4038.9295    2.1726636  0.035174963    0.1160301 
   11000   -944.44001    44.999215   -899.44079    1611.7087    2006.0452    2.1798349   0.27324726   0.10332438 
   11100   -950.31123    42.195172   -908.11606    1511.2781    7226.5516     2.204598  0.057471933   0.10249822 
   11200   -941.34138    38.794013   -902.54737    1389.4609   -3760.4732    2.1636722   0.19442735   0.11910459 
   11300   -946.06085     45.11714   -900.94371    1615.9323   -8090.3803    2.1562501   0.26282708   0.12149728 
   11400   -951.91876    45.723831   -906.19493    1637.6618    8622.3863    2.2068417   0.20852866   0.11292108 
   11500   -948.09585    41.959249    -906.1366    1502.8281    11009.286    2.2114613   0.36706801   0.12890782 
   11600   -944.29765    44.496481   -899.80117    1593.7026   -8782.1578    2.1467967   0.13554999   0.12834607 
   11700   -948.28261    43.206634   -905.07597    1547.5049   -9722.3792    2.1572969   0.15221852   0.12912712 
   11800   -950.04074    45.743921   -904.29682    1638.3814    9233.0892    2.2079964   0.11568998   0.10787098 
   11900   -944.76894    48.870287   -895.89865    1750.3564    4658.6159    2.1827922  0.023165302   0.10904348 
   12000   -948.00577     44.31071   -903.69506    1587.0489   -8196.7948    2.1626801  0.016449572   0.11002251 
   12100   -949.15538    44.375768   -904.77961    1589.3791   -4213.8629    2.1723392  0.078544117  0.095222193 
   12200   -942.68563     46.38849   -896.29714    1661.4675     7714.968    2.1863372  0.084254813    0.1264809 
   12300   -948.61136    46.093533   -902.51782    1650.9032    3308.0201    2.1898786   0.11695298   0.11644711 
   12400   -949.99721    44.309632   -905.68758    1587.0103   -6441.6522    2.1668765   0.02460947   0.10037409 
   12500    -944.3421    45.188328   -899.15377     1618.482   -2716.2649    2.1671447   0.14259768   0.12794901 
   12600    -946.3856     42.34555   -904.04005     1516.664    7408.8775    2.1978834    0.1294265   0.11234523 
   12700   -949.73247    43.125354   -906.60711    1544.5938    812.37337    2.1891386   0.12127811   0.11326311 
   12800   -944.35851    43.485173   -900.87334    1557.4812   -4284.6533    2.1654288   0.12783061   0.12855868 
   12900   -949.92061    48.081658   -901.83895    1722.1106   -2518.8594    2.1765237  0.014520019  0.098467368 
   13000   -950.98929    42.890643   -908.09865    1536.1873    5458.7918    2.2040916   0.29755448   0.10073519 
   13100   -946.99211    46.620061   -900.37205    1669.7615   -812.70529    2.1781216   0.03616778   0.11148171 
   13200   -949.93339    47.233554   -902.69983    1691.7346   -8491.0601    2.1617597   0.11307483   0.10845965 
   13300   -952.87816    43.990284   -908.88787    1575.5724   -219.59621    2.1934883  0.089266532   0.11226264 
   13400   -948.05984    47.778786   -900.28105    1711.2628    13736.771    2.2147622  0.095062408   0.11831604 
   13500   -942.61038    41.367556   -901.24283    1481.6358    -713.0523    2.1722467   0.11741415   0.12371236 
   13600   -945.16098    38.440065   -906.72092    1376.7837    -14889.44    2.1424305  0.041409082   0.12244316 
   13700   -945.85763    43.475192   -902.38244    1557.1237    4564.3613    2.1890894  0.030485976   0.11046185 
   13800   -942.09903    44.974816   -897.12422    1610.8348    13485.173    2.2041426   0.27220628    0.1266342 
   13900   -946.91852    42.097191   -904.82133    1507.7687   -187.95685    2.1753161  0.060794243   0.10777528 
   14000     -947.873    44.632013   -903.24099    1598.5569   -9791.7493    2.1566077  0.074011386   0.10231302 
   14100   -943.34721    47.337284   -896.00993    1695.4498     601.6672    2.1722572     0.111728   0.11366224 
   14200   -948.17491     43.80599   -904.36892    1568.9717    10975.488    2.2092552   0.10029927   0.10442661 
   14300    -948.3705    43.910824   -904.45968    1572.7265    -5141.406    2.1736546   0.13779126   0.11983667 
   14400   -948.13248    49.829615   -898.30287    1784.7161   -10361.992    2.1492727  0.075867134   0.10793339 
   14500   -948.36435    41.740991   -906.62336    1495.0109    6375.3658    2.1972977  0.027145951   0.12016993 
   14600   -950.01635    45.229998   -904.78635    1619.9745    5758.6193    2.1997965  0.048794652    0.1069684 
   14700   -942.94509    43.088427   -899.85667    1543.2712   -978.05976    2.1663489   0.17598339   0.11528234 
   14800   -950.42045    45.677429   -904.74302    1635.9998     -7603.62    2.1657847  0.090108468    0.1237272 
   14900   -952.74905    47.132347    -905.6167    1688.1098    1941.3316    2.1937668   0.22662462    0.1079505 
   15000    -943.2027    44.860292   -898.34241     1606.733    7389.1236    2.1887767   0.23342989   0.11807058 
   15100   -947.76846    44.298585   -903.46988    1586.6147   -5557.9516    2.1701271  0.040621437   0.11586166 
   15200    -949.6688    41.128747   -908.54005    1473.0826   -5231.3977    2.1741597  0.032925801   0.12611284 
   15300   -945.73036    45.912968    -899.8174     1644.436     2099.043    2.1835939   0.19376093   0.12448409 
   15400   -949.29043    47.348963   -901.94146    1695.8681    5700.8901    2.1961748  0.049124647   0.12025943 
   15500   -949.99863     41.88147   -908.11716    1500.0424   -3156.5923    2.1818957   0.11297568   0.12156011 
   15600   -945.64185    46.121028   -899.52082     1651.888   -8761.9363    2.1568187   0.15477539   0.11478635 
   15700   -946.32685    45.124843   -901.20201    1616.2082    5195.7041    2.1858916   0.33578482   0.11604962 
   15800   -950.23407     44.02128   -906.21279    1576.6826    3943.2277    2.1957961   0.15724499   0.12831372 
   15900   -943.80071    45.526801   -898.27391    1630.6049   -115.59568    2.1685509   0.25315457   0.12415406 
   16000   -943.72167    42.591052   -901.13062     1525.457     1537.223    2.1743359   0.12917969   0.13075075 
   16100   -947.94652    42.166629   -905.77989    1510.2557    858.45671    2.1849872   0.29020176   0.12508826 
   16200   -946.99104    48.234524   -898.75652    1727.5857   -1663.2388     2.176004  0.040083806   0.12889754 
   16300    -950.3384    49.509396   -900.82901     1773.247   -2581.5963     2.176125  0.099379697   0.11928776 
   16400   -951.60828    45.294055   -906.31422    1622.2688   -2939.1775    2.1789346   0.15230619   0.10889586 
   16500   -945.48607     45.37435   -900.11171    1625.1447    651.83337    2.1788187    0.1122347   0.12936966 
   16600    -950.1103    48.720071   -901.39022    1744.9763   -1245.7419    2.1806169  0.059183756   0.12749987 
   16700   -950.01745    42.291393   -907.72606    1514.7243   -1546.6668    2.1826448  0.051437427   0.11553486 
   16800   -945.38573    44.245621   -901.14011    1584.7177   -6.3449963    2.1751201   0.13913733   0.13803019 
   16900   -948.02395    46.885776   -901.13817    1679.2785    2900.2197    2.1864889  0.070773195   0.12470624 
   17000   -949.40929    40.819741   -908.58955    1462.0151    4172.4569    2.1973807  0.073388962   0.13411315 
   17100   -946.16282    45.269358   -900.89346    1621.3842   -5069.8288    2.1665755  0.067698238   0.13450023 
   17200   -947.17111    45.455257   -901.71585    1628.0425   -2690.1446    2.1754643   0.20177403   0.12368376 
   17300   -952.49645    45.000383   -907.49607    1611.7505    3989.7309     2.206331   0.25366749   0.12482807 
   17400    -944.4845    45.610244   -898.87425    1633.5935     3301.605    2.1831618    0.1080393   0.12678279 
   17500   -947.70856    46.642283   -901.06627    1670.5574   -6603.1427     2.164351 0.0038708878   0.12231766 
   17600   -950.63075    43.935359   -906.69539    1573.6052   -3390.5046    2.1771677   0.07541056   0.11766856 
   17700   -947.57182    47.198841   -900.37298    1690.4913    7857.4622    2.2026529  0.042772145   0.12077906 
   17800   -945.19479    46.136626   -899.05817    1652.4466    5866.6892    2.1905127   0.11174555   0.12248005 
   17900   -949.26047    42.588627   -906.67184    1525.3702   -11074.652    2.1583506  0.027348279   0.11961268 
   18000   -948.89247    46.929905   -901.96257     1680.859   -5698.4443    2.1686446   0.14566054   0.11879451 
   18100   -944.68479    47.873298   -896.81149    1714.6479    12140.174    2.2014357   0.11678371   0.11549064 
   18200   -948.47642    42.429431   -906.04699    1519.6684    5628.7021    2.1996993  0.083436072   0.12534935 
   18300   -946.55255    43.378192   -903.17436    1553.6495   -9539.4081    2.1543548  0.029341682   0.12200963 
   18400   -944.96658    46.037583     -898.929    1648.8993   -4395.4675    2.1657182   0.02268416   0.12370497 
   18500   -950.50523    43.952421   -906.55281    1574.2163    7806.7705    2.2057008  0.096093591   0.10702106 
   18600   -947.72904    44.485644   -903.24339    1593.3145    2981.7312    2.1859305  0.081734469   0.12289296 
   18700   -945.33437    45.819395   -899.51497    1641.0846   -5228.7518    2.1615076  0.077793318   0.12429355 
   18800   -948.68748    41.852896   -906.83458     1499.019    1908.5123     2.186281   0.21773192   0.11360658 
   18900   -944.92696    41.746291   -903.18067    1495.2007    7045.4876    2.1918908   0.23811619   0.11608548 
   19000   -944.94365     45.92071   -899.02294    1644.7133   -157.23423    2.1728924   0.13933249   0.10846658 
   19100   -949.06871    42.285541   -906.78317    1514.5147   -1801.9464    2.1765198  0.081262544   0.10496729 
   19200   -948.14322    45.399133   -902.74408    1626.0323   -2138.1668    2.1769349   0.15887086   0.10897675 
   19300   -945.21247     46.98604   -898.22643    1682.8696     2673.207    2.1805255   0.16677123   0.12090492 
   19400   -948.22111    41.987791   -906.23332    1503.8504   -542.10579    2.1836116  0.061195448   0.11306651 
   19500   -945.40496    43.058496   -902.34646    1542.1992   -4273.1299    2.1643776  0.071916843   0.12895922 
   19600   -944.28162    45.938155   -898.34347    1645.3381   -17.404735     2.173317  0.067822957   0.13387572 
   19700   -950.47354    44.592484   -905.88105    1597.1411    6814.9551    2.2027013  0.027885977    0.1150771 
   19800   -947.13962    45.065896   -902.07373     1614.097   -1573.5761    2.1729042  0.031266165   0.11732214 
   19900   -946.11524    46.420477   -899.69476    1662.6131   -11746.484     2.144923   0.22627411   0.11565799 
   20000   -952.73216    45.121797   -907.61036    1616.0991    800.79238    2.1940225   0.31239175   0.11606436 
   20100   -948.83968    46.453185    -902.3865    1663.7846    11458.997    2.2112513  0.037194739   0.10769292 
   20200   -943.46197    43.588574   -899.87339    1561.1847   -3189.1049    2.1599614   0.54216156   0.13108044 
   20300   -950.89361    45.301875   -905.59173    1622.5489   -14190.806    2.1511206    1.2888767   0.13551222 
   20400   -949.31989     43.94284   -905.37705    1573.8732    3066.5358    2.1957823   0.06114228   0.12094296 
   20500   -942.16239    44.150721   -898.01167    1581.3187    9573.4008    2.1926382   0.05391138   0.12464324 
   20600   -949.76078    44.810954   -904.94983    1604.9659   -4774.7971    2.1743967  0.032289015   0.11840188 
   20700    -949.7221    44.398171   -905.32393    1590.1815   -7091.3933    2.1667393  0.066711939   0.11536135 
   20800   -943.96598    46.660696   -897.30528    1671.2169    687.21648    2.1717439  0.026960324   0.12459093 
   20900   -947.58653    43.501479   -904.08505    1558.0652    6458.1988    2.1918426  0.067851739   0.11568006 
   21000   -949.69863    44.413805   -905.28482    1590.7414   -1986.3006    2.1786617   0.15554664   0.10884798 
   21100   -943.23022    45.952212   -897.27801    1645.8416   -4491.0713    2.1545144   0.13340417   0.11847248 
   21200   -951.09048    45.687914   -905.40257    1636.3754    1065.0253    2.1900204  0.090529055    0.1086105 
   21300   -950.09231    45.519895   -904.57241    1630.3576     2725.745    2.1907422   0.29332432   0.11574562 
   21400   -945.32133    46.684411   -898.63692    1672.0663   -2915.1254    2.1618994   0.02760773   0.11617834 
   21500     -950.643    45.062788   -905.58021    1613.9856   -5721.3853    2.1696188  0.035941366   0.10600855 
   21600   -950.20412    44.372046   -905.83208    1589.2458     1703.995    2.1861413   0.13033757   0.11704255 
   21700   -945.31062    46.092325    -899.2183    1650.8599    6455.7058    2.1867017  0.064413436   0.11233378 
   21800   -948.98087    43.995351   -904.98552    1575.7539   -3037.1432    2.1716027   0.12766755    0.1063972 
   21900   -949.61589     41.63233   -907.98356    1491.1191   -13955.288    2.1482685  0.078026181      0.10795 
   22000   -946.26695    45.515205   -900.75175    1630.1896    7464.5975    2.1908634    0.2352004   0.10507465 
   22100   -947.08573    45.205814   -901.87992    1619.1083    15244.038    2.2152459  0.070323831   0.12206822 
   22200   -950.77165    41.684869   -909.08678    1493.0008   -7679.8779    2.1666937     0.120992   0.11372521 
   22300   -946.13396    45.449056    -900.6849    1627.8204   -12150.225    2.1417759  0.011029823   0.12408438 
   22400   -946.60874    46.433806   -900.17494    1663.0905    7195.6898    2.1927587   0.15853471   0.12458458 
   22500   -948.45041    42.945486   -905.50493    1538.1516    8241.6578     2.204666   0.10199102   0.10900229 
   22600   -943.11365    43.287684   -899.82597    1550.4079   -3796.4873    2.1583026  0.034085569   0.12757605 
   22700   -945.79269    46.679023   -899.11367    1671.8733   -7165.8777    2.1553745   0.10477819   0.10576371 
   22800   -948.56269    43.634075   -904.92862    1562.8143    6494.7527    2.1960734   0.14858807    0.1082761 
   22900   -948.16836    45.473376   -902.69498    1628.6914    4411.0831    2.1930056   0.33257928   0.10943891 
   23000    -946.6684    49.149411   -897.51899    1760.3537   -11417.252    2.1480067  0.086266366   0.11264521 
   23100   -949.75792    43.002247   -906.75567    1540.1845   -3244.7896    2.1786227   0.28181226    0.1086226 
   23200   -947.64002    44.619002   -903.02102    1598.0908    7931.1257    2.1991846   0.19922034   0.11130266 
   23300   -945.53491    47.205591   -898.32931    1690.7331    1855.4962    2.1787634  0.024647713   0.11556377 
   23400   -945.88678    39.659382    -906.2274    1420.4553   -7072.0718    2.1636167  0.033366197    0.1148238 
   23500    -948.7487    43.249545   -905.49915    1549.0418   -4079.1631     2.170488  0.059966331   0.11621398 
   23600   -949.23735    49.812435   -899.42492    1784.1008    6992.2053    2.1974092  0.097576421  0.099879142 
   23700   -947.36015    41.791604   -905.56854    1496.8237    4883.4815    2.1908079  0.013090834   0.10715511 
   23800   -950.00412    41.794271   -908.20985    1496.9192   -7457.1785    2.1686664   0.22118483   0.11949208 
   23900   -946.96792    46.154728   -900.81319     1653.095   -3581.0402    2.1689262    0.2037608   0.10643715 
   24000    -945.4086    42.156709   -903.25189    1509.9004      6664.35    2.1906998   0.42759352   0.11108456 
   24100   -948.87369    39.881218   -908.99247    1428.4006    2929.1268    2.1893752  0.054736201   0.10424774 
   24200   -944.82905    45.407738   -899.42131    1626.3405   -4234.1584    2.1628787   0.16703692   0.11628383 
   24300    -949.6275    47.812912   -901.81459    1712.4851   -780.44719    2.1796704  0.080724477    0.1073195 
   24400   -947.66406    41.282997   -906.38107    1478.6072    2803.6839    2.1880492  0.044439196   0.11849568 
   24500   -943.18815    44.759824   -898.42833    1603.1346    1629.8974    2.1712944  0.035731749   0.11498936 
   24600   -945.35426    45.221705   -900.13255    1619.6775    328.85153     2.175303  0.075670508   0.11693143 
   24700   -951.37598    45.929333   -905.44665    1645.0221    -2359.913    2.1807225  0.075461486   0.10825791 
   24800    -943.9898    43.422602    -900.5672    1555.2401    1341.9602    2.1784306  0.038090343   0.12032359 
   24900   -945.06737    47.407047   -897.66032    1697.9485   -307.36298    2.1704189   0.13108466   0.12519219 
   25000   -948.79098    43.388845   -905.40213    1554.0311   -166.58381    2.1826619   0.05266165   0.11368925 
   25100   -944.90473    42.765817   -902.13891    1531.7165    3071.7493    2.1790104  0.035938671   0.11674647 
   25200   -942.11756    45.419498   -896.69807    1626.7617   -1479.0786    2.1632586   0.18154936   0.12053634 
   25300   -946.90038    40.461325   -906.43905    1449.1779    3700.8547    2.1888156  0.057250746   0.10846687 
   25400   -948.82847    45.073055   -903.75542    1614.3534   -1624.4818    2.1801135   0.14019418   0.11547515 
   25500   -945.03028    45.390769   -899.63951    1625.7327   -3402.2233    2.1661403   0.16665825   0.11921888 
   25600   -948.43222    40.602861   -907.82936    1454.2472    2138.3987     2.186849  0.020477671   0.11921684 
   25700   -947.60351    41.395631   -906.20788    1482.6414   -173.27134    2.1845786  0.024165694   0.12905603 
   25800    -948.5473    47.476091   -901.07121    1700.4214    -2023.459    2.1771589  0.041487543    0.1168841 
   25900   -947.67022    43.910129   -903.76009    1572.7016    -2212.418    2.1760881  0.052439088   0.11968999 
   26000   -949.22794     39.75268   -909.47526    1423.7968    1970.9995    2.1902388 0.0021352483    0.1117388 
   26100   -949.05117    47.528173     -901.523    1702.2868   -1794.8722    2.1794344  0.036881597   0.10976791 
   26200   -945.17938    42.589104   -902.59028    1525.3873   -563.16912    2.1754425  0.084329507   0.12068793 
   26300     -954.421    44.537467   -909.88353    1595.1706   -2657.7673    2.1856145  0.070510493   0.10080651 
   26400   -945.05625     42.56723   -902.48902    1524.6038    2582.4079    2.1799986  0.051342123   0.10717184 
   26500   -947.12011    46.106829   -901.01328    1651.3794     3340.219    2.1868234  0.055328275   0.11751108 
   26600   -947.43612    41.263569   -906.17255    1477.9114   -1829.6579    2.1763072  0.083577936   0.11002042 
   26700   -946.68262    43.304946   -903.37767    1551.0261   -1573.3532    2.1710894  0.065200845   0.12705648 
   26800   -945.63343    47.293108   -898.34033    1693.8676    3539.6418    2.1798931   0.11595837   0.11444352 
   26900   -949.04663    45.722809   -903.32382    1637.6252    1870.4655    2.1854211  0.097665424   0.12502601 
   27000   -947.44954    41.964134   -905.48541    1503.0031   -2388.0179    2.1745584  0.049213948   0.12288855 
   27100   -939.76479    43.886705   -895.87808    1571.8626   -2565.4249    2.1592125   0.36676188    0.1267766 
   27200   -944.83364    43.455338    -901.3783    1556.4126    9005.8121    2.1991121   0.15582798   0.12321968 
   27300   -948.02678    43.529134   -904.49764    1559.0557     2246.376    2.1855122  0.045699438   0.10203861 
   27400   -947.84028    47.693765   -900.14651    1708.2177   -12227.682    2.1497399   0.16200388   0.10995228 
   27500   -945.66979    49.639267   -896.03053    1777.8985   -3787.3857    2.1646574  0.094266606   0.11777716 
   27600   -948.52509    44.628226   -903.89687    1598.4212    12685.239    2.2116375  0.063818981   0.11246033 
   27700   -948.07919    45.141857   -902.93733    1616.8176    377.89264     2.182074   0.18872099   0.12831626 
   27800   -944.05179    46.078827   -897.97296    1650.3765   -14278.238    2.1365545   0.20973969    0.1344934 
   27900    -949.8367     41.99681   -907.83989    1504.1734     1286.693     2.188233   0.11219259   0.10069151 
   28000   -949.16363    44.312773   -904.85086    1587.1228    8027.3542    2.2026221   0.28124612   0.11001255 
   28100   -947.36352    46.272438   -901.09108    1657.3109    -2810.621    2.1694312   0.34710787   0.11117761 
   28200   -946.16007    45.098745   -901.06133    1615.2735    -8463.906    2.1540584   0.19922711   0.11003986 
   28300   -950.64665    41.897503   -908.74915    1500.6166    5025.3079    2.1993591   0.15189645   0.10516217 
   28400   -946.95029    45.618295     -901.332    1633.8819    4683.5372    2.1862333   0.03451164   0.10804053 
   28500   -944.04599    42.237906   -901.80808    1512.8086   -1617.5337    2.1700673  0.056771398   0.10160047 
   28600   -951.58837    41.877712   -909.71066    1499.9078   -1288.3288    2.1825837  0.075684706   0.10988502 
   28700   -948.01373    45.652918   -902.36081    1635.1219    546.22022    2.1785994    0.2320158    0.1150756 
   28800   -945.87319    44.833878   -901.03931    1605.7869    4281.7463    2.1851399   0.15884811     0.122759 
   28900   -949.21744     41.81381   -907.40363     1497.619   -1214.5246    2.1810668    0.1195169   0.11971879 
   29000   -944.68332    43.235373   -901.44795    1548.5343    -1092.523    2.1690662  0.070953518   0.11360943 
   29100   -943.49388    43.937264   -899.55661    1573.6735    5438.5181    2.1825846  0.030783109   0.11969499 
   29200   -945.39488    41.340844   -904.05404    1480.6791    2624.9408    2.1842746    8.3177876   0.12829803 
   29300   -943.00915    45.580317   -897.42883    1632.5217   -3911.6398     2.157653    5.0238955   0.14980436 
   29400   -947.86423    50.163517   -897.70071    1796.6752   -1339.6125    2.1672502    4.3870438   0.12933424 
   29500   -946.85388    43.809185   -903.04469    1569.0861    7165.5353     2.201585    3.5910212   0.13694462 
   29600   -946.25194    46.114232   -900.13771    1651.6446    3438.5518    2.1907128    7.4104762   0.13818959 
   29700   -946.58397    50.923685   -895.66029    1823.9017    -15371.82    2.1387807    5.7726183   0.14685426 
   29800   -944.82034    39.184832   -905.63551    1403.4586   -4452.2797    2.1713242     4.229093   0.14890107 
   29900   -945.36291    44.487737   -900.87517    1593.3894    13076.382    2.2140341    6.5657873   0.13931422 
   30000   -942.89779    43.964197    -898.9336    1574.6381    4794.7987    2.1835672    4.6549314   0.14894196 
   30100   -949.44011    42.964461   -906.47565    1538.8312   -13217.011    2.1565695    4.5807733    0.1342762 
   30200   -948.92623    44.125506   -904.80072    1580.4156   -5592.7778    2.1721438    5.1779584     0.136118 
   30300    -944.2258    45.712628   -898.51317    1637.2605    7598.4444    2.1921467    5.9603819   0.13687906 
   30400    -946.6038    43.049715   -903.55409    1541.8847    2487.0565    2.1859423    6.2160706   0.12656276 
   30500   -949.11329    41.314755   -907.79853    1479.7447   -3706.4307    2.1742567    4.6960233    0.1248937 
   30600   -942.29923    43.298314   -899.00091    1550.7886   -4393.8986    2.1644235     17.26501   0.18454459 
   30700   -944.52464    44.532252   -899.99239    1594.9838    193.33977    2.1866714    17.776179    0.1623444 
   30800   -949.62582    43.464331   -906.16149    1556.7347   -343.86027    2.1852591    17.083183   0.12054958 
   30900   -951.41831    45.421433   -905.99687     1626.831   -2428.1831    2.1841368    24.402344   0.11631399 
   31000    -946.9369    47.495187   -899.44172    1701.1054   -1754.0816     2.172694    21.603555   0.12823269 
   31100   -949.48084    45.620341    -903.8605    1633.9552   -2583.7308    2.1800169    23.755973   0.13017393 
   31200   -951.40578    45.340809   -906.06497    1623.9434    2067.6338    2.1904559    21.517485   0.11158652 
   31300   -947.47569    51.297771   -896.17792    1837.3001   -2726.0986    2.1693159    21.201227   0.11232596 
   31400   -948.82893    47.067592   -901.76134    1685.7905   -1946.8225    2.1817507    21.344143   0.12114609 
   31500   -950.17138    45.187317   -904.98406    1618.4458   -1242.9968    2.1803695    19.364541   0.11477668 
   31600   -942.73875    44.950868   -897.78788    1609.9771    2322.9416    2.1729182    21.121321   0.11391813 
   31700   -944.69694    45.111754   -899.58519    1615.7394    1556.5721    2.1792382    21.031431    0.1204792 
   31800   -948.05782    43.018185   -905.03963    1540.7554    -1805.209    2.1794183    20.264662   0.11318603 
   31900   -945.76143    45.003681   -900.75775    1611.8687   -2503.7093    2.1728146    20.766184   0.13024837 
   32000   -944.41983    47.890096   -896.52973    1715.2496    2022.0078    2.1720987    19.190458   0.12250492 
   32100   -949.40813    43.597181   -905.81095    1561.4929    5536.6663    2.1975997    19.424677   0.12325875 
   32200   -945.08862    42.374633   -902.71399    1517.7057   -204.57363     2.177241    18.403552   0.13240443 
   32300    -946.2138    47.115239   -899.09856     1687.497   -6408.4879    2.1576412    17.836259   0.12925262 
   32400   -950.02926    41.287375   -908.74188    1478.7641    4126.9634     2.198273      21.3742   0.12169664 
   32500   -952.80106    48.424699   -904.37637    1734.3971   -47.197733    2.1908125    18.690827   0.10910891 
   32600   -946.95406    46.228044   -900.72602    1655.7209   -4903.0385    2.1666252    24.614179   0.12577715 
   32700     -946.908    41.106453   -905.80155    1472.2841   -3653.7234    2.1727902    21.091838   0.12365199 
   32800   -950.16603    42.927209   -907.23882    1537.4969    5446.9042    2.2004173    20.830018   0.13094341 
   32900   -946.06994    46.274838    -899.7951    1657.3969    3682.0501    2.1886415     21.81863   0.13439612 
   33000   -948.28576    44.187813   -904.09795    1582.6472   -9151.2798    2.1591653    20.588266   0.12391814 
   33100   -950.64633    42.393558   -908.25277    1518.3835    -8764.195    2.1692078    21.647195     0.113587 
   33200   -945.32006    46.203196   -899.11686    1654.8309    9598.3327    2.1984119    19.775823    0.1194115 
   33300   -945.09237    44.034892   -901.05748    1577.1701    10440.537    2.2004743    19.839229   0.12466153 
   33400   -946.64239    39.985125   -906.65727    1432.1222   -9580.2026    2.1587335    22.863858   0.12028663 
   33500   -942.75177    43.525486   -899.22628    1558.9251   -5221.0269    2.1551315    20.881597   0.12049637 
   33600   -943.65696    44.997775   -898.65919    1611.6571    10533.597    2.1951169    20.444837   0.11981362 
   33700   -949.15275    44.148445    -905.0043    1581.2372    3861.6228    2.1925436     20.27129   0.12688525 
   33800   -945.21471    43.418888   -901.79583    1555.1071    -2926.592     2.166152    23.182006   0.10423971 
   33900   -947.00753    50.668465   -896.33907    1814.7607    -7079.187    2.1596187    21.846513   0.12195607 
   34000   -949.14937    43.343472   -905.80589     1552.406    5919.1051    2.1974946    19.616192   0.10086522 
   34100   -948.62866     45.68036    -902.9483    1636.1048    1789.9543    2.1821631    19.757976    0.1075202 
   34200   -945.72262    46.701286   -899.02133    1672.6707   -4995.9482    2.1598581    22.036764   0.13138793 
   34300   -949.57965    41.199192   -908.38046    1475.6057    820.16509    2.1865678    22.031011   0.10975818 
   34400   -947.48616    42.810184   -904.67598    1533.3055     2242.889     2.184342     22.15327   0.11491613 
   34500   -948.65111    48.347018   -900.30409    1731.6149   -1273.5507    2.1726589     22.03618   0.10134266 
   34600   -952.01466    45.565242   -906.44942    1631.9817   -4617.7375    2.1749708    22.042053   0.10561155 
   34700   -951.44583    44.255698   -907.19013    1585.0786   -704.70323    2.1827379    21.955492  0.095601031 
   34800   -947.39548    46.946418   -900.44906    1681.4505    2676.8739    2.1851857    22.811973   0.11367528 
   34900    -947.8664    43.535148   -904.33125    1559.2711    -880.5599    2.1785193    22.164502   0.11485959 
   35000   -950.55706    40.631777   -909.92528    1455.2829   -5053.3805    2.1748598    18.693752   0.10168671 
   35100   -948.31399    47.409701   -900.90429    1698.0436   -2009.3479    2.1727125     18.65233   0.11916529 
   35200   -945.16852     43.24112    -901.9274    1548.7401    9412.0979    2.1978684    19.710897   0.11287896 
   35300   -947.81995    42.262696   -905.55725    1513.6965   -545.63951    2.1761231    18.538189   0.11832606 
   35400   -944.99262    49.344695   -895.64792     1767.348   -12252.776    2.1401698    17.679833   0.13381147 
   35500   -948.15888     45.82219   -902.33669    1641.1847    6465.6615    2.1918866    21.295386    0.1108685 
   35600   -948.57454    44.773664   -903.80088    1603.6303     8066.831    2.1997105    19.108308   0.11158099 
   35700   -948.85838    48.977707   -899.88068    1754.2038   -8457.7202    2.1590314     20.97165   0.12092426 
   35800    -946.3227    49.737373   -896.58532    1781.4123   -10078.646    2.1455439    22.035136   0.10708573 
   35900   -949.61341    44.711807   -904.90161    1601.4148    7534.2023    2.2016392     20.73464   0.11147578 
   36000   -948.71331    46.900248   -901.81306    1679.7968    6874.7431    2.1954641    21.594306   0.10779396 
   36100   -946.02795    46.931913   -899.09603    1680.9309   -7280.6543    2.1524599    20.189044   0.11939706 
   36200    -949.3176    40.314252   -909.00335    1443.9103   -2451.5435    2.1791943    19.469141   0.11168803 
   36300   -949.33956    44.861182   -904.47837    1606.7649    5793.6795    2.1933319    20.315899   0.10666531 
   36400   -948.59199    48.186022   -900.40597    1725.8486    1366.7191    2.1821372    24.093185   0.11911149 
   36500   -951.40052     46.58316   -904.81736    1668.4399   -6282.0421    2.1709134    21.634311   0.10608942 
   36600   -951.54486    43.474125   -908.07074    1557.0855    120.76895    2.1885208    21.304833   0.10875484 
   36700   -947.06883     46.18547   -900.88336     1654.196    2681.5581    2.1839935    22.962065   0.12751319 
   36800   -946.96649     44.17907   -902.78742    1582.3341    311.84886     2.179098    21.257868   0.10948206 
   36900   -952.78201     42.87942   -909.90259    1535.7853   -1850.9706     2.186659    21.561073   0.11086573 
   37000   -941.39732    40.283152   -901.11417    1442.7964    3097.6778     2.172152     21.94186   0.10520689 
   37100    -950.3853    48.403793    -901.9815    1733.6483   -638.93241    2.1806393    21.102101   0.10513604 
   37200   -949.00663    40.897565   -908.10906    1464.8025    932.41202    2.1874682    22.018116   0.11868938 
   37300   -945.77946    45.667791   -900.11167    1635.6547   -781.93734    2.1709736    19.556761   0.12161024 
   37400    -946.3841    45.957169   -900.42693    1646.0191    3447.4646    2.1813323    20.189819   0.11800331 
   37500   -948.25007    42.523435   -905.72664    1523.0352    2460.2848    2.1864982    21.413705   0.11556682 
   37600   -944.97893    44.308046   -900.67089    1586.9535    550.91562      2.17209    20.811024   0.11681492 
   37700    -946.3945     47.46765   -898.92685    1700.1191   -1897.1081    2.1709312    20.499512   0.12446827 
   37800     -947.393    42.200547   -905.19245    1511.4705    3278.0889    2.1869273    20.501354    0.1268712 
   37900    -950.7335    48.361688   -902.37181    1732.1403   -556.13106    2.1846303    20.404695   0.10703935 
   38000   -944.62713    47.716411   -896.91072    1709.0288   -5042.2046    2.1569645      20.9105   0.12201505 
   38100   -946.08269    40.223025   -905.85966    1440.6429    395.66864    2.1788137    23.243071   0.10862409 
   38200   -948.91064    46.456239    -902.4544     1663.894    6674.5591    2.1978781    23.471176   0.12091391 
   38300   -948.63494    51.312753   -897.32218    1837.8367     -457.217    2.1755485    22.247303   0.12133084 
   38400   -952.16945    46.820265   -905.34918    1676.9321   -10259.688    2.1620552    20.236233   0.11425566 
   38500   -942.92693    38.041616   -904.88532    1362.5127    161.03892    2.1720157       21.225    0.1295679 
   38600   -944.97607    45.924846   -899.05122    1644.8615    8938.6171    2.1984392     20.19789   0.11826711 
   38700   -948.50032     43.42191   -905.07841    1555.2153    3316.0838    2.1925333    19.442748   0.12434333 
   38800   -952.41782    44.745981   -907.67184    1602.6388   -12637.608    2.1617769    21.749899   0.11664454 
   38900   -944.20305    43.085099   -901.11795     1543.152   -517.39983    2.1728558    23.880167   0.11535841 
   39000   -950.99469    48.442503   -902.55219    1735.0348    6861.4107    2.2023278    19.283363   0.10551754 
   39100     -953.237      43.5012    -909.7358    1558.0552   -40.612749    2.1942593    19.392294   0.11577547 
   39200    -944.4316    43.660275   -900.77132    1563.7527    -8988.651    2.1528321    19.377556   0.13426238 
   39300   -950.12201    48.179316    -901.9427    1725.6084   -2879.1115    2.1793055    21.013681    0.1331053 
   39400   -951.69412    45.078555   -906.61556    1614.5504      7681.04    2.2092838    21.301141    0.1268786 
   39500   -944.44562    46.380319    -898.0653    1661.1748   -831.71235    2.1694256    19.292466   0.12712533 
   39600   -942.99226    42.475806   -900.51645    1521.3293   -3980.6389    2.1614794    23.791865   0.12860284 
   39700   -945.73181    40.299036   -905.43277    1443.3653    3032.1344    2.1834832    19.872285   0.11871537 
   39800    -948.2329    47.297447   -900.93545     1694.023    4707.0086    2.1898999    21.627529   0.11985371 
   39900   -943.72283    45.800123    -897.9227    1640.3943   -1796.5765    2.1621294    19.040273   0.11540361 
   40000   -948.10515    42.095592   -906.00956    1507.7115   -5916.8185    2.1666271    18.563805   0.11436004 
   40100   -947.94418    45.911492   -902.03268    1644.3831     2575.019    2.1832535    19.115816   0.12014216 
   40200   -943.73829    47.869608   -895.86868    1714.5158    8954.3956    2.1933327    19.778497   0.13464184 
   40300    -943.9664    39.105277   -904.86112    1400.6092   -2301.7057    2.1680913    20.055928   0.13115455 
   40400   -946.52759    42.518085   -904.00951    1522.8436    -17979.21    2.1294999    21.729603   0.11902024 
   40500   -948.52011    49.847176   -898.67294    1785.3451    6356.0723    2.1930888    22.194478    0.1142279 
   40600    -951.4965    46.823409   -904.67309    1677.0447      16176.4    2.2236282    22.004305   0.10173726 
   40700   -949.60161    41.522405    -908.0792    1487.1819   -6316.3793    2.1687576    20.388503   0.11369511 
   40800   -944.81678    43.917593   -900.89919    1572.9689   -10800.675    2.1444455    21.434262    0.1165902 
   40900   -950.03251    47.110947   -902.92156    1687.3433    3830.1611    2.1920857    21.488664   0.11389229 
   41000   -951.15144    43.619247   -907.53219    1562.2833    10324.459    2.2131677     20.46768   0.10840981 
   41100   -945.69783    47.245869   -898.45197    1692.1757   -6562.7678    2.1557435    19.756514   0.12417223 
   41200   -943.91561    41.510962   -902.40465    1486.7721   -2194.1457    2.1624569    21.956587    0.1283179 
   41300   -946.52755    41.065984   -905.46157    1470.8346    8927.7992    2.1979299    22.566281   0.12401076 
   41400   -942.95019    45.755517   -897.19468    1638.7967    8250.3776    2.1849295    20.143082   0.11659196 
   41500    -948.3477    47.508813   -900.83889    1701.5934   -6102.4421    2.1630568     20.43657   0.11775126 
   41600   -950.00124    43.736141    -906.2651      1566.47    -5592.602    2.1687724    21.264391    0.1137591 
   41700   -947.78547    48.157042   -899.62843    1724.8106    4779.8771    2.1884595    22.829889   0.11219264 
   41800    -945.9898    46.322361   -899.66744     1659.099    5504.2029    2.1877881    19.787983   0.11781932 
   41900   -951.92394    45.185137   -906.73881    1618.3677   -6617.0831    2.1685831     22.43131  0.099969444 
   42000   -948.02616    46.330864    -901.6953    1659.4035   -6636.5601     2.164631    20.246834   0.11651854 
   42100   -945.28699    47.299665   -897.98732    1694.1025    7456.8284    2.1891522    21.932736   0.11665925 
   42200   -951.88081    44.630767   -907.25004    1598.5122    6254.3791    2.2049635    19.693546    0.1171258 
   42300   -944.37676    41.374723   -903.00203    1481.8925   -10201.287    2.1493775    19.940858   0.13187285 
   42400   -945.66665    44.769778   -900.89687    1603.4911   -8265.3807    2.1533441    22.264461    0.1176371 
   42500   -951.54221    45.039947   -906.50226    1613.1676    16259.366    2.2287875    20.566025   0.10796631 
   42600    -946.3756    40.056332   -906.31927    1434.6725    12757.076    2.2079069    21.890798   0.11654093 
   42700   -943.71062    42.461934   -901.24869    1520.8325   -13408.926    2.1406775    23.543982   0.12574011 
   42800    -944.9651    41.382532   -903.58257    1482.1722   -4144.0683    2.1676023    19.896995   0.11436111 
   42900   -950.31762     42.37065   -907.94697     1517.563    9864.0632    2.2098466    20.997352    0.1139513 
   43000    -944.9091    46.298957   -898.61014    1658.2608   -665.45275    2.1738368    21.043837   0.11732326 
   43100   -945.40546    42.824624   -902.58083    1533.8227   -3654.5358    2.1695654    19.614588   0.11642902 
   43200    -949.3528      42.4294    -906.9234    1519.6672    227.74658    2.1813326    21.039801   0.10605034 
   43300   -949.37932     51.01891   -898.36041    1827.3123    -293.2765    2.1797594    19.176741   0.11483851 
   43400   -944.93279    43.857418   -901.07537    1570.8137    4447.7137    2.1833211    19.401902   0.11821459 
   43500    -948.9016    42.665069   -906.23653    1528.1081   -2852.7342    2.1720443    20.652336   0.10523187 
   43600   -945.62593    46.656227   -898.96971    1671.0568   -3976.3423    2.1640231    21.841416   0.11708907 
   43700   -945.20877    44.953274    -900.2555    1610.0632    5483.6496    2.1884906    25.058673   0.11910239 
   43800   -946.89668    41.435097   -905.46158    1484.0549    4809.5546    2.1893648    23.706801     0.103008 
   43900   -945.25241    44.897793   -900.35462    1608.0761    -3772.225     2.161784    21.500186   0.11742176 
   44000     -950.141    50.467574   -899.67342    1807.5655   -6310.9506     2.164833    20.141719    0.1290472 
   44100   -951.10871    44.450863   -906.65785    1592.0687    7759.9709    2.2057348    21.383274   0.10950392 
   44200   -944.79457    44.613287   -900.18128    1597.8861    5629.7368    2.1865942    18.592122   0.11949038 
   44300   -945.90316    44.152339   -901.75082    1581.3767   -8212.2061    2.1511238    20.740165   0.11232631 
   44400   -949.29045    40.338628   -908.95182    1444.7833   -4506.8961    2.1785121    20.189713   0.11167616 
   44500   -947.97852    47.419126    -900.5594    1698.3811    9066.3222    2.2017787    49.978122   0.13906961 
   44600   -945.00682    44.973691   -900.03313    1610.7945    4961.6171    2.1872026    44.453072   0.13273231 
   44700   -946.53367    40.599093   -905.93458    1454.1123    -8554.136    2.1521922    42.576739   0.14253214 
   44800    -944.6482    43.569348   -901.07885    1560.4961    -3583.741    2.1613601     42.31034   0.16492612 
   44900   -946.79438    49.837948   -896.95644    1785.0146    5954.0262    2.1939895    40.263732   0.14004117 
   45000   -947.87604    44.824016   -903.05202    1605.4337    3903.8768    2.1856519     39.42208   0.13775244 
   45100   -946.45422    43.649567   -902.80465    1563.3692   -6466.9563    2.1622432    45.482163   0.14434879 
   45200   -940.61815    47.654353    -892.9638    1706.8061  -0.82220997    2.1610033    36.794446   0.14144967 
   45300   -945.34622    44.026126   -901.32009    1576.8562    8609.8365    2.1933129    41.230309   0.13298045 
   45400   -948.82147    45.744281   -903.07719    1638.3942   -3208.1201    2.1776434    51.353283     0.130905 
   45500   -943.77075    43.778805   -899.99195     1567.998   -5010.4187    2.1624657    46.051469   0.14258636 
   45600   -940.57791    47.737284   -892.84063    1709.7764   -1757.5483    2.1589657    50.416144   0.14053008 
   45700   -946.59527    43.585355   -903.00991    1561.0694    7623.8558    2.1969863    48.528435    0.1478154 
   45800   -944.60297    42.389258   -902.21371    1518.2295   -1495.6289    2.1723605    41.691823   0.14764075 
   45900   -944.34963    44.132298   -900.21734    1580.6589   -5263.7355     2.154474    44.479013   0.14471901 
   46000    -949.1875    40.509341   -908.67816    1450.8977    1586.9041     2.188022    35.514965   0.13833036 
   46100   -946.72685    40.820758   -905.90609    1462.0515     4774.685    2.1889925    44.573594   0.13916005 
   46200   -945.53799    44.404957   -901.13303    1590.4245   -1861.7868    2.1732643     42.09311   0.13639809 
   46300   -943.04794    42.150783   -900.89715    1509.6882   -2650.6657    2.1650626    52.497634   0.14516802 
   46400   -950.73792    41.390754   -909.34716    1482.4667    6301.0597    2.1988791     44.12737   0.12863282 
   46500   -946.75482     45.09645   -901.65837    1615.1913     2927.367    2.1829849    43.179115    0.1456309 
   46600   -945.80147     45.52218   -900.27929    1630.4394    -4175.988    2.1633969     42.46434   0.16391578 
   46700   -949.31656    43.355051   -905.96151    1552.8207    -4390.112    2.1680404    42.092362   0.14536411 
   46800   -946.74439    42.191097   -904.55329    1511.1321    9578.2698    2.2003706    34.769675   0.13807202 
   46900   -942.25063    44.567249   -897.68338    1596.2372    6024.5532    2.1841252    43.441393   0.15545447 
   47000   -948.37948     44.57956   -903.79992    1596.6782   -11885.872    2.1543999    47.568091   0.14304157 
   47100   -945.41677     42.80336    -902.6134    1533.0611   -1679.3179    2.1704048    29.457171   0.13436498 
   47200   -947.24969    53.473624   -893.77607    1915.2313    1362.9523    2.1757809    27.159133   0.13598308 
   47300   -947.12066    45.508204   -901.61245    1629.9388    1005.3716     2.182276    21.494395   0.13854467 
   47400   -950.22385    45.383387   -904.84046    1625.4684   -8416.3984    2.1617784    20.435871   0.12331201 
   47500   -944.72433    46.016457   -898.70787    1648.1426   -621.56374    2.1689572    21.633731   0.12337182 
   47600   -943.68062    46.982516   -896.69811    1682.7434    7555.8522    2.1892186    23.231206   0.12933344 
   47700   -946.13219    42.118498   -904.01369    1508.5319    2102.8403    2.1834139    22.210186   0.12233792 
   47800   -945.44666     42.40935   -903.03731    1518.9491   -6416.4175    2.1603189    19.850023   0.13150632 
   47900   -943.50362    46.250069   -897.25355    1656.5098    1693.2623    2.1727595    21.396009   0.13169148 
   48000   -947.83721    43.370071   -904.46714    1553.3587    11031.806    2.2071388    23.486322   0.11836199 
   48100   -946.52539    40.983415   -905.54198    1467.8773   -6022.5249    2.1688007     20.08641   0.13082691 
   48200   -948.41853    45.450016   -902.96851    1627.8547   -9473.3744    2.1555479    23.253616   0.13127023 
   48300   -948.30563    49.880477   -898.42515    1786.5378    7762.4205     2.199133    21.120773   0.13233537 
   48400   -951.91429     44.70259    -907.2117    1601.0847    10394.391     2.216554    23.078754   0.12711207 
   48500   -948.36225    42.387507   -905.97475    1518.1668   -12004.461    2.1527572    21.759464    0.1248017 
   48600   -946.02145    43.902956   -902.11849    1572.4447    -7811.034    2.1628325    21.216386   0.13952784 
   48700   -949.65009    47.713273   -901.93681    1708.9164    5758.1936    2.2015831     20.80031   0.13333327 
   48800   -952.75034     42.14812   -910.60222    1509.5928    3873.1877     2.205357    22.051687   0.11873293 
   48900   -948.91618    46.165318   -902.75086    1653.4743   -7854.3556    2.1617087     21.61933   0.12962788 
   49000   -948.14229    46.561088    -901.5812    1667.6493   -853.74061    2.1785441    23.584936   0.11944051 
   49100   -949.72738    43.579767   -906.14761    1560.8692    4607.4411    2.1985801    22.097187   0.11254526 
   49200   -952.19806    42.477977   -909.72009    1521.4071    1885.8259    2.1938234    19.477162   0.11175462 
   49300   -948.19118    47.820914   -900.37026    1712.7717   -10301.554    2.1564253    21.472683    0.1335107 
   49400   -948.05196    45.100437   -902.95153    1615.3341   -2373.1981    2.1771092    21.787552   0.11532064 
   49500   -952.67489    47.833709   -904.84118      1713.23    6738.7689    2.2044936    21.660587   0.11288203 
   49600   -943.32515     48.26669   -895.05846    1728.7378    750.65311    2.1706788    23.840433   0.11731937 
   49700   -944.79065    45.116788   -899.67387    1615.9197   -4386.2942    2.1652629    22.982986   0.12371512 
   49800   -948.92379    44.889593    -904.0342    1607.7824     -2083.11    2.1789862    17.415501   0.12336707 
   49900   -947.95168    46.822739   -901.12894    1677.0207    5743.8908    2.1941227    21.067378   0.13244833 
   50000   -945.99961    50.697533   -895.30207    1815.8018   -5674.8816     2.157463    18.866008   0.12385582 
   50100   -947.70138       42.555   -905.14638    1524.1658   -3417.4346     2.170579    22.181499   0.11712674 
   50200   -949.05655    46.145646    -902.9109    1652.7697    7078.5617    2.2002673    21.231001   0.11616037 
   50300    -945.9398    46.602011   -899.33779     1669.115    7029.9181    2.1903468    21.298433   0.12661913 
   50400   -942.10026    44.526576   -897.57369    1594.7805   -12004.929    2.1398491    20.945036   0.14635753 
   50500   -947.52721    40.869897   -906.65731    1463.8115   -1578.1164    2.1783856    20.452707   0.12857765 
   50600   -947.06337    44.746875    -902.3165    1602.6708    13240.049    2.2126595    22.524107   0.12674677 
   50700   -946.20959    44.540592     -901.669    1595.2825    389.63101    2.1808776    20.340942   0.12764435 
   50800   -944.01041    45.620498   -898.38991    1633.9608   -12173.319    2.1465161    18.469852   0.15246621 
   50900   -941.01685    49.467938   -891.54892    1771.7621   -3124.3728    2.1545654    22.126963   0.14439918 
   51000   -946.98684      47.6197   -899.36714     1705.565    9271.1866    2.2015767    21.392303    0.1292781 
   51100   -946.80386    44.466762   -902.33709    1592.6381    2579.3502    2.1868172    22.503647   0.11510207 
   51200   -950.37554    44.706321   -905.66921    1601.2183   -8856.7053    2.1664121     23.42125    0.1155369 
   51300   -948.35747    43.451558   -904.90591    1556.2772   -471.58302    2.1845319     20.96395   0.14399721 
   51400   -944.54481    46.925436   -897.61938    1680.6989    3477.7928    2.1817486    22.758182   0.13976856 
   51500   -948.20977    45.689281   -902.52049    1636.4243   -2582.3749    2.1744415     19.65197   0.13102132 
   51600   -949.83828    44.283758   -905.55452    1586.0836    -4371.206    2.1742236    20.074976     0.124094 
   51700    -947.7179     49.28102   -898.43688    1765.0674     2841.547    2.1804261    22.174318   0.12736017 
   51800   -949.53643    50.864006   -898.67242    1821.7642    673.55032     2.180696    19.619551   0.11861995 
   51900   -946.35729    41.578688    -904.7786    1489.1978   -3204.9224    2.1698344    18.416289   0.12931261 
   52000   -945.74871     43.60557   -902.14314    1561.7934   -1047.8716    2.1695546    23.105896   0.11758818 
   52100   -940.38457    45.885907   -894.49866    1643.4668    7226.0742    2.1739044    21.613164   0.11544755 
   52200   -952.67659    48.612676   -904.06391    1741.1298     2055.033    2.1940344    23.662342   0.12595468 
   52300   -944.11586    40.440628   -903.67523    1448.4366   -4812.9576    2.1586567    23.757029   0.13245199 
   52400   -943.43005    44.738522   -898.69152    1602.3716   -10457.958    2.1451262    19.772258   0.14687226 
   52500   -950.28865    43.000813   -907.28784    1540.1332    16518.093    2.2274924    20.734715   0.12530065 
   52600   -951.08876    45.168312   -905.92045    1617.7651    7507.2618     2.201488    22.635477   0.11844634 
   52700   -946.16202     43.59732    -902.5647    1561.4979   -14052.824    2.1388425    22.098615   0.14184368 
   52800   -944.91116    44.484149   -900.42701    1593.2609    -4323.897    2.1609335    20.024572   0.12175922 
   52900   -951.07838    42.452112   -908.62627    1520.4807     13956.34    2.2213743     23.15732    0.1101411 
   53000   -948.07669     45.00025   -903.07644    1611.7458    1345.3748    2.1845892    21.381212   0.11367971 
   53100   -947.08433     45.75027   -901.33406    1638.6088   -8163.3068    2.1542469     23.58884   0.12031626 
   53200   -950.51209    44.972319   -905.53977    1610.7454   -3601.2778    2.1752478    21.333083   0.12564481 
   53300    -954.5484    46.789441   -907.75896    1675.8281    5116.2669    2.2057669    20.320904   0.12448148 
   53400   -948.83256    49.870329   -898.96223    1786.1743   -3210.2636     2.169992    19.668072   0.13609425 
   53500   -945.96367    42.255476    -903.7082    1513.4379   -5813.5543    2.1624652    20.819468   0.14033031 
   53600   -948.77414    43.787604   -904.98654    1568.3132    441.06725    2.1845458    21.197212   0.12631529 
   53700   -942.75533    47.533898   -895.22143    1702.4918      5323.53    2.1785842    26.775108   0.13479248 
   53800   -944.38437    42.681601   -901.70276    1528.7002    2967.9695    2.1805726    22.158815   0.12600178 
   53900   -945.50578    40.197463   -905.30831    1439.7274   -4035.5547    2.1660528    21.439897   0.12388995 
   54000   -943.29569    44.816686   -898.47901    1605.1712    920.69301     2.170717    21.448163   0.12311214 
   54100    -943.1428     45.01528   -898.12752    1612.2841    9896.0416    2.1967287      21.2617   0.13594301 
   54200   -947.23007    42.724127   -904.50595    1530.2233   -347.75706    2.1771294    21.562253    0.1280376 
   54300   -947.82276    44.820053   -903.00271    1605.2918   -14226.447    2.1449104     21.20772   0.13113114 
   54400   -941.92629     45.10415   -896.82214    1615.4671    5064.9934    2.1774525    21.824563   0.14238233 
   54500   -947.86919    42.207679   -905.66151     1511.726    20897.221    2.2308535    21.229455   0.11742234 
   54600     -949.323    44.604698    -904.7183    1597.5785    -8301.053    2.1619132    22.911217   0.11760356 
   54700    -945.6278    44.326027   -901.30177    1587.5975   -10254.945     2.147571    20.195969   0.11472078 
   54800   -950.46826    45.712944   -904.75531    1637.2719     4158.188    2.1970363    21.685593   0.11896406 
   54900   -953.23893    44.582698   -908.65623    1596.7906    7928.2235    2.2093757    20.540958   0.10251989 
   55000   -945.22648    44.081527   -901.14496    1578.8404   -5158.0859    2.1622681    18.922646   0.11803203 
   55100   -947.66348    45.075432   -902.58805    1614.4385   -6778.0768    2.1630898    21.980332   0.11853055 
   55200   -953.79846    44.732903   -909.06555    1602.1704    3398.1612    2.2008767     20.26894   0.11335011 
   55300    -946.7952    46.429582   -900.36562    1662.9393    4711.7018    2.1856741    20.771457   0.12082298 
   55400   -945.45445    44.038173   -901.41628    1577.2877    20.826587    2.1690957    21.977631   0.11259065 
   55500   -951.44488    44.855965   -906.58892     1606.578   -6506.2894    2.1706278    22.686826   0.12302206 
   55600   -944.85936    41.789067   -903.07029    1496.7328    7136.5784    2.1903611    21.159644   0.11749017 
   55700   -943.23447    44.969197   -898.26528    1610.6335    6544.1386    2.1828767    18.328302   0.11543244 
   55800   -948.33104    43.649996   -904.68104    1563.3846   -6029.6879     2.166281    20.495028    0.1132552 
   55900   -947.11902    43.660086   -903.45894    1563.7459   -4945.3407    2.1693356    17.761725   0.13089157 
   56000   -944.60589    49.155909   -895.44998    1760.5864    6019.3971    2.1868753      21.3426    0.1333616 
   56100   -949.88802    47.123425   -902.76459    1687.7902    6383.8569    2.1997388    21.221258   0.11733316 
   56200   -946.79427     41.61086   -905.18341    1490.3501   -12480.834    2.1485313    23.221653   0.12853133 
   56300   -941.86241    43.678978   -898.18343    1564.4226   -8307.0388    2.1512301    20.477883   0.14125441 
   56400   -947.77122    43.826851   -903.94437    1569.7189    17270.928    2.2246966    22.608945   0.13206111 
   56500   -949.46323    43.713283   -905.74995    1565.6513    3958.7209    2.1975225    21.302343   0.12471413 
   56600   -946.13174    44.136116   -901.99563    1580.7956   -12247.124    2.1505641    20.568624   0.14025256 
   56700   -942.65552    43.899601   -898.75592    1572.3245    -1262.676      2.17062    18.270963   0.12596836 
   56800   -949.46707    41.706561   -907.76051    1493.7778    10640.413    2.2133174    18.765949   0.12378656 
   56900   -946.10149    43.663657   -902.43783    1563.8738      399.904    2.1801001    19.368017    0.1371797 
   57000   -942.72819    41.957923   -900.77027    1502.7806   -3880.0886    2.1626583    20.551991   0.13778667 
   57100   -952.46731    43.887554   -908.57976     1571.893    128.56581    2.1926986    18.695016   0.11320259 
   57200   -943.90191    40.534512    -903.3674    1451.7992    6322.4123    2.1961509     20.27399   0.12667034 
   57300   -943.59982    43.124671   -900.47515    1544.5693   -575.26044    2.1773039    23.253155   0.13339954 
   57400   -948.50255    41.712933   -906.78961     1494.006   -3967.9936    2.1756576    21.226435   0.13251169 
   57500   -951.56211    47.207994   -904.35412    1690.8192   -3369.6572    2.1832686     20.32808   0.13737283 
   57600   -944.16973    45.147258   -899.02247    1617.0111    4990.9501    2.1884017    21.320711   0.13772524 
   57700   -946.45734    41.361826   -905.09552    1481.4306    800.90571    2.1847253    18.708313    0.1258078 
   57800   -946.72898    42.861269   -903.86771    1535.1352   -3969.0388    2.1684491    20.847814   0.12767595 
   57900   -946.51077    49.243559   -897.26721    1763.7257    11.300309     2.171987    21.019869   0.13088311 
   58000   -946.28281    42.523393   -903.75942    1523.0337    11149.735     2.209002    20.932609   0.13515136 
   58100   -951.50071    46.332437   -905.16827    1659.4599   -3360.2166    2.1796792    21.073078   0.11980243 
   58200   -944.68308    47.196637   -897.48644    1690.4124   -14714.197    2.1347712    21.094568   0.12208136 
   58300   -947.03939    41.571796    -905.4676     1488.951    3019.0824    2.1918864    19.761085   0.11758172 
   58400   -946.68826    42.132568   -904.55569    1509.0358    13618.594    2.2128915     19.97786   0.12908149 
   58500   -944.79616    44.489073   -900.30709    1593.4373   -3345.0542    2.1671696    18.799127   0.12998481 
   58600   -944.60338    44.168772    -900.4346    1581.9652   -8772.5112     2.152339    20.137215      0.13606 
   58700   -951.39621    44.297238   -907.09897    1586.5664    4728.7375    2.2016783    20.320568   0.11898379 
   58800   -950.10725     50.32987   -899.77738    1802.6334    6456.1177    2.1973336    23.410391   0.11738381 
   58900   -948.08829    45.835701   -902.25259    1641.6686   -3982.5557    2.1688801    20.359389   0.12298873 
   59000   -948.57317    39.570447   -909.00272    1417.2699   -4071.8385    2.1763755    20.827282   0.12082185 
   59100   -945.71597    45.112921   -900.60304    1615.7812    5915.0396    2.1849165    22.997098   0.12302517 
   59200   -950.82825    49.487913   -901.34034    1772.4776    3272.2154    2.1913565    19.523944   0.11765799 
   59300   -949.37746    41.547393   -907.83007    1488.0769   -2162.7962    2.1786641    20.757029   0.12088489 
   59400   -941.87505    42.421736   -899.45331    1519.3927   -1390.1491    2.1628599      22.7316   0.14299665 
   59500   -943.39266    42.972555   -900.42011    1539.1211    5627.5535    2.1872676    18.919468   0.12027515 
   59600    -946.9909    41.308068   -905.68284    1479.5052    5033.9427    2.1910517    22.665241   0.12615899 
   59700   -943.67751    44.587636   -899.08987    1596.9674   -1731.2295    2.1675939    20.802606   0.13196626 
   59800    -945.2072    45.426988   -899.78021      1627.03   -2871.0194    2.1687004    21.750238   0.11748113 
   59900   -949.66201    44.160557   -905.50146     1581.671    2399.1859     2.188262    22.815725   0.11597122 
   60000   -945.64563    45.426679   -900.21895    1627.0189    3057.9298     2.179941     21.10501   0.11169064 
   60100   -944.67907    45.977655   -898.70141    1646.7529   -1786.1491    2.1665576    20.341391   0.13861334 
   60200   -949.48269     43.14562   -906.33707    1545.3196   -585.97354    2.1826239    18.743384    0.1276558 
   60300    -947.7767    46.683267   -901.09343    1672.0253    2475.4276    2.1822537    22.949524   0.10852139 
   60400   -946.14557    47.177855   -898.96771    1689.7397    1210.3246    2.1736747    19.900907   0.12751028 
   60500   -952.35992    44.564668   -907.79525    1596.1448   -1501.8294    2.1868561    22.429629      0.11264 
   60600    -948.4377    46.109501   -902.32819    1651.4751   -653.86535    2.1760304    21.768849    0.1104754 
   60700   -948.00959    47.907265   -900.10232    1715.8645   -419.52149    2.1735515    24.322543   0.13164936 
   60800   -950.08601    41.242292   -908.84372    1477.1493    2198.7468    2.1923688    22.878933   0.10539839 
   60900   -950.55983    47.706588   -902.85324     1708.677   -2114.5958    2.1766302    19.136166   0.11674089 
   61000   -947.45692    46.855253   -900.60167    1678.1852   -1019.3216    2.1697101    19.742701   0.12841163 
   61100   -949.60798    41.202343   -908.40564    1475.7185    624.15909      2.18586    18.268637   0.12746952 
   61200   -947.19776      43.9326   -903.26516    1573.5064     1856.316     2.181206    21.172829   0.12220542 
   61300   -945.93005    45.646578   -900.28348    1634.8949    843.46608    2.1756479    21.900954   0.11551989 
   61400   -947.55483    40.877157   -906.67768    1464.0715    826.31333    2.1801211    20.714291   0.10512323 
   61500   -946.17326    42.787592   -903.38567    1532.4964    757.24656     2.179331    21.193067   0.12311147 
   61600     -946.305    47.297259   -899.00774    1694.0163    1162.8344    2.1769686    21.442542   0.12781537 
   61700   -949.62907    44.359348   -905.26972     1588.791     -1593.68      2.17704    22.553127   0.10703521 
   61800   -945.60946    41.669526   -903.93993    1492.4513   -3100.5283    2.1678176    22.506109   0.12441227 
   61900    -943.9897    46.934975   -897.05472    1681.0406    1779.8658    2.1733139     20.48138   0.11788389 
   62000   -950.10911    46.241819   -903.86729    1656.2143    7153.4887    2.1988318    21.596613   0.12082502 
   62100   -949.82561    45.172693   -904.65292     1617.922   -2786.7905    2.1730604    21.412674   0.12056901 
   62200   -945.52361    48.358942   -897.16467    1732.0419   -13267.518    2.1408536    21.926561   0.12069812 
   62300   -949.93456    43.819399   -906.11516     1569.452    4219.9424    2.1964148    23.628712   0.11519993 
   62400   -947.77374    43.697899   -904.07584    1565.1003    9547.8398    2.1999751    21.454142   0.12229982 
   62500   -943.31306    43.299167   -900.01389    1550.8191   -3684.1409    2.1566466    20.103869   0.13129795 
   62600   -946.82772    45.626314    -901.2014    1634.1691   -10422.258    2.1511275    22.705693   0.13553321 
   62700   -951.65181    44.479097   -907.17271      1593.08    6027.8788    2.2018348    21.516249   0.10758608 
   62800   -943.79448     43.34499   -900.44949    1552.4603    9487.1379     2.194735    18.178024   0.12383811 
   62900   -943.48053    40.810609   -902.66992     1461.688   -5783.3125    2.1551799    20.051628   0.12396991 
   63000    -949.5934    39.550453   -910.04294    1416.5538   -4909.6177    2.1715669    18.710909   0.11007371 
   63100   -945.42969      43.5478   -901.88189    1559.7243    6327.7297    2.1889392    22.449687   0.12262271 
   63200   -942.30639    40.958062   -901.34833    1466.9693    7781.8103     2.188239    22.875292   0.12883017 
   63300    -949.0424    40.868347   -908.17405     1463.756   -5641.4523    2.1699641    20.426391   0.11510905 
   63400    -946.5165    43.831314   -902.68519    1569.8787   -3040.6628    2.1689625     21.78815   0.12621972 
   63500   -946.59007     46.95571   -899.63436    1681.7833    5208.7326    2.1871327    21.406675   0.13018742 
   63600   -947.48379     41.87099    -905.6128     1499.667    3034.6557    2.1852935    17.784684   0.12253515 
   63700   -946.20623    43.648299   -902.55793    1563.3238    -2075.286    2.1721687     21.07125   0.12555727 
   63800   -941.80638    44.062122   -897.74426    1578.1454    -1433.174    2.1661325    20.262982   0.12797282 
   63900   -946.84996    41.801568   -905.04839    1497.1806     2882.466    2.1885095    22.482241   0.12664158 
   64000   -946.52425    43.365365   -903.15888    1553.1901    1339.3929    2.1847287    21.651909   0.12495499 
   64100   -945.91599    49.146837   -896.76915    1760.2615   -5061.9398    2.1601351    20.419376   0.12944418 
   64200   -951.50046    45.586178   -905.91428    1632.7316    -1646.261    2.1836659    23.105193   0.12130887 
   64300   -944.30955    40.847121   -903.46243    1462.9957    3835.8432    2.1818015    22.363123   0.12646748 
   64400   -945.54196    47.731577   -897.81039     1709.572   -1044.6646    2.1680739    22.154129   0.12710926 
   64500   -949.89129    43.094941   -906.79635    1543.5045   -502.30331    2.1817102    20.383912    0.1154622 
   64600   -950.82147    46.303591   -904.51788    1658.4267   -3625.4456    2.1731372    20.636625   0.12030134 
   64700   -946.91618    47.697968   -899.21822    1708.3682    215.28463    2.1758882    21.444234    0.1174488 
   64800   -947.02739    39.859101   -907.16829    1427.6084    5441.0904    2.1954465    22.627131   0.12067609 
   64900   -948.78709    43.574044   -905.21305    1560.6642   -7494.9557    2.1621161     19.86815   0.13455666 
   65000   -946.49861    45.980334   -900.51828    1646.8488   -5465.1383    2.1595588     22.63252   0.11669484 
   65100   -951.69961    46.975029   -904.72459    1682.4752    10140.109    2.2071493    18.473374   0.11581457 
   65200   -949.48694    41.920654   -907.56629    1501.4458    7153.9139    2.2019464    21.099136   0.11569986 
   65300   -946.30912    45.917508   -900.39162    1644.5986   -12947.364    2.1435339    22.153337   0.13994275 
   65400   -948.32687     44.77668   -903.55019    1603.7383   -6413.3142    2.1619999    20.017982    0.1204424 
   65500   -952.96516    46.773227   -906.19193    1675.2474    10301.386    2.2131317    19.993178   0.10496296 
   65600   -945.50657    48.468813   -897.03776    1735.9771    2960.1816    2.1754909    21.288357   0.11604112 
   65700   -947.95794    45.283305   -902.67464    1621.8838   -10101.654    2.1540399    22.548658   0.10570687 
   65800   -950.45309    44.337111   -906.11598    1587.9945   -4134.0273    2.1736764    21.783575   0.11418793 
   65900   -945.98084    47.958889   -898.02195    1717.7135    9776.3983    2.1928456     24.23472   0.12288568 
   66000   -946.24673    45.626245   -900.62048    1634.1666    3654.2109    2.1797758    20.862957   0.11836182 
   66100   -945.26872    38.599407   -906.66931    1382.4908   -3162.4347    2.1651683    21.526968    0.1317906 
   66200   -944.84612    44.669705   -900.17641    1599.9068   -824.90685    2.1682498    18.949181   0.11861006 
   66300    -948.3252      48.8583    -899.4669    1749.9271    7162.9267    2.1898551    21.274897   0.11488448 
   66400    -947.4982    40.873234   -906.62496     1463.931    4251.6686    2.1918931    22.147899   0.11497101 
   66500   -942.67802    41.177537   -901.50048    1474.8301   -3530.2126    2.1616569    20.318272   0.11223848 
   66600   -947.55364    48.009401   -899.54424    1719.5226   -3003.9539    2.1648335    23.775456   0.11405118 
   66700   -949.63153    42.106473   -907.52506    1508.1012    8185.1447    2.2014634    23.533189   0.11834376 
   66800   -942.74251    41.946942   -900.79557    1502.3873    4290.7611    2.1760124    23.070376   0.11506664 
   66900    -947.7097    46.764254   -900.94544     1674.926   -3076.3486    2.1659773    19.745995   0.13341095 
   67000     -954.016    46.091236   -907.92476    1650.8209   -1443.2652    2.1868493    21.314277   0.11602178 
   67100   -947.88753    47.229265   -900.65827     1691.581    1184.0141    2.1815172    18.122764   0.12899838 
   67200   -945.73529    45.158477   -900.57681    1617.4129    530.82827    2.1745791    23.460387   0.11414417 
   67300   -952.63597    45.245442   -907.39053    1620.5276   -3761.6654    2.1832513    19.509933  0.098888613 
   67400   -943.50027     43.29837    -900.2019    1550.7906    402.95963    2.1746268    23.285086   0.12068194 
   67500   -943.71274    43.359223   -900.35352    1552.9701    2258.0729    2.1794254    21.194939   0.12032543 
   67600   -948.87353    42.103199   -906.77033    1507.9839    484.29141    2.1849317    22.367311   0.12156803 
   67700   -945.48196    45.666605   -899.81535    1635.6122   -205.54321    2.1697017     21.36133   0.12201029 
   67800   -945.13972    45.268445   -899.87127    1621.3515    2185.0507     2.178877    23.093029   0.14029431 
   67900   -949.28442    43.060417   -906.22401     1542.268    2692.4829    2.1938232    19.480904    0.1306897 
   68000   -943.04949    43.724431   -899.32506    1566.0505   -617.70549    2.1672848    19.322218   0.13663557 
   68100   -947.01086    45.929651   -901.08121    1645.0335   -4364.3656    2.1632548    20.785318   0.12244166 
   68200   -950.63475    44.215298   -906.41945    1583.6316    4969.3121    2.1968936    23.953291   0.10385521 
   68300    -944.8202    45.939318   -898.88088    1645.3798    9526.6108    2.1927697      23.9136   0.10334943 
   68400   -946.95653    45.353422    -901.6031    1624.3951    -6550.968    2.1622616    21.207997   0.12870522 
   68500   -950.15964    42.074332    -908.0853      1506.95   -8513.7142    2.1649986    22.290829   0.11466247 
   68600    -949.1119    48.630217   -900.48168     1741.758    5912.4884    2.1940671    21.683401    0.1262699 
   68700   -949.86934    49.076394   -900.79295    1757.7385    7179.6939    2.2001905     18.34959   0.13354759 
   68800     -952.367    43.944009   -908.42299     1573.915   -7252.6447    2.1700339    18.961803   0.11580054 
   68900   -947.35229    45.680591    -901.6717    1636.1131   -8533.3876    2.1563668    20.347766    0.1414949 
   69000   -949.52296    49.994264    -899.5287    1790.6132    4430.7587    2.1911597    20.992199   0.12173732 
   69100   -952.14879    45.438863   -906.70993    1627.4553    7348.9781     2.206975    21.557098   0.11022204 
   69200    -947.4558    47.137465   -900.31833     1688.293   -6275.2942    2.1631836    19.792424      0.10801 
   69300   -945.70776    45.374833   -900.33293     1625.162   -6019.5175    2.1605796    21.236102    0.1162738 
   69400   -953.56502    47.062715   -906.50231    1685.6158     762.0394    2.1954095    20.675357    0.1050942 
   69500   -945.90678    45.587685    -900.3191    1632.7855    4988.3036    2.1882032    22.842037   0.13274011 
   69600   -944.52001    44.716116    -899.8039    1601.5691   -3054.0126    2.1657616    20.326487   0.13580263 
   69700   -950.58093    43.765443   -906.81549    1567.5195   -1919.9083     2.177471     19.49947   0.11635434 
   69800   -947.71864     46.99617   -900.72247    1683.2324    1648.8334    2.1805634    19.963545   0.11885994 
   69900   -948.65068    49.106387    -899.5443    1758.8127    351.41723    2.1793767    21.184359   0.11721524 
   70000    -949.0341    41.870977   -907.16313    1499.6665   -205.50219    2.1855299    18.412164   0.11629474 
   70100   -946.74702    45.761831   -900.98519    1639.0228   -1394.2532    2.1727415    21.511944   0.11560233 
   70200   -944.83969    45.084933   -899.75475    1614.7788    2970.6992    2.1745432    21.413119   0.10807953 
   70300   -948.99325     41.56107   -907.43218    1488.5668    2765.3993    2.1901263    20.681743   0.11127859 
   70400   -947.73498    47.093408   -900.64158    1686.7151   -1724.3099    2.1751396    19.611662   0.11343872 
   70500   -947.14957     46.18166   -900.96791    1654.0596   -2474.7167    2.1703012    22.764711   0.12417451 
   70600   -949.60585    41.572013   -908.03384    1488.9587    2316.6712    2.1903653    22.404682   0.11900608 
   70700   -947.35121    47.161233   -900.18998    1689.1443    590.53015    2.1790424    20.701237   0.11326463 
   70800   -946.02212    44.262501   -901.75962    1585.3223    595.15431    2.1756637    20.859723   0.11921757 
   70900   -953.59163     45.42195   -908.16968    1626.8495   -2154.1695    2.1845551    20.695045    0.1067926 
[...]
  186800   -946.85981    42.883762   -903.97605    1535.9408   -5261.8801    2.1655825    97.439099   0.11631741 
  186900   -947.94023    46.163931    -901.7763    1653.4246    6209.6263    2.1956849    91.075319   0.12688783 
  187000   -943.29801    48.035266   -895.26274     1720.449   -1479.1143    2.1679466    90.245075   0.12779522 
  187100   -948.97355    46.050712   -902.92284    1649.3695   -6695.3666    2.1651189    90.996738   0.13058487 
  187200   -950.61886    46.682599   -903.93626    1672.0014    291.44143    2.1843358    97.128729    0.1162006 
  187300   -948.27933    49.117209   -899.16212    1759.2003    5208.8032    2.1902871    91.412682   0.12429561 
  187400   -942.57734    45.583243    -896.9941    1632.6264   -1900.8671     2.161609    102.52746   0.13914451 
  187500   -947.39297    42.841982   -904.55098    1534.4444   -4892.9029    2.1699457    94.337309   0.14361661 
  187600   -950.06394    47.745615   -902.31833    1710.0748    1622.3013    2.1905444     94.18837   0.12248413 
  187700   -944.09331    49.240631   -894.85268    1763.6208    3689.3661     2.179133    93.124818    0.1383844 
  187800   -946.43822    43.985952   -902.45226    1575.4173   -4392.1639    2.1713064    92.187453   0.13409252 
  187900   -947.24173    42.865245   -904.37648    1535.2776   -4498.9701    2.1692648    91.793006   0.12768564 
  188000   -946.55441     46.19959   -900.35482    1654.7018    4632.2299     2.188352    91.646408   0.13709063 
  188100   -943.25682    44.749195   -898.50762    1602.7539    4235.2457     2.182429    96.279041   0.13945533 
  188200   -952.35741    44.451644   -907.90577    1592.0967    -656.9215    2.1898121     94.70263   0.11045741 
  188300   -951.00788    46.984397   -904.02348    1682.8107      -3769.8    2.1766587    96.198099   0.12691395 
  188400   -947.51548    46.797734   -900.71775    1676.1251   -992.91292    2.1747627     95.86207   0.13152255 
  188500   -950.11274    43.225132   -906.88761    1548.1675    632.39614    2.1893036    95.146258   0.11817417 
  188600   -952.10771    44.299717   -907.80799    1586.6552   -1724.7134     2.186318    93.512527   0.12264698 
  188700   -946.13929     44.41575   -901.72354    1590.8111    174.73994    2.1777407    95.231867   0.12111753 
  188800    -946.8225    44.309219   -902.51328    1586.9955   -260.52866     2.179908     94.25831   0.13378764 
  188900   -954.70906    43.826919   -910.88214    1569.7213   -794.49874    2.1949929    93.047934   0.12143447 
  189000   -943.82687    41.189936   -902.63693    1475.2741    536.28538    2.1733516    93.630714   0.13357638 
  189100    -945.3025    43.586727   -901.71577    1561.1185    3762.0201    2.1818433    92.340859    0.1239188 
  189200   -948.55698    41.738374   -906.81861    1494.9172    3430.9061    2.1913466    96.623385   0.12430595 
  189300   -951.55777    42.272537   -909.28523     1514.049   -102.33832    2.1882253    97.398872   0.11666487 
  189400   -947.36707    46.397617   -900.96945    1661.7944   -7165.2559    2.1625369    92.137333   0.12506685 
  189500   -943.61606    40.424598   -903.19146    1447.8625    857.02013    2.1787545    89.678999   0.14194079 
  189600   -950.92332    46.067607   -904.85571    1649.9746    8136.7598    2.2064951    87.686749   0.11131024 
  189700    -943.3095    48.669148   -894.64036    1743.1524   -679.98112    2.1654707     88.06101    0.1277708 
  189800   -944.68533    44.759244   -899.92608    1603.1138   -4414.1778    2.1627701    92.887519   0.14279528 
  189900   -946.93003    42.960852   -903.96918    1538.7019    1761.9157    2.1819975    94.462539   0.12286628 
  190000   -949.91861    46.605501   -903.31311      1669.24    4988.7429    2.1987119    97.641632   0.12724642 
  190100   -941.75373    47.311913   -894.44182    1694.5411   -4079.7439    2.1562438    91.962955   0.14112717 
  190200   -949.21806    45.550877   -903.66719    1631.4672   -7167.3263    2.1668082    95.609242   0.12066791 
  190300   -947.54852    43.929526   -903.61899    1573.3963    4813.2447    2.1895078    98.470857   0.11595105 
  190400   -942.75837    43.832242   -898.92612    1569.9119    6199.4954    2.1883354    95.404095   0.13946175 
  190500   -939.72474    42.446885   -897.27785    1520.2935   -5815.2154    2.1516608    98.645895    0.1303416 
  190600     -945.775    40.199959   -905.57504    1439.8168    -3195.801    2.1695712    91.671741   0.12220865 
  190700   -948.75795     46.87812   -901.87983    1679.0042    11666.396    2.2095241     91.65197   0.11486026 
  190800   -946.12273    45.566924    -900.5558     1632.042    3785.0805     2.187718    94.631774   0.12543573 
  190900   -935.33112      44.5058   -890.82532    1594.0364   -11540.637    2.1278822    96.225235   0.16970693 
  191000   -944.40842    46.309545   -898.09888      1658.64   -401.18224    2.1715572    92.635255   0.13063091 
  191100   -946.17266    45.252067   -900.92059    1620.7649    6420.1462    2.1955074    91.432583   0.12790312 
  191200   -946.85408    43.827014   -903.02707    1569.7247    1222.1365    2.1822407    95.237325   0.11049335 
  191300   -949.00178    43.664061   -905.33772    1563.8883   -6191.5553    2.1705005    94.414673   0.10879463 
  191400   -955.71222    41.500952   -914.21127    1486.4136    -1294.957    2.1987992    91.111734   0.10618059 
  191500   -948.09249    42.290459   -905.80203    1514.6909    207.71717     2.188362    99.923619   0.12729287 
  191600   -946.24695    43.085869   -903.16108    1543.1796    633.65436    2.1834432    103.54441   0.12713151 
  191700   -948.57093    46.687285   -901.88365    1672.1692   -1918.7965    2.1758534    100.54545   0.12846607 
  191800   -947.07588     42.81505   -904.26083    1533.4798   -620.33924    2.1799386    95.875619   0.12806229 
  191900   -952.20196    42.314322   -909.88764    1515.5456    3515.3188    2.1975101    94.906571   0.10236385 
  192000   -949.97794    46.439495   -903.53845    1663.2943    83.288633    2.1839968    92.708698   0.11681075 
  192100   -946.17392    44.394139   -901.77978    1590.0371      -1724.1    2.1700596    85.074317   0.12821764 
  192200   -947.84701    46.726007     -901.121    1673.5561   -1320.4801    2.1762164    93.221804   0.11490262 
  192300   -950.44744    39.943514   -910.50393    1430.6318    7571.7393    2.2089385    87.583098    0.1187152 
  192400   -947.99101    43.444059   -904.54696    1556.0087    -1411.343    2.1776536    95.087115    0.1156445 
  192500     -946.368    44.434243   -901.93376    1591.4735   -5994.5847    2.1638007    98.664877   0.12158641 
  192600   -946.20383    43.983423   -902.22041    1575.3267    307.34276    2.1849127    103.68592   0.12677882 
  192700   -953.44068    43.391318   -910.04936    1554.1197    10132.019    2.2194007      91.6258   0.10934692 
  192800   -947.63987    45.484148   -902.15572    1629.0772   -4239.9249    2.1635864    93.443972   0.11999205 
  192900   -946.73221    44.488228   -902.24398     1593.407   -13512.794     2.145495     88.12633   0.12204358 
  193000   -948.05831    43.342928   -904.71538    1552.3865    11713.484    2.2095195    91.404576   0.11481156 
  193100   -955.38108    46.823007   -908.55807    1677.0303    19378.351    2.2418681    96.120102   0.11866907 
  193200   -942.38261    42.382289   -900.00032    1517.9799   -11983.545    2.1369641    95.804864   0.12551927 
  193300   -945.89704    43.158244    -902.7388    1545.7718   -10927.642    2.1500248    97.372428   0.12784603 
  193400   -947.25729    42.240657   -905.01663    1512.9071    8944.7696    2.1997855    95.890501   0.11564913 
  193500    -945.7191    49.459019   -896.26008    1771.4427    6131.9371    2.1860368     93.54852   0.11083788 
  193600   -946.55592    46.353227    -900.2027    1660.2045   -7001.9419    2.1609416    94.403873   0.12942841 
  193700   -948.45765    43.079597   -905.37805    1542.9549     -6518.53    2.1647939     99.07624   0.10922629 
  193800   -951.61632    50.968322   -900.64799    1825.5004    2915.3659    2.1879557    88.145317    0.1113118 
  193900   -944.13406    47.469511   -896.66455    1700.1857    5320.2552     2.181879    88.755594   0.11727218 
  194000   -950.44319    44.988033   -905.45516    1611.3082   -5702.2881    2.1695403    97.399291   0.11024754 
  194100   -946.45012    43.407469   -903.04265    1554.6981   -3876.9876    2.1653337    99.308902   0.11612791 
  194200   -945.95465    48.800864   -897.15379      1747.87    2911.1715    2.1809986    102.13305   0.12155713 
  194300   -950.91062    45.151299   -905.75932    1617.1558    4864.7658    2.1972603    98.899818   0.11294161 
  194400   -944.34369    39.184833   -905.15886    1403.4586   -6729.3111    2.1587858    92.553903   0.10991291 
  194500   -943.05923    42.276836   -900.78239    1514.2029   -2765.2838    2.1653345    85.965422   0.11722373 
  194600   -947.72039    42.919598    -904.8008    1537.2243    8372.9037    2.2027146    92.797951   0.11082975 
  194700   -953.36461    45.068045   -908.29656    1614.1739    2266.6265    2.1974694    92.367237   0.11835232 
  194800   -942.35355    40.736646   -901.61691    1459.0389   -4378.0496     2.154611    94.945788    0.1243475 
  194900   -943.33008    41.350548   -901.97954    1481.0267   -1258.4434    2.1684821    89.751509   0.13000628 
  195000   -952.73446    44.183931   -908.55052    1582.5082    8259.1715    2.2095682    92.633233   0.10573822 
  195100   -944.81661    44.730958   -900.08566    1602.1007    3934.7943    2.1753428    92.324133   0.11716626 
  195200    -946.4266    44.973669   -901.45293    1610.7937   -7770.4784    2.1579195    93.805055   0.12773115 
  195300   -950.80573    44.466194   -906.33954    1592.6178        -3187    2.1776537    93.554501   0.10112362 
  195400   -945.76545    42.446782   -903.31867    1520.2898    13204.244    2.2086998    89.111627   0.11644542 
  195500   -942.76514    44.765271   -897.99987    1603.3297    1772.5376    2.1692888    88.812114   0.10712645 
  195600   -944.70312    39.867534   -904.83559    1427.9105   -20179.906    2.1222243    92.122982   0.11704818 
  195700   -948.17145    45.002295   -903.16916     1611.819    2077.2849    2.1829445    93.143366   0.10167827 
  195800   -948.80353     52.87256   -895.93097    1893.7034    15718.176    2.2162464    92.989426    0.1123828 
  195900   -946.44829    44.419358   -902.02893    1590.9403   -4285.4067    2.1625832    92.761101   0.11267672 
  196000   -951.01077    44.355572   -906.65519    1588.6557   -11934.338    2.1533446    99.168437    0.1139877 
  196100    -947.5336    47.901118   -899.63248    1715.6443    2293.2757    2.1827951    93.081652   0.12352719 
  196200   -944.88212    42.733754   -902.14837    1530.5681    10125.606    2.1994316    96.311626   0.12280864 
  196300   -949.17839    41.363727   -907.81467    1481.4987   -2985.1748     2.173568    97.164003   0.11490837 
  196400   -945.19864    43.577841    -901.6208    1560.8002   -6189.3898    2.1543058    92.701375   0.10765928 
  196500   -946.46871    45.792494   -900.67622    1640.1211    4617.3322    2.1845094     93.29562   0.11568875 
  196600   -950.63663    42.357838   -908.27879    1517.1041    10456.651    2.2133583    92.786179   0.10827826 
  196700   -943.80208    43.404721   -900.39735    1554.5997   -4034.1965    2.1604962    95.497872   0.12403371 
  196800   -946.89446     45.28042   -901.61404    1621.7804   -6128.1054    2.1590985    94.446631   0.12261482 
  196900   -948.69601    42.401521   -906.29449    1518.6687    5048.8334     2.195264    100.78833   0.11279176 
  197000   -946.62915    45.843771   -900.78538    1641.9576     8910.226    2.1934248     92.07811   0.11746386 
  197100   -943.20644    43.825155   -899.38128    1569.6581   -4882.3925    2.1570126    88.937359   0.12899724 
  197200   -949.37101    43.364178   -906.00683    1553.1476    -8680.991     2.163646    91.960239   0.12593594 
  197300   -945.91068    43.538342   -902.37234    1559.3855    8299.9241    2.1938651     93.21241   0.11643426 
  197400   -945.99475    49.631895   -896.36286    1777.6345    3976.5208    2.1803239    95.565079    0.1053461 
  197500   -950.75925    45.497579   -905.26167    1629.5583   -4592.3596    2.1672392    93.800298   0.10790694 
  197600   -944.00726    40.449282   -903.55798    1448.7466   -2781.1101    2.1647395     89.66564   0.11069067 
  197700   -939.64046     42.93356    -896.7069    1537.7244    8216.9663    2.1770753    93.603638   0.12363132 
  197800   -949.49899    44.105806   -905.39318      1579.71    4207.6193    2.1907123    94.000089   0.11583758 
  197900   -949.39563     44.65443    -904.7412    1599.3598   -4361.3156    2.1683675    101.11912   0.10918201 
  198000   -943.56452    44.532424    -899.0321    1594.9899   -669.58277    2.1655322    95.157186   0.11286748 
  198100   -948.68713    41.788474   -906.89866    1496.7116    4949.2937     2.192083    95.401772   0.11858814 
  198200   -949.34604    43.743781   -905.60226    1566.7436    711.90485    2.1837758    93.115408   0.11623798 
  198300   -945.80674    45.815567   -899.99117    1640.9475   -1441.6926    2.1679246    97.539705   0.12105026 
  198400   -948.20763    42.433137    -905.7745    1519.8011    613.14477    2.1779631    92.776799   0.10833758 
  198500   -953.00922    46.320457   -906.68876    1659.0308    -413.6195     2.188422    91.535192    0.1047971 
  198600   -945.77008    46.471706   -899.29837     1664.448    681.10802    2.1707557    96.025756   0.11724659 
  198700   -950.73325    45.741433   -904.99182    1638.2923   -3745.1468    2.1749085    92.777127   0.10869301 
  198800   -950.94427    44.384323   -906.55995    1589.6855   -1180.4261    2.1852988    93.061934   0.11710966 
  198900   -945.65701    47.704666   -897.95235    1708.6081    1455.1336    2.1730838    95.157607   0.10323723 
  199000   -951.27504    47.177896   -904.09714    1689.7411   -2924.9491    2.1785105    94.021523   0.11674802 
  199100    -949.2857     43.27045   -906.01525    1549.7906   -2196.4538    2.1795637    95.492273   0.11547757 
  199200   -944.11168    46.978684   -897.13299    1682.6061   -67.052042    2.1679147    95.621706   0.13368819 
  199300   -947.57238    43.875811   -903.69657    1571.4724    4541.7019    2.1886328    90.282271   0.12166041 
  199400   -949.11936     43.86063   -905.25873    1570.9287    1792.8759    2.1829488    97.658387   0.11217001 
  199500   -945.45677    47.893701   -897.56307    1715.3787   -5673.6791    2.1576091    93.419247   0.12596349 
  199600   -947.08638    42.479419   -904.60696    1521.4587    1971.6534    2.1846588    95.833911   0.11191203 
  199700   -949.28955    44.256262   -905.03329    1585.0988    3208.2616    2.1950565     87.71362   0.12352528 
  199800   -945.40748    46.364576    -899.0429     1660.611    -1684.549    2.1694952    97.876059   0.12272708 
  199900   -949.39925    45.876667   -903.52258    1643.1358   -8754.4815    2.1594948    93.895305   0.12374465 
  200000   -949.86722    43.390324    -906.4769     1554.084    1712.0082    2.1897495    102.68789   0.11040561 
  200100   -947.44122    48.222894   -899.21832    1727.1692    7932.5724    2.1967749    94.614481   0.12651173 
  200200   -948.51218    44.659647   -903.85253    1599.5466   -3622.8533    2.1721408    98.654882   0.12502055 
  200300   -948.69714    39.847757   -908.84938    1427.2021   -8013.4903    2.1617564     101.1085   0.12033945 
  200400   -946.18096    45.413996   -900.76697    1626.5646    1490.5276    2.1807054    98.803056   0.13567852 
  200500   -945.53962     43.64998   -901.88964     1563.384    11683.007    2.2040381    93.003937   0.11105631 
  200600   -951.38913    42.855625    -908.5335    1534.9331   -2458.1953    2.1818374    93.309313   0.11801297 
  200700   -944.81265    44.885042    -899.9276    1607.6194   -12150.901    2.1481464    96.488263   0.13153582 
  200800   -948.48207    47.021772    -901.4603    1684.1493    1438.8141    2.1861595    92.760226   0.12126674 
  200900   -951.96599    46.104872   -905.86112    1651.3093    5490.1184    2.2049467    96.486182   0.12288175 
  201000   -946.20488    48.286114   -897.91877    1729.4335    -4902.135    2.1622888    98.475167   0.11940262 
  201100   -943.46807    42.598904   -900.86916    1525.7383   -1451.7636    2.1669373    92.636596    0.1227718 
  201200   -951.51102    45.961528   -905.54949    1646.1752    855.76353    2.1881269    97.176749   0.12370411 
  201300   -947.51081    48.352198   -899.15861    1731.8004    3025.7543    2.1823263    93.844299   0.10931234 
  201400   -943.12989    43.658809   -899.47108    1563.7002   -776.41673    2.1691924    91.998327    0.1357963 
  201500    -949.2419    43.158231   -906.08367    1545.7713   -3096.3596    2.1772435    94.489316   0.11406492 
  201600   -949.93223    49.439122    -900.4931    1770.7301    2805.4923    2.1843521    94.928669   0.11099224 
  201700   -948.30701    49.118123   -899.18889     1759.233   -221.25129    2.1774705    94.706745   0.13397295 
  201800   -951.91788    44.475948   -907.44194    1592.9672   -1509.9643    2.1833498    94.833664   0.10346367 
  201900   -946.04442    43.882271   -902.16215    1571.7038   -48.271838    2.1705531    94.852732   0.13205813 
  202000   -943.70625    44.061111   -899.64513    1578.1092    1475.7798    2.1724686    94.444116   0.12813944 
  202100   -947.44391    39.064676   -908.37923     1399.155    8106.3265    2.2020043    92.727909   0.11410621 
  202200   -948.90468    46.651473   -902.25321    1670.8866   -4342.6782    2.1690573    94.365335   0.11744872 
  202300   -945.09723    44.007486   -901.08974    1576.1885   -5456.3269    2.1569882     83.24173   0.13162988 
  202400   -952.23796    44.241938   -907.99602    1584.5858    3777.4567    2.2022639    93.702324   0.10829617 
  202500   -949.05823    44.952399   -904.10583    1610.0319    10642.157    2.2071993    91.548067   0.12045298 
  202600    -948.7032    47.986401    -900.7168    1718.6989   -10251.156    2.1544323    93.591974    0.1293261 
  202700   -947.05902    41.101009   -905.95801    1472.0891   -10865.465    2.1556852    95.364194   0.11134023 
  202800   -945.97491    40.799464   -905.17545    1461.2888    10649.985    2.2059007    99.546361   0.12292003 
  202900   -944.71345    47.425971   -897.28748    1698.6263    6715.6405    2.1897847    97.011471   0.12383569 
  203000   -944.61121    40.382186   -904.22902    1446.3435   -4252.1332    2.1639654    101.82972   0.12555095 
  203100   -945.74229    41.457283   -904.28501    1484.8495   -4635.9782    2.1683076    93.504633    0.1258418 
  203200   -944.00445    48.496166   -895.50828    1736.9568    2895.5263    2.1763791    95.754869   0.12148066 
Loop time of 142.665 on 1 procs for 200000 steps with 217 atoms

Performance: 363.368 ns/day, 0.066 hours/ns, 1401.881 timesteps/s
100.0% CPU use with 1 MPI tasks x no OpenMP threads

MPI task timing breakdown:
Section |  min time  |  avg time  |  max time  |%varavg| %total
---------------------------------------------------------------
Pair    | 138.1      | 138.1      | 138.1      |   0.0 | 96.80
Neigh   | 1.3857     | 1.3857     | 1.3857     |   0.0 |  0.97
Comm    | 0.90137    | 0.90137    | 0.90137    |   0.0 |  0.63
Output  | 0.068566   | 0.068566   | 0.068566   |   0.0 |  0.05
Modify  | 1.8946     | 1.8946     | 1.8946     |   0.0 |  1.33
Other   |            | 0.3135     |            |       |  0.22

Nlocal:    217 ave 217 max 217 min
Histogram: 1 0 0 0 0 0 0 0 0 0
Nghost:    951 ave 951 max 951 min
Histogram: 1 0 0 0 0 0 0 0 0 0
Neighs:    4231 ave 4231 max 4231 min
Histogram: 1 0 0 0 0 0 0 0 0 0
FullNghs:  8462 ave 8462 max 8462 min
Histogram: 1 0 0 0 0 0 0 0 0 0

Total # of neighbors = 8462
Ave neighs/atom = 38.9954
Neighbor list builds = 2330
Dangerous builds = 28
Total wall time: 0:02:25
