LAMMPS (3 Mar 2020)

# ---------- 1. Initialize simulation ----------
units metal
atom_style atomic
dimension 3
boundary p p p
read_data /home/modeler/RemLabs/Project/eval_timestep_nve_fluc/n3_T1800_timestep1.318325e-03_steps15171/20201206-084753/lammps.data
  orthogonal box = (0 0 0) to (17.469 17.469 17.469)
  1 by 1 by 1 MPI processor grid
  reading atoms ...
  217 atoms
  read_data CPU = 0.00102388 secs

pair_style meam/c
pair_coeff * * library.meam Li Si LiSi.meam Li Si
Reading potential file library.meam with DATE: 2012-06-29
Reading potential file LiSi.meam with DATE: 2020-11-07

group Li type 1
1 atoms in group Li

velocity all create 1800 3320 dist gaussian

# ---------- 2. Describe computed properties----------
compute msdli Li msd
thermo_style custom step pe ke etotal temp press density c_msdli[4]
thermo 100

# ---------- 3. Specify ensemble  ----------
#fix 1 all npt temp 1800 1800 0.06591627246825894 tchain 2 iso 1.0 1.0 1.0 pchain 2
# fix 1 all nvt temp 1800 1800 0.06591627246825894
fix 1 all nve

# ---------- 4. Run -------------
timestep 0.001318325449365179
run 15171
Neighbor list info ...
  update every 1 steps, delay 10 steps, check yes
  max neighbors/atom: 2000, page size: 100000
  master list distance cutoff = 6
  ghost atom cutoff = 6
  binsize = 3, bins = 6 6 6
  2 neighbor lists, perpetual/occasional/extra = 2 0 0
  (1) pair meam/c, perpetual
      attributes: full, newton on
      pair build: full/bin/atomonly
      stencil: full/bin/3d
      bin: standard
  (2) pair meam/c, perpetual, half/full from (1)
      attributes: half, newton on
      pair build: halffull/newton
      stencil: none
      bin: none
Per MPI rank memory allocation (min/avg/max) = 9.27 | 9.27 | 9.27 Mbytes
Step PotEng KinEng TotEng Temp Press Density c_msdli[4] 
       0   -951.04357    50.256344   -900.78722         1800   -114161.75    1.8918427            0 
     100   -927.48545    26.740086   -900.74536    957.73292   -93616.194    1.8918427  0.039114986 
     200   -926.74464    25.998205   -900.74643    931.16143   -93917.032    1.8918427  0.045049555 
     300   -929.25696    28.513393   -900.74356    1021.2463   -93962.306    1.8918427  0.055917364 
     400   -926.07206    25.336706   -900.73535    907.46891   -91945.954    1.8918427  0.014080248 
     500   -926.05466    25.312981   -900.74168    906.61919   -91742.201    1.8918427   0.16133574 
     600    -928.2723     27.51938   -900.75292    985.64439   -93910.426    1.8918427  0.031760566 
     700   -927.15447    26.405408   -900.74906    945.74597   -93226.629    1.8918427  0.062901229 
     800   -926.06466     25.32778   -900.73688    907.14923    -91861.29    1.8918427  0.042183304 
     900   -927.03665    26.290752    -900.7459    941.63938   -92192.385    1.8918427  0.018847633 
    1000   -927.61981    26.877746   -900.74207    962.66337   -94696.151    1.8918427  0.066276623 
    1100   -926.54949    25.803711   -900.74578    924.19533   -91913.622    1.8918427  0.063904443 
    1200   -926.19613    25.454534   -900.74159     911.6891   -92477.343    1.8918427  0.038843186 
    1300    -927.0909    26.350973   -900.73993     943.7963   -92030.495    1.8918427  0.033469169 
    1400   -927.59219    26.849928   -900.74226    961.66706   -92686.523    1.8918427   0.09313924 
    1500   -926.62994    25.887234   -900.74271    927.18686    -92944.46    1.8918427   0.17309338 
    1600   -926.62325     25.88278   -900.74047    927.02733   -92148.055    1.8918427 0.0046397225 
    1700   -927.32791    26.586357   -900.74156     952.2269   -91433.227    1.8918427  0.033246033 
    1800    -925.3855    24.646721   -900.73877    882.75615   -90214.513    1.8918427  0.068759816 
    1900   -927.42127    26.675321   -900.74595    955.41326   -93424.768    1.8918427   0.06797294 
    2000   -928.30858    27.558284   -900.75029    987.03778   -93894.411    1.8918427  0.067917079 
    2100   -928.12621    27.386722   -900.73949    980.89307   -92805.716    1.8918427  0.046302055 
    2200   -925.76263    25.023223   -900.73941    896.24109    -91922.62    1.8918427  0.031858619 
    2300   -926.53554    25.792639    -900.7429    923.79878   -92415.886    1.8918427 0.0044754183 
    2400   -928.51755    27.771895   -900.74566    994.68857    -94148.98    1.8918427  0.072259116 
    2500   -926.22163      25.4819   -900.73973    912.66924   -91464.935    1.8918427   0.02814356 
    2600   -927.21333    26.473439    -900.7399    948.18258   -92254.651    1.8918427  0.058780795 
    2700   -927.29415    26.554052    -900.7401    951.06983   -93043.057    1.8918427  0.028803535 
    2800   -925.63526    24.894341   -900.74092    891.62501   -91916.782    1.8918427  0.024506229 
    2900   -924.69528    23.954886   -900.74039    857.97713   -90076.428    1.8918427  0.052537362 
    3000   -927.94813    27.205739   -900.74239     974.4109   -93224.112    1.8918427   0.15192154 
    3100   -926.62026     25.87738   -900.74288     926.8339   -92373.526    1.8918427    0.2609637 
    3200   -926.18874    25.444509   -900.74423    911.33003   -92851.656    1.8918427   0.18802378 
    3300   -926.95934    26.217645    -900.7417    939.02095   -93930.664    1.8918427  0.055730172 
    3400   -926.73434    25.992974   -900.74137    930.97407   -92374.482    1.8918427  0.032606235 
    3500   -926.66503    25.920647   -900.74438    928.38358   -93675.348    1.8918427  0.038579086 
    3600    -927.1186    26.377189   -900.74141    944.73526   -94061.769    1.8918427   0.17111757 
    3700   -925.57331     24.83262   -900.74069    889.41439   -93332.469    1.8918427   0.11295627 
    3800   -927.56642    26.827839   -900.73858    960.87589   -93956.723    1.8918427  0.030932077 
    3900   -926.22565    25.488897   -900.73675    912.91984   -92438.997    1.8918427  0.048960756 
    4000   -925.44869    24.713736   -900.73495     885.1564   -93186.644    1.8918427  0.043654624 
    4100   -925.83317    25.097455   -900.73571    898.89983   -91834.864    1.8918427  0.047725651 
    4200   -928.41024    27.666283   -900.74395    990.90592    -95728.61    1.8918427   0.05305236 
    4300    -927.2662    26.527912   -900.73829    950.13359   -94406.415    1.8918427  0.051405462 
    4400   -926.55615     25.81753   -900.73862    924.69029   -93027.135    1.8918427   0.13041234 
    4500   -927.96405    27.223935   -900.74012    975.06263   -94328.576    1.8918427  0.049403953 
    4600   -928.14608    27.403601   -900.74248    981.49761    -94072.01    1.8918427  0.065484128 
    4700    -925.9493    25.213786   -900.73551    903.06638    -92817.48    1.8918427  0.052006537 
    4800   -927.24667    26.503729   -900.74294    949.26746   -94195.679    1.8918427   0.11958428 
    4900   -927.43189    26.690091    -900.7418    955.94227   -93510.145    1.8918427  0.040515424 
    5000   -925.26665    24.529607   -900.73704    878.56155   -92995.583    1.8918427  0.044334558 
    5100   -926.74317    26.001859   -900.74131    931.29229   -94187.537    1.8918427  0.017444255 
    5200   -928.81666    28.075284   -900.74137    1005.5549   -94482.548    1.8918427  0.020518838 
    5300   -925.94055    25.199254   -900.74129     902.5459   -93438.568    1.8918427  0.065598898 
    5400   -925.96313    25.223506   -900.73963    903.41453    -92650.02    1.8918427    0.1555293 
    5500   -927.31159    26.572275   -900.73932    951.72253   -94431.335    1.8918427  0.087263304 
    5600   -924.82357    24.087851   -900.73572    862.73947   -91183.345    1.8918427  0.074072821 
    5700   -927.00744    26.262892   -900.74454    940.64154   -93182.712    1.8918427  0.047191449 
    5800   -926.12627    25.384032   -900.74224    909.16398   -93239.832    1.8918427  0.075920833 
    5900   -926.79529    26.052139   -900.74315    933.09314   -92426.219    1.8918427  0.047793397 
    6000   -927.80463    27.060549   -900.74408    969.21073   -94812.303    1.8918427   0.11984914 
    6100   -928.57824     27.83624     -900.742    996.99316    -95882.05    1.8918427  0.013805118 
    6200   -927.11959    26.377114   -900.74248    944.73257   -93607.955    1.8918427  0.022599545 
    6300   -925.45973    24.721526   -900.73821    885.43541   -93590.351    1.8918427  0.017293797 
    6400   -926.47766    25.737754   -900.73991    921.83302   -93547.807    1.8918427   0.12753459 
    6500   -925.49984    24.760617   -900.73923    886.83549   -91707.672    1.8918427  0.052644229 
    6600   -925.69042    24.952472   -900.73794    893.70705   -92178.905    1.8918427 0.0069662021 
    6700    -925.9091    25.166085   -900.74301     901.3579    -92959.35    1.8918427  0.066519675 
    6800   -927.66401    26.923534   -900.74047    964.30335   -94143.767    1.8918427  0.098182906 
    6900   -927.47247    26.730077   -900.74239    957.37441    -94529.32    1.8918427  0.046678297 
    7000   -925.56644    24.832773   -900.73367    889.41986   -92599.948    1.8918427  0.036373823 
    7100   -926.32218    25.583396   -900.73878    916.30446   -93478.038    1.8918427   0.10057972 
    7200   -927.19099    26.449212   -900.74178    947.31486   -94189.279    1.8918427  0.096497223 
    7300   -928.39327    27.651868    -900.7414    990.38962   -95488.932    1.8918427  0.045645672 
    7400   -926.46178    25.722014   -900.73977    921.26925   -92784.074    1.8918427   0.14932003 
    7500   -926.30204    25.558249   -900.74379    915.40378   -93787.542    1.8918427  0.027599706 
    7600   -926.92277    26.181088   -900.74168    937.71161   -93782.078    1.8918427    0.0423902 
    7700    -924.8067     24.06995   -900.73675    862.09833   -91729.276    1.8918427 0.0091517908 
    7800   -925.95494    25.220172   -900.73477    903.29511   -92322.342    1.8918427  0.088639514 
    7900   -928.93323     28.18751   -900.74572    1009.5744   -95919.199    1.8918427  0.011910422 
    8000   -928.09558     27.35278    -900.7428    979.67739   -94965.813    1.8918427  0.043639035 
    8100   -927.58512     26.83954   -900.74558    961.29498   -94910.416    1.8918427  0.010972938 
    8200   -927.59892    26.853981   -900.74494    961.81223   -94686.019    1.8918427  0.023667749 
    8300   -928.15484     27.40822   -900.74662    981.66305   -95416.135    1.8918427 0.0083650963 
    8400     -926.053    25.315111   -900.73789    906.69549   -93413.104    1.8918427  0.058657058 
    8500   -926.62272    25.880592   -900.74212    926.94894   -94564.271    1.8918427  0.080406066 
    8600   -927.31669    26.570627   -900.74607    951.66349   -92946.185    1.8918427   0.14637252 
    8700   -926.08572    25.346147   -900.73957    907.80707   -93714.514    1.8918427   0.14410727 
    8800   -926.51864    25.780209   -900.73843     923.3536    -94217.68    1.8918427   0.02554986 
    8900   -926.50854    25.768638   -900.73991    922.93915   -92934.866    1.8918427  0.033370885 
    9000   -927.01895    26.275534   -900.74341    941.09433   -94472.125    1.8918427  0.025163974 
    9100   -925.01651    24.280507   -900.73601     869.6397   -92062.663    1.8918427  0.022456881 
    9200   -926.46289    25.721989    -900.7409    921.26835   -92711.084    1.8918427  0.059354876 
    9300   -926.38812    25.646456   -900.74166    918.56306   -93408.414    1.8918427  0.038960171 
    9400   -927.37342    26.635374   -900.73804    953.98252   -94513.022    1.8918427  0.093356633 
    9500   -927.71673    26.971411   -900.74532    966.01814   -94463.672    1.8918427   0.10879381 
    9600   -925.94241    25.202921   -900.73949    902.67724    -93451.96    1.8918427  0.011914995 
    9700   -927.14948    26.405503   -900.74398    945.74937   -93580.094    1.8918427  0.075943368 
    9800   -925.69902    24.963862   -900.73515      894.115   -92601.591    1.8918427  0.020134972 
    9900   -926.65602    25.918565   -900.73746    928.30901   -93221.672    1.8918427  0.018798537 
   10000   -926.58731    25.848283   -900.73903    925.79175   -93335.308    1.8918427  0.037628095 
   10100   -927.87243    27.126664   -900.74576    971.57872    -94507.63    1.8918427  0.068660193 
   10200   -926.92895    26.189189   -900.73976    938.00179   -93759.014    1.8918427  0.056678578 
   10300   -928.45796    27.712655    -900.7453    992.56679   -94850.235    1.8918427 0.0028189204 
   10400   -926.87473      26.1306   -900.74413    935.90334   -94107.326    1.8918427  0.050126279 
   10500   -927.63848    26.895308   -900.74317     963.2924   -94429.379    1.8918427  0.078174506 
   10600   -927.93535    27.192681   -900.74267    973.94323   -95153.861    1.8918427  0.017458696 
   10700     -927.524    26.781252   -900.74275    959.20732   -94279.805    1.8918427  0.046002674 
   10800   -926.47064    25.723756   -900.74689    921.33165   -94280.322    1.8918427  0.092645816 
   10900   -928.38865    27.647255    -900.7414     990.2244   -94777.527    1.8918427  0.092155642 
   11000   -928.17362    27.428787   -900.74483    982.39969   -95624.429    1.8918427  0.029468686 
   11100   -926.18892    25.451113   -900.73781    911.56656   -94047.224    1.8918427  0.078437673 
   11200   -929.12965    28.384478   -900.74517    1016.6291   -96015.179    1.8918427  0.038847266 
   11300   -928.53817    27.793793   -900.74438    995.47286   -95268.593    1.8918427  0.028448575 
   11400   -928.09904    27.360069   -900.73898    979.93845     -94975.1    1.8918427  0.053915407 
   11500   -926.82187    26.085843   -900.73602    934.30028   -94043.871    1.8918427  0.072127168 
   11600   -925.56986    24.831517   -900.73834     889.3749   -93339.165    1.8918427  0.032691871 
   11700   -926.82617    26.087695   -900.73848    934.36663   -93155.506    1.8918427  0.088278902 
   11800   -927.82824    27.086857   -900.74138      970.153   -93948.828    1.8918427   0.14097328 
   11900   -926.68875    25.946894   -900.74186    929.32363   -94287.487    1.8918427   0.02211064 
   12000   -927.19936    26.453897   -900.74547    947.48265   -95539.481    1.8918427   0.01751712 
   12100   -925.58192    24.838229   -900.74369    889.61529   -93846.674    1.8918427  0.043645494 
   12200   -927.17426     26.43106    -900.7432    946.66471   -93340.599    1.8918427  0.037856598 
   12300    -926.4728    25.728142   -900.74466    921.48875   -94709.369    1.8918427 0.0070392611 
   12400   -926.06826    25.327982   -900.74028    907.15646   -91679.009    1.8918427  0.059736055 
   12500   -926.80684    26.065948   -900.74089    933.58772   -94482.971    1.8918427  0.029723734 
   12600   -926.67198    25.927674   -900.74431    928.63524   -92970.959    1.8918427   0.02955657 
   12700   -928.00064    27.251453   -900.74919     976.0482   -95000.615    1.8918427   0.10967616 
   12800   -928.39009    27.642855   -900.74724    990.06683   -94792.666    1.8918427  0.053588389 
   12900    -926.7336    25.993128   -900.74047    930.97956   -92868.359    1.8918427  0.022040033 
   13000    -926.3003    25.562158   -900.73814    915.54378   -92204.104    1.8918427  0.045648223 
   13100   -927.70308    26.958894   -900.74418     965.5698   -94115.927    1.8918427  0.031829267 
   13200   -927.93045    27.187084   -900.74336    973.74274   -94376.432    1.8918427  0.064732262 
   13300   -927.95559    27.211714   -900.74388     974.6249   -93597.247    1.8918427  0.076576204 
   13400   -925.11772    24.377845   -900.73988      873.126   -91479.015    1.8918427  0.016309619 
   13500   -927.74684    27.003152   -900.74369    967.15498   -94158.189    1.8918427  0.023184923 
   13600   -925.80518    25.070032   -900.73515    897.91763   -92385.315    1.8918427  0.045156474 
   13700   -925.43341    24.694977   -900.73843     884.4845   -90029.011    1.8918427   0.11100067 
   13800   -927.12441    26.382421   -900.74199    944.92264   -91916.461    1.8918427   0.21418854 
   13900   -925.53412    24.794297   -900.73983    888.04179   -92814.212    1.8918427   0.02503206 
   14000   -926.80684    26.065042    -900.7418    933.55527   -93405.522    1.8918427   0.05727517 
   14100   -924.89007    24.152513   -900.73755    865.05543   -90662.101    1.8918427  0.028984626 
   14200   -926.46293    25.719964   -900.74296    921.19582   -92253.179    1.8918427   0.19871599 
   14300    -927.2468    26.503827   -900.74297    949.27097   -93260.221    1.8918427   0.11864607 
   14400   -926.15289    25.411967   -900.74092    910.16451   -91885.212    1.8918427   0.06101918 
   14500   -926.26623    25.526468   -900.73977     914.2655   -92433.946    1.8918427   0.10359362 
   14600   -927.55858    26.817893   -900.74069    960.51968     -94687.4    1.8918427  0.033816968 
   14700   -926.40145    25.661101   -900.74035    919.08759    -93136.05    1.8918427  0.017711961 
   14800   -926.85388    26.113187   -900.74069    935.27965   -92067.195    1.8918427  0.029238586 
   14900    -926.6955    25.952301    -900.7432    929.51729   -92861.009    1.8918427   0.07432467 
   15000   -926.84049    26.095977   -900.74451    934.66325   -94243.734    1.8918427  0.071390842 
   15100   -927.51637    26.771173   -900.74519    958.84633   -93865.767    1.8918427  0.056359113 
   15171   -926.99322    26.248293   -900.74492    940.11867    -92055.92    1.8918427  0.081626871 
Loop time of 8.02311 on 1 procs for 15171 steps with 217 atoms

Performance: 215.381 ns/day, 0.111 hours/ns, 1890.913 timesteps/s
99.9% CPU use with 1 MPI tasks x no OpenMP threads

MPI task timing breakdown:
Section |  min time  |  avg time  |  max time  |%varavg| %total
---------------------------------------------------------------
Pair    | 7.902      | 7.902      | 7.902      |   0.0 | 98.49
Neigh   | 0          | 0          | 0          |   0.0 |  0.00
Comm    | 0.063088   | 0.063088   | 0.063088   |   0.0 |  0.79
Output  | 0.0043852  | 0.0043852  | 0.0043852  |   0.0 |  0.05
Modify  | 0.032563   | 0.032563   | 0.032563   |   0.0 |  0.41
Other   |            | 0.0211     |            |       |  0.26

Nlocal:    217 ave 217 max 217 min
Histogram: 1 0 0 0 0 0 0 0 0 0
Nghost:    957 ave 957 max 957 min
Histogram: 1 0 0 0 0 0 0 0 0 0
Neighs:    3702 ave 3702 max 3702 min
Histogram: 1 0 0 0 0 0 0 0 0 0
FullNghs:  7404 ave 7404 max 7404 min
Histogram: 1 0 0 0 0 0 0 0 0 0

Total # of neighbors = 7404
Ave neighs/atom = 34.1198
Neighbor list builds = 0
Dangerous builds = 0
Total wall time: 0:00:08
