LAMMPS (3 Mar 2020)
Reading data file ...
  orthogonal box = (0 0 0) to (16.36 16.36 16.36)
  1 by 1 by 1 MPI processor grid
  reading atoms ...
  256 atoms
  read_data CPU = 0.00097263 secs
Reading potential file /usr/share/lammps-stable/potentials/Ag_u3.eam with DATE: 2007-06-11
Neighbor list info ...
  update every 1 steps, delay 10 steps, check yes
  max neighbors/atom: 2000, page size: 100000
  master list distance cutoff = 7.55
  ghost atom cutoff = 7.55
  binsize = 3.775, bins = 5 5 5
  2 neighbor lists, perpetual/occasional/extra = 1 1 0
  (1) pair eam, perpetual
      attributes: half, newton on
      pair build: half/bin/atomonly/newton
      stencil: half/bin/3d/newton
      bin: standard
  (2) compute rdf, occasional, copy from (1)
      attributes: half, newton on
      pair build: copy
      stencil: none
      bin: none
Setting up Verlet run ...
  Unit style    : metal
  Current step  : 0
  Time step     : 0.005
Per MPI rank memory allocation (min/avg/max) = 3.744 | 3.744 | 3.744 Mbytes
Step PotEng KinEng TotEng Temp Press Density c_msdall[4] 
       0       -729.6    73.174168   -656.42583         2220     17849.48    10.472245            0 
     100   -681.09246    47.945334   -633.14712    1454.5931    80325.346    10.472245   0.11207107 
     200   -661.61032    64.740376   -596.86995    1964.1308    111629.73    10.472245   0.20300954 
     300   -652.64854    83.031938   -569.61661    2519.0707    128380.59    10.472245   0.22171511 
     400   -649.72168    71.249237   -578.47245    2161.6003    128353.95    10.472245   0.29109397 
     500   -656.02547    72.190033   -583.83544    2190.1427    119936.73    10.472245    0.2066351 
     600   -656.11324    74.416016   -581.69722    2257.6759     118770.1    10.472245   0.23150883 
     700   -652.58616    75.108537   -577.47762     2278.686     123752.1    10.472245   0.26144936 
     800   -652.62472    74.063383   -578.56134    2246.9775    126356.63    10.472245   0.22204124 
     900   -656.63643    69.426475   -587.20995    2106.3003    119528.46    10.472245   0.19804537 
    1000   -657.13978    79.383063   -577.75671     2408.369    123576.17    10.472245   0.19723267 
    1100   -651.69994    73.529242    -578.1707    2230.7724    127101.21    10.472245   0.22336666 
    1200   -659.21519    77.244822   -581.97037    2343.4978    116987.08    10.472245   0.18475161 
    1300    -650.3953    68.488139   -581.90716    2077.8326    126829.51    10.472245   0.21810192 
    1400     -647.162    73.387177   -573.77483    2226.4624    132655.17    10.472245   0.23801523 
    1500   -655.81802    70.979964   -584.83806     2153.431    119674.28    10.472245   0.19444282 
    1600   -650.83695    68.481001   -582.35594     2077.616    127103.42    10.472245   0.21579059 
    1700   -647.63434    79.885497   -567.74884    2423.6122    133663.44    10.472245   0.23036925 
    1800   -654.77492    74.551849   -580.22307    2261.7969    120591.28    10.472245   0.19977247 
    1900   -659.65323    73.448284   -586.20495    2228.3163    114573.67    10.472245   0.19194113 
    2000   -650.46026    78.305131   -572.15513    2375.6661    127904.35    10.472245    0.2383321 
    2100   -653.62782    74.684474   -578.94335    2265.8205    124161.24    10.472245   0.23231151 
    2200   -652.47163    70.076421   -582.39521    2126.0188    125214.69    10.472245   0.20724485 
    2300   -656.68654    69.401444    -587.2851    2105.5409    118768.77    10.472245   0.18854619 
    2400   -658.43211    71.445408    -586.9867    2167.5519    116340.91    10.472245   0.21464199 
    2500   -653.22343     74.48024   -578.74319    2259.6243     125035.7    10.472245   0.21599374 
    2600   -658.83911    73.142812    -585.6963    2219.0487    117722.67    10.472245   0.18469317 
    2700   -658.13009    70.133234   -587.99686    2127.7424    116858.95    10.472245   0.18022848 
    2800   -653.09672    71.618988   -581.47773    2172.8181    124656.65    10.472245   0.21247671 
    2900   -651.83556    71.430752   -580.40481    2167.1072    125024.68    10.472245   0.22179164 
    3000   -657.21521    66.241993   -590.97322    2009.6877    117287.11    10.472245   0.18713832 
    3100   -651.81456    72.436627   -579.37793    2197.6241     126579.7    10.472245   0.19658862 
    3200   -654.63056    75.759659    -578.8709    2298.4401    122320.06    10.472245   0.22237552 
    3300   -654.37592    64.543129   -589.83279    1958.1466    120577.23    10.472245   0.23078317 
    3400   -658.63063    76.254004   -582.37663    2313.4378    118365.93    10.472245    0.1934066 
    3500   -653.45193    75.822589   -577.62934    2300.3493    123778.34    10.472245   0.25066324 
    3600   -648.70294    75.645206   -573.05773    2294.9678     130986.8    10.472245    0.3148788 
    3700   -646.10075    75.646657    -570.4541    2295.0118    135063.57    10.472245   0.35392774 
    3800    -656.7739    75.910843   -580.86306    2303.0268    119887.98    10.472245   0.38425261 
    3900   -652.19715    80.787134   -571.41002    2450.9665    127406.63    10.472245   0.44280437 
    4000   -649.46562    72.786592   -576.67902    2208.2415    126850.81    10.472245   0.54806178 
    4100   -660.35352    72.770646   -587.58287    2207.7577    115378.46    10.472245   0.47720057 
    4200   -656.05973    77.647442   -578.41229    2355.7128    121558.37    10.472245   0.48556542 
    4300   -649.11676    71.595967   -577.52079    2172.1196    130852.61    10.472245   0.45162657 
    4400   -658.57533    76.759105   -581.81622    2328.7619    118278.92    10.472245   0.46391957 
    4500   -657.40044     71.24425   -586.15619     2161.449    117620.24    10.472245   0.50111049 
    4600    -650.3905    75.074883   -575.31562     2277.665    129210.91    10.472245   0.49661533 
    4700   -656.84998    71.353936   -585.49604    2164.7767    118669.92    10.472245   0.43627313 
    4800   -661.53439    76.839261   -584.69513    2331.1937    114675.97    10.472245   0.40194664 
    4900   -653.42163    75.006671   -578.41496    2275.5955    122523.71    10.472245   0.49806151 
    5000   -650.38889    80.047909   -570.34098    2428.5395    129299.11    10.472245   0.50098851 
    5100   -655.53341    73.441454   -582.09195    2228.1091    121559.99    10.472245   0.47429506 
    5200   -655.59087    74.676506   -580.91437    2265.5788    121894.28    10.472245   0.47093548 
    5300   -643.77515     77.22083   -566.55432    2342.7699    137861.74    10.472245   0.49893603 
    5400   -651.95576    72.399391   -579.55637    2196.4944     125010.6    10.472245   0.46623036 
    5500   -652.59275    70.013297   -582.57946    2124.1037     124146.6    10.472245   0.49760192 
    5600   -647.28707    67.225076   -580.06199     2039.513    128942.76    10.472245   0.48207635 
    5700   -652.30719    75.469401   -576.83779    2289.6341    127280.11    10.472245   0.46397172 
    5800   -653.63709    64.714845   -588.92224    1963.3562    120118.75    10.472245   0.45762864 
    5900    -658.4034    78.185591   -580.21781    2372.0394    117298.15    10.472245   0.43339674 
    6000    -657.3403    77.710032   -579.63027    2357.6116    120043.86    10.472245   0.48410819 
    6100    -651.4616    66.152159   -585.30944    2006.9622    123555.42    10.472245   0.50557936 
    6200   -664.34655    75.113968   -589.23258    2278.8508    109177.24    10.472245   0.42540382 
    6300   -652.43945    75.219536   -577.21991    2282.0536     127259.5    10.472245   0.46763821 
    6400   -652.19338    69.307754   -582.88563    2102.6985    123391.56    10.472245   0.47475249 
    6500   -655.76959    65.796132   -589.97346    1996.1609    120923.35    10.472245   0.46324529 
    6600    -651.4016    71.161499    -580.2401    2158.9385     129313.7    10.472245   0.47160479 
    6700   -648.34754     70.34687   -578.00067    2134.2238    131447.43    10.472245   0.45265712 
    6800   -657.74006    79.255122   -578.48494    2404.4875    120811.13    10.472245   0.46119753 
    6900   -657.76186    71.639878   -586.12198    2173.4518    117574.36    10.472245   0.46241169 
    7000   -650.91339    78.298883    -572.6145    2375.4766    131258.25    10.472245   0.44984134 
    7100    -653.8897    74.333109    -579.5566    2255.1606    123424.57    10.472245    0.5495175 
    7200   -654.09895    72.993965   -581.10499    2214.5329    125112.78    10.472245   0.48413551 
    7300   -648.35584    78.612754   -569.74308    2384.9989     131477.7    10.472245   0.49040931 
    7400   -652.10236    73.204805   -578.89755    2220.9295    126077.91    10.472245   0.51718761 
    7500   -655.60241    71.307605   -584.29481    2163.3711    119543.21    10.472245   0.51053592 
    7600   -652.37489    79.239202   -573.13569    2404.0045    127761.15    10.472245   0.47609386 
    7700   -653.70472    74.414743   -579.28997    2257.6373    124040.49    10.472245   0.51604257 
    7800   -657.85734    77.312622   -580.54472    2345.5548    119705.54    10.472245    0.4492229 
    7900   -655.85514    72.841649   -583.01349    2209.9118    120070.41    10.472245   0.49111481 
    8000   -660.38405    76.852646   -583.53141    2331.5998    115642.77    10.472245   0.47493939 
    8100   -649.82888    74.309848   -575.51903    2254.4549    129764.86    10.472245   0.50757324 
    8200   -656.41384    74.855895   -581.55795    2271.0212    121076.77    10.472245   0.51024645 
    8300   -657.13582    70.023704   -587.11211    2124.4194    119299.69    10.472245   0.47046301 
    8400   -654.57529    80.541221   -574.03407    2443.5059     124528.5    10.472245    0.4529624 
    8500   -659.08702    76.812249   -582.27477    2330.3742    117063.73    10.472245   0.45992798 
    8600   -654.60095    69.428993   -585.17196    2106.3767    122642.25    10.472245   0.44653635 
    8700     -659.592    76.856741   -582.73526     2331.724    116049.38    10.472245   0.45863648 
    8800   -652.56302    77.025153   -575.53787    2336.8334    125276.09    10.472245   0.53542224 
    8900    -654.2997     71.70404   -582.59566    2175.3984    122429.53    10.472245   0.47077506 
    9000   -654.96654    71.646519   -583.32002    2173.6533    121515.35    10.472245   0.44625331 
    9100   -653.21321    78.535514    -574.6777    2382.6556    126416.22    10.472245   0.47177446 
    9200    -652.4853    64.859188   -587.62611    1967.7353    123702.13    10.472245    0.4571029 
    9300   -650.41988    65.978635   -584.44124    2001.6978    126315.46    10.472245   0.47294594 
    9400   -648.98305    75.183842    -573.7992    2280.9707    129137.01    10.472245   0.48775022 
    9500   -654.44677    75.194411   -579.25236    2281.2913    122264.53    10.472245   0.47526654 
    9600    -653.3612    70.504143   -582.85706    2138.9952    123055.34    10.472245   0.45584441 
    9700   -650.05932    73.963922    -576.0954      2243.96    126588.18    10.472245   0.48041098 
    9800   -650.37312    72.385099   -577.98802    2196.0608    126031.72    10.472245   0.52409333 
    9900   -657.72025    70.776849    -586.9434    2147.2688    117365.25    10.472245   0.46683436 
   10000   -657.61226    75.100037   -582.51222    2278.4281    120376.64    10.472245   0.44400965 
   10100   -656.62319    75.499655   -581.12354     2290.552    122188.84    10.472245   0.45395733 
   10200   -654.63467    72.974098   -581.66057    2213.9302    122691.39    10.472245   0.47387001 
   10300   -658.85123     72.40878   -586.44245    2196.7792    116714.44    10.472245   0.45930747 
   10400    -647.3261    72.893177   -574.43292    2211.4751    132027.76    10.472245   0.50659753 
   10500   -655.88375    71.473078   -584.41068    2168.3914    120089.96    10.472245   0.48271229 
   10600   -655.74895    71.172414   -584.57653    2159.2696    121263.73    10.472245   0.44952285 
   10700   -649.41795    73.164175   -576.25378    2219.6968    128791.58    10.472245   0.49556691 
   10800   -659.39144    71.696033   -587.69541    2175.1555    116212.63    10.472245   0.41629321 
   10900   -657.56866    72.573343   -584.99531    2201.7718    117637.85    10.472245   0.45778603 
   11000   -653.78378    76.221249   -577.56254    2312.4441    124334.52    10.472245   0.51675185 
   11100   -651.63937    71.482618   -580.15676    2168.6808    126548.13    10.472245   0.49955589 
   11200   -654.63378    71.969843   -582.66394    2183.4625    123210.22    10.472245   0.48106047 
   11300   -664.20042    72.541255   -591.65917    2200.7983    109416.51    10.472245   0.46003092 
   11400   -649.95728    71.967071    -577.9902    2183.3784     127968.3    10.472245   0.50422153 
   11500   -651.17253    71.611828    -579.5607    2172.6008    126773.89    10.472245    0.5079182 
   11600   -655.50318    65.604499   -589.89868     1990.347    118355.36    10.472245    0.5030813 
   11700   -652.91257     72.99951   -579.91306    2214.7011    123329.17    10.472245   0.47434216 
   11800   -651.56053    74.678728    -576.8818    2265.6462    126153.35    10.472245   0.51825297 
   11900    -655.2691     68.70849   -586.56061    2084.5177    120953.27    10.472245   0.48972167 
   12000   -660.87004    70.912278   -589.95776    2151.3775    114391.31    10.472245    0.4312324 
   12100   -657.33808    76.410238   -580.92784    2318.1777    117565.98    10.472245   0.46120659 
   12200   -649.95035     69.90071   -580.04964    2120.6879       129115    10.472245    0.5167595 
   12300   -659.05361    71.843578   -587.21004    2179.6318    117076.09    10.472245   0.44164434 
   12400   -655.43413    74.401883   -581.03225    2257.2471    120288.04    10.472245    0.4427622 
   12500   -651.37498    75.729347   -575.64564    2297.5205    126969.72    10.472245     0.489764 
   12600   -662.92372    71.571589   -591.35213      2171.38    111894.24    10.472245   0.41572138 
   12700   -654.65962    72.386482   -582.27313    2196.1027    120177.71    10.472245   0.48619503 
   12800   -659.97933    82.598449   -577.38088    2505.9193    117777.35    10.472245   0.45982128 
   12900    -658.4475    67.933648   -590.51385    2061.0101    116919.38    10.472245   0.46084561 
   13000   -655.61132    72.799016    -582.8123    2208.6184    121021.71    10.472245   0.47489628 
   13100   -656.61774    77.776287   -578.84145    2359.6217    121396.56    10.472245   0.44496801 
   13200    -660.1928    71.721002    -588.4718     2175.913    114089.83    10.472245   0.45571741 
   13300   -657.65818    70.452944   -587.20523    2137.4419     116739.1    10.472245     0.474841 
   13400   -652.14145    71.266382   -580.87507    2162.1205     127950.6    10.472245   0.48051011 
   13500   -653.06307    75.001526   -578.06155    2275.4394    122485.66    10.472245   0.50707129 
   13600   -652.03376    79.748611   -572.28515    2419.4592    127131.38    10.472245     0.498987 
   13700   -659.54771      74.2425   -585.30521    2252.4117     116424.8    10.472245   0.44874874 
   13800   -659.09496    79.237874   -579.85708    2403.9642    118605.53    10.472245   0.47179341 
   13900   -647.35174    80.311496   -567.04025    2436.5364    133925.76    10.472245   0.55049516 
   14000   -655.43142    73.099246   -582.33217     2217.727    121369.85    10.472245   0.44818569 
   14100   -654.73662    70.886054   -583.85057    2150.5819    121513.36    10.472245   0.49084312 
   14200    -649.5561    78.392248   -571.16386    2378.3091    131216.25    10.472245   0.49915577 
   14300   -650.12711    69.420281   -580.70683    2106.1124    127271.75    10.472245   0.51070741 
   14400   -658.86781    76.090697   -582.77712    2308.4833    118056.99    10.472245   0.43845103 
   14500   -653.62815     70.76312   -582.86503    2146.8522    124743.08    10.472245   0.48183372 
   14600   -648.63601    74.426155   -574.20985    2257.9835    131073.27    10.472245   0.50359729 
   14700    -657.8956      71.6691    -586.2265    2174.3384    118908.37    10.472245   0.46099883 
   14800    -652.2267    68.060785   -584.16592    2064.8672     124759.9    10.472245   0.47878254 
   14900   -657.63385    81.165315   -576.46853      2462.44    120591.73    10.472245   0.47551385 
   15000   -661.78005    79.671399   -582.10865    2417.1167    112654.88    10.472245   0.46176298 
   15100   -657.17474    74.840059   -582.33468    2270.5408    119691.64    10.472245   0.46871845 
   15200   -644.30612    72.301407   -572.00471    2193.5217    135266.59    10.472245   0.51489226 
   15300   -653.24283     69.23203    -584.0108    2100.4011    122092.48    10.472245    0.5368237 
   15400   -657.14886    74.852785   -582.29608    2270.9268    119791.55    10.472245   0.49360286 
   15500   -650.55183    70.409426    -580.1424    2136.1217    127510.17    10.472245   0.47418689 
   15600   -653.77972    69.912017    -583.8677     2121.031    121494.93    10.472245   0.48714544 
   15700   -660.65485    65.671416   -594.98344    1992.3772    111675.23    10.472245   0.41648952 
   15800   -650.93765    71.335166   -579.60249    2164.2073    125688.59    10.472245     0.468881 
   15900    -651.6876    69.908291   -581.77931    2120.9179    126646.58    10.472245   0.49981326 
   16000   -666.13706    75.484976   -590.65209    2290.1066    108145.95    10.472245   0.46344825 
   16100   -657.34032    73.879501   -583.46082    2241.3988    117873.97    10.472245   0.48940433 
   16200   -645.13805    67.605947   -577.53211    2051.0681     134016.8    10.472245   0.47799343 
   16300   -660.48232    73.795407   -586.68691    2238.8475    113923.63    10.472245   0.48210333 
   16400   -658.12436    73.936981   -584.18738    2243.1427    117548.27    10.472245   0.47142884 
   16500   -652.29564    78.372085   -573.92355    2377.6974    125862.58    10.472245   0.46444853 
   16600   -656.95338    73.161882   -583.79149    2219.6273    119896.17    10.472245   0.49191162 
   16700   -654.44693     68.74242   -585.70451    2085.5471    121390.28    10.472245   0.47921181 
   16800   -647.43584    73.357912   -574.07793    2225.5745    132200.98    10.472245   0.51495384 
   16900   -654.47092    72.386055   -582.08487    2196.0898    121675.33    10.472245   0.51247524 
   17000   -660.38873    73.732681   -586.65605    2236.9445    116011.57    10.472245   0.45689025 
   17100   -654.01136    73.939076   -580.07228    2243.2062    123750.29    10.472245   0.45102322 
   17200   -657.27913    76.742031    -580.5371    2328.2439    120949.46    10.472245    0.4561091 
   17300   -657.72844    76.707362   -581.02107    2327.1921    118572.69    10.472245   0.43977696 
   17400   -655.64369    71.074166   -584.56953    2156.2889    118241.16    10.472245   0.43988854 
   17500   -656.36875    66.886813   -589.48194    2029.2506    119705.57    10.472245   0.45469729 
   17600   -655.43305    79.850974   -575.58208    2422.5648    123378.57    10.472245    0.4350898 
   17700   -659.23011    76.505553   -582.72456    2321.0695    116302.17    10.472245    0.4570181 
   17800   -659.07292    71.534753   -587.53817    2170.2625    114346.77    10.472245   0.45629454 
   17900   -654.00864    79.676335    -574.3323    2417.2665    125200.65    10.472245   0.45608255 
   18000    -662.0229    75.943494    -586.0794    2304.0174    113082.36    10.472245    0.4120111 
   18100   -653.64221    73.565254   -580.07696     2231.865    123117.48    10.472245   0.44571384 
   18200   -648.53703    71.729728    -576.8073    2176.1778    129849.75    10.472245   0.48550599 
   18300   -656.57607     73.70364   -582.87243    2236.0634    119351.52    10.472245   0.49167926 
   18400   -650.85593    78.082773   -572.77316    2368.9201    129757.89    10.472245   0.52859108 
   18500   -656.96054    80.636253   -576.32428     2446.389    121389.05    10.472245   0.50598835 
   18600   -654.06023    72.475481   -581.58475    2198.8028    123965.55    10.472245   0.47357808 
   18700   -654.66231    79.108988   -575.55332     2400.054    123245.36    10.472245    0.4976216 
   18800   -658.16306    80.259025   -577.90404    2434.9445    120410.34    10.472245   0.47264291 
   18900   -655.97478    70.864382    -585.1104    2149.9244    118909.36    10.472245   0.40567049 
   19000    -652.3768    75.261229   -577.11557    2283.3185    125121.97    10.472245    0.4464668 
   19100   -648.58706     73.88478   -574.70228     2241.559    129562.01    10.472245   0.53970694 
   19200    -658.1266     71.24078   -586.88582    2161.3438    117417.95    10.472245   0.45097665 
   19300   -652.16497    68.503542   -583.66142    2078.2999    124339.56    10.472245   0.47611534 
   19400    -649.8006     75.21279   -574.58781    2281.8489    129491.71    10.472245   0.50210773 
   19500   -654.43453    69.240195   -585.19434    2100.6489    122151.99    10.472245   0.47704269 
   19600   -653.59712    73.986855   -579.61026    2244.6558    124263.66    10.472245   0.48842302 
   19700   -650.56089    76.100863   -574.46003    2308.7917    127694.97    10.472245    0.5028249 
   19800   -657.21255    71.588682   -585.62387    2171.8986    119346.26    10.472245   0.46795539 
   19900   -655.41014    78.158259   -577.25188    2371.2102     121817.5    10.472245   0.48863479 
   20000   -646.47699    75.355344   -571.12164    2286.1738    132156.65    10.472245   0.50277144 
   20100   -655.45551    74.608311    -580.8472    2263.5098     121061.6    10.472245   0.45269122 
   20200   -661.36908    72.849663   -588.51942     2210.155    113229.82    10.472245   0.47129896 
   20300   -648.60835    73.329437   -575.27892    2224.7106    129426.44    10.472245    0.5009671 
   20400   -653.87794    72.798088   -581.07985    2208.5903    123329.21    10.472245   0.44301209 
   20500   -653.43956    65.318217   -588.12135    1981.6616    122877.44    10.472245   0.44042875 
   20600   -652.53135    71.770145    -580.7612    2177.4039     122299.6    10.472245   0.46458156 
   20700    -655.0612    74.470093   -580.59111    2259.3165    121515.92    10.472245   0.48528433 
   20800   -650.42675    68.211818   -582.21493    2069.4494    126461.79    10.472245   0.44651473 
   20900    -656.0148    72.100652   -583.91415     2187.431    119608.33    10.472245   0.48747053 
   21000   -651.94054    76.132029   -575.80851    2309.7373    127428.14    10.472245   0.48568355 
   21100   -657.91557    73.035574      -584.88    2215.7952    118895.76    10.472245   0.45520577 
   21200   -661.59068    75.616132   -585.97454    2294.0857    114041.39    10.472245   0.44027431 
   21300   -657.05681     77.76707   -579.28974    2359.3421    120131.19    10.472245   0.48007415 
   21400   -652.22535    71.594445   -580.63091    2172.0734    125118.87    10.472245   0.47102444 
   21500   -659.03501    69.322871   -589.71214    2103.1571    114814.05    10.472245   0.46107149 
   21600   -661.86324     74.18673   -587.67651    2250.7197    113384.71    10.472245   0.41770865 
   21700   -653.24025     75.62368   -577.61657    2294.3147    125421.05    10.472245   0.46365645 
   21800   -654.30304    69.360095   -584.94295    2104.2865    123442.48    10.472245   0.44170455 
   21900   -659.67195    71.416422   -588.25552    2166.6725    114225.31    10.472245   0.45575531 
   22000   -653.64938    73.399046   -580.25033    2226.8225    123312.82    10.472245   0.51031121 
   22100     -647.966    72.323025   -575.64297    2194.1775     130359.8    10.472245   0.47211817 
   22200   -654.40829    71.129105   -583.27919    2157.9557    122505.26    10.472245   0.45386305 
   22300   -651.94685    67.216569   -584.73028    2039.2549    124217.01    10.472245   0.45196608 
   22400    -654.0877    76.852912   -577.23479    2331.6078    124227.04    10.472245   0.46938045 
   22500   -652.86635    71.944336   -580.92201    2182.6887    123283.71    10.472245   0.48375316 
   22600    -650.4894    66.897983   -583.59141    2029.5895    126268.88    10.472245   0.49613127 
   22700   -663.97624    74.056988   -589.91925    2246.7835    110101.55    10.472245   0.45735571 
   22800   -647.66854    68.624596   -579.04394    2081.9725    130836.83    10.472245   0.51602559 
   22900   -652.24782    73.485749   -578.76207    2229.4529    125393.62    10.472245    0.4590023 
   23000   -662.09842    76.395124    -585.7033    2317.7192    114143.97    10.472245   0.40248114 
   23100   -646.85068    76.739087    -570.1116    2328.1546    132257.37    10.472245   0.48545259 
   23200   -650.99385    69.211589   -581.78227     2099.781    127458.84    10.472245   0.49876509 
   23300   -664.33064    78.381803   -585.94884    2377.9922    110316.33    10.472245   0.42930697 
   23400   -653.29123    75.281398   -578.00984    2283.9303    126139.51    10.472245   0.46300857 
   23500   -652.72075    77.437301   -575.28345    2349.3374    126293.27    10.472245   0.50774074 
   23600   -659.92529    70.845372   -589.07991    2149.3477    113658.88    10.472245   0.45963283 
   23700   -655.81703    73.545912   -582.27112    2231.2782    119717.18    10.472245   0.48379903 
   23800   -657.09716    79.494266   -577.60289    2411.7428    120549.92    10.472245    0.4965392 
   23900   -654.37497    74.111737   -580.26323    2248.4445    122408.41    10.472245   0.48034466 
   24000   -658.94096    76.283911   -582.65705    2314.3452    118388.79    10.472245    0.5045768 
   24100   -648.74358    76.808206   -571.93537    2330.2515    130450.98    10.472245   0.58275023 
   24200   -653.65681    68.264749   -585.39207    2071.0552    122373.23    10.472245   0.46855979 
   24300   -654.58828     73.01723   -581.57105    2215.2387    122966.23    10.472245   0.44523803 
   24400   -649.82397    73.124004   -576.69997    2218.4781    128817.51    10.472245   0.50354422 
   24500   -655.77617    67.545874    -588.2303    2049.2456    120050.93    10.472245   0.49142036 
   24600   -654.74696    74.499079   -580.24788    2260.1959    121672.12    10.472245   0.46525211 
   24700   -648.73416     74.15333   -574.58083    2249.7064    130871.78    10.472245   0.47295064 
   24800   -663.09531    73.244528   -589.85078    2222.1346    111105.01    10.472245   0.44062541 
   24900   -647.87046    69.346057    -578.5244    2103.8606    130757.91    10.472245   0.51946053 
   25000   -655.44558    77.313654   -578.13192    2345.5861    123670.94    10.472245   0.48457687 
   25100   -662.89848    72.450098   -590.44839    2198.0327    111031.32    10.472245   0.41451352 
   25200     -647.871    68.201683   -579.66932    2069.1419     129460.1    10.472245   0.45985032 
   25300   -659.54382    77.032588   -582.51123     2337.059    118055.78    10.472245   0.42528229 
   25400   -661.80748    70.169074   -591.63841    2128.8297     110645.4    10.472245   0.42847758 
   25500   -657.54203    78.421292   -579.12074    2379.1903    118627.53    10.472245   0.49841766 
   25600   -654.48727    75.283527   -579.20374    2283.9949    122380.26    10.472245   0.51134445 
   25700   -660.58706    71.168383   -589.41867    2159.1474    114763.51    10.472245   0.46460481 
   25800    -657.2655    74.626689   -582.63881    2264.0674    118494.24    10.472245   0.45744722 
   25900   -658.10461    79.098174   -579.00643    2399.7259    120210.24    10.472245    0.4726976 
   26000   -661.33412    73.048694   -588.28543    2216.1933    112965.59    10.472245   0.41450737 
   26100   -654.19939     69.17069    -585.0287    2098.5402    122947.05    10.472245   0.42145838 
   26200   -653.34777    74.825788   -578.52198    2270.1078     124207.6    10.472245   0.48642269 
   26300   -657.22497    71.667155   -585.55782    2174.2794    117638.89    10.472245   0.52261292 
   26400   -654.48108     67.41759   -587.06349    2045.3536    121372.48    10.472245   0.52082686 
   26500   -651.78331    77.080291   -574.70302    2338.5062    126766.17    10.472245   0.48108863 
   26600   -663.21121    77.524929   -585.68628    2351.9959    111713.74    10.472245   0.43775351 
   26700    -654.6991    69.068196    -585.6309    2095.4307    121169.69    10.472245   0.46771328 
   26800   -655.12721    76.422181   -578.70503    2318.5401    122130.98    10.472245   0.46878644 
   26900   -656.60719    71.049754   -585.55744    2155.5483    119315.18    10.472245   0.44385515 
   27000   -651.95337    66.894043   -585.05932      2029.47    123024.94    10.472245   0.46014085 
   27100   -651.48582    74.170554   -577.31526    2250.2289    126153.21    10.472245   0.49483533 
   27200    -655.9127    73.019232   -582.89347    2215.2995    118620.11    10.472245   0.50189371 
   27300   -654.17147    70.090061   -584.08141    2126.4326    123276.85    10.472245   0.47052583 
   27400   -651.72142    71.011901   -580.70952    2154.3999    126509.98    10.472245   0.47076046 
   27500   -647.89643    79.971028    -567.9254     2426.207    133199.92    10.472245   0.50266419 
   27600   -658.79466    76.772419   -582.02224    2329.1658    117519.88    10.472245    0.4817155 
   27700   -656.95795    74.456305   -582.50164    2258.8982    119891.39    10.472245   0.43475303 
   27800    -647.2465    73.333107   -573.91339     2224.822    133126.78    10.472245   0.48819704 
   27900    -653.3419    73.920225   -579.42168    2242.6343    124251.22    10.472245   0.49520749 
   28000   -659.09655    73.538855   -585.55769    2231.0641    115722.81    10.472245   0.46944083 
   28100   -650.89508    75.104683   -575.79039    2278.5691    127614.51    10.472245   0.48344081 
   28200   -654.02935    76.857771   -577.17158    2331.7553    124528.28    10.472245   0.49823376 
   28300   -655.31788     69.22199   -586.09589    2100.0966    120220.39    10.472245   0.44456233 
   28400   -656.20008    80.958055   -575.24203     2456.152    121920.78    10.472245   0.47662256 
   28500   -660.23795    75.790885   -584.44706    2299.3875    116191.42    10.472245    0.4449144 
   28600    -655.1866     71.26096   -583.92564     2161.956    120636.81    10.472245   0.46288743 
   28700   -656.80291    82.912923   -573.88999      2515.46    122142.82    10.472245   0.43864282 
   28800   -660.38867    73.411855   -586.97682    2227.2111    115125.43    10.472245   0.43139757 
   28900   -655.65575    71.833179   -583.82257    2179.3163    120178.76    10.472245   0.48100584 
   29000   -647.25129    74.600136   -572.65115    2263.2618    132638.31    10.472245   0.48300363 
   29100   -651.35722    71.257504   -580.09971    2161.8512    127815.42    10.472245   0.47938294 
   29200   -650.56586    67.807275   -582.75859    2057.1761    126333.26    10.472245    0.5091965 
   29300   -655.46539    69.818027   -585.64736    2118.1795    119211.18    10.472245   0.47429276 
   29400   -650.67311    76.556134   -574.11697     2322.604    128787.58    10.472245   0.51025637 
   29500   -656.72387    74.063031   -582.66084    2246.9668    119235.15    10.472245   0.48626663 
   29600   -658.18686    74.711342   -583.47551    2266.6357    117914.82    10.472245   0.44066321 
   29700   -643.85697    69.672253   -574.18471    2113.7569    135217.38    10.472245   0.50013401 
   29800   -653.97551    74.858106    -579.1174    2271.0883    122246.74    10.472245    0.4511994 
   29900   -657.33334      70.9204   -586.41294    2151.6239     117202.4    10.472245   0.49033361 
   30000   -653.33295    78.137514   -575.19543    2370.5808    124976.11    10.472245    0.4752064 
   30100   -651.36502    69.585234   -581.77979    2111.1168    125724.97    10.472245   0.43693103 
   30200   -661.95269    66.377717   -595.57497    2013.8054    110654.04    10.472245   0.44740685 
   30300   -655.60111     74.88345   -580.71766    2271.8572    120024.93    10.472245   0.46098027 
   30400   -649.59441    71.151419   -578.44299    2158.6327    128968.46    10.472245   0.49708929 
   30500   -656.08798    66.353878    -589.7341    2013.0821     118076.7    10.472245   0.50600096 
   30600   -651.98706    68.822935   -583.16412    2087.9898    125390.06    10.472245   0.48673534 
   30700   -651.28785    71.226839   -580.06101    2160.9208    126735.13    10.472245   0.50591574 
   30800   -651.73852    72.488727    -579.2498    2199.2047    125453.69    10.472245   0.47611678 
   30900   -650.73689     68.22219    -582.5147    2069.7641    127488.69    10.472245   0.54623527 
   31000   -659.67199    77.906799   -581.76519    2363.5813    115822.87    10.472245    0.4763772 
   31100   -654.65181    84.105245   -570.54657    2551.6333    125493.68    10.472245   0.47888789 
   31200   -653.41684    72.257394   -581.15944    2192.1864    122675.55    10.472245   0.53109318 
   31300   -651.47234    70.932745    -580.5396    2151.9984    126172.44    10.472245   0.52190119 
   31400   -649.51707    78.448781   -571.06829    2380.0242    132325.18    10.472245   0.52285424 
   31500   -652.00116     71.85584   -580.14532    2180.0038    126348.08    10.472245   0.52616011 
   31600   -654.72967    67.786704   -586.94296     2056.552    120734.33    10.472245   0.50942534 
   31700   -645.75441    73.982411     -571.772    2244.5209    134704.13    10.472245   0.50191359 
   31800   -655.32645    78.928914   -576.39753    2394.5908    123367.78    10.472245   0.47451953 
   31900   -659.61887    76.477667    -583.1412    2320.2235    118827.82    10.472245   0.47911544 
   32000   -658.96572    71.116201   -587.84952    2157.5642    114930.65    10.472245   0.42195645 
   32100   -653.63259    74.219947   -579.41264    2251.7274     123628.5    10.472245   0.46702675 
   32200   -651.56208    73.226798   -578.33528    2221.5967    126337.79    10.472245    0.4798972 
   32300   -657.74962    67.090797   -590.65883    2035.4392    117070.96    10.472245   0.47576745 
   32400    -657.6168     76.02105   -581.59575    2306.3703     120433.6    10.472245   0.45653323 
   32500   -654.32403    73.611899   -580.71214    2233.2801    123075.58    10.472245   0.46652517 
   32600   -655.54097     68.97994   -586.56103    2092.7531    120561.25    10.472245   0.46201644 
   32700   -654.15879    69.190567   -584.96823    2099.1432    122824.84    10.472245   0.43860458 
   32800   -649.26235    75.259147    -574.0032    2283.2553    127268.49    10.472245    0.5403335 
   32900   -658.21122    70.266537   -587.94469    2131.7866    116620.26    10.472245   0.55260145 
   33000   -651.73988    70.076646   -581.66323    2126.0256    123430.04    10.472245   0.52835319 
   33100   -647.54334     69.96957   -577.57377     2122.777    129933.49    10.472245    0.5238372 
   33200   -657.22429    72.773955   -584.45034    2207.8581    119198.98    10.472245   0.49271906 
   33300    -659.9263    72.683476   -587.24282    2205.1131    114230.29    10.472245   0.44897058 
   33400   -650.55594    74.320967   -576.23497    2254.7922    127465.32    10.472245   0.48016026 
   33500   -655.62257    72.483135   -583.13944    2199.0351    119169.19    10.472245   0.45419652 
   33600   -654.78586    73.700243   -581.08561    2235.9604    123633.25    10.472245   0.45610426 
   33700   -644.22788    72.361614   -571.86627    2195.3483    134176.18    10.472245   0.53900387 
   33800   -651.02888    75.657442   -575.37144     2295.339    125590.16    10.472245   0.50144111 
   33900   -654.93597    70.172976     -584.763    2128.9481    119952.46    10.472245   0.46410172 
   34000   -652.25539    76.255133   -576.00026    2313.4721    126051.59    10.472245   0.50169517 
   34100   -648.46412    71.924252   -576.53987    2182.0793    130020.05    10.472245   0.51506018 
   34200   -653.10132    71.621287   -581.48003    2172.8878    123018.35    10.472245   0.48689514 
   34300   -652.88346    70.603018   -582.28044     2141.995    125287.98    10.472245   0.47577642 
   34400   -656.57384    72.663532   -583.91031     2204.508     120689.5    10.472245   0.44761239 
   34500   -664.87126    68.002251     -596.869    2063.0914    107671.63    10.472245   0.43369902 
   34600   -657.58334    72.991165   -584.59217     2214.448    118804.34    10.472245   0.45016107 
   34700   -653.62485    75.469508   -578.15534    2289.6374    124301.34    10.472245   0.48661366 
   34800   -655.71821    72.339782   -583.37843    2194.6859    121410.21    10.472245   0.46347416 
   34900   -656.62916    69.840662    -586.7885    2118.8662    118989.59    10.472245   0.43400727 
   35000   -652.88353    77.005925   -575.87761    2336.2501    125704.56    10.472245   0.47429157 
   35100   -653.86736    76.379038   -577.48832    2317.2312    122789.42    10.472245   0.46537951 
   35200   -662.15724    75.983815   -586.17342    2305.2407    113388.08    10.472245   0.45052619 
   35300   -658.79355    66.075223   -592.71833    2004.6281    115342.08    10.472245   0.47886551 
   35400   -647.96167    68.958664   -579.00301    2092.1076    129026.67    10.472245   0.50527157 
   35500   -654.48316    74.188565    -580.2946    2250.7754    122239.63    10.472245   0.48256348 
   35600   -654.09191    62.331135   -591.76077    1891.0378    121219.41    10.472245   0.47944054 
   35700   -652.10188    76.463019   -575.63886     2319.779    125852.43    10.472245   0.48878732 
   35800   -657.59238     73.77505   -583.81733    2238.2299    116900.04    10.472245    0.4710933 
   35900   -655.08081    67.545051   -587.53576    2049.2206    120326.72    10.472245   0.45004556 
   36000   -651.39641    77.002131   -574.39428    2336.1349    126575.62    10.472245   0.45153024 
   36100   -657.57637    73.774454   -583.80192    2238.2118    118518.18    10.472245   0.46513228 
   36200   -660.01235    75.765531   -584.24682    2298.6183    116290.37    10.472245   0.44788508 
   36300    -653.9475    74.327627   -579.61987    2254.9943    123774.07    10.472245   0.47425395 
   36400   -657.30967    68.482914   -588.82675     2077.674    117859.86    10.472245    0.4592174 
   36500   -661.17588    74.838921   -586.33696    2270.5062    114301.68    10.472245   0.43739824 
   36600   -650.74551    72.004159   -578.74135    2184.5036    126890.48    10.472245   0.48997737 
   36700   -655.11138    69.631521   -585.47986    2112.5211    121590.01    10.472245   0.45677506 
   36800   -662.22641    72.264788   -589.96162    2192.4107    111013.56    10.472245    0.4382737 
   36900   -650.46227    68.068772    -582.3935    2065.1096    125992.18    10.472245   0.53102814 
   37000   -649.37068    73.321624   -576.04905    2224.4736    129840.36    10.472245   0.50609558 
   37100   -655.74565    72.821151    -582.9245      2209.29    121538.45    10.472245   0.47268303 
   37200   -657.36738    70.594666   -586.77271    2141.7416    118297.61    10.472245   0.46455621 
   37300   -651.36939    77.472266   -573.89712    2350.3982    128778.24    10.472245   0.53516881 
   37400   -654.77356    76.025537   -578.74803    2306.5065    122793.73    10.472245   0.48285164 
   37500   -658.05724    69.892923   -588.16432    2120.4517    117081.63    10.472245    0.4507265 
   37600   -651.70199    78.311198   -573.39079    2375.8502    126901.64    10.472245   0.48661492 
   37700   -653.03868     74.14916   -578.88952    2249.5799    124829.11    10.472245   0.47847884 
   37800   -654.94247    68.815489   -586.12698    2087.7639    120839.66    10.472245   0.44222603 
   37900   -659.98878    77.706656   -582.28213    2357.5092    116781.59    10.472245   0.43003117 
   38000   -649.36657    65.944193   -583.42238    2000.6529     126943.3    10.472245   0.47550033 
   38100   -656.17498    72.998014   -583.17696    2214.6557     121054.2    10.472245   0.43669219 
   38200   -650.80536    71.338541   -579.46682    2164.3097    127383.34    10.472245   0.48364548 
   38300   -655.20865    75.053557   -580.15509     2277.018    124151.53    10.472245   0.45871716 
   38400   -658.58129    70.571202   -588.01008    2141.0297    118139.01    10.472245   0.46008186 
   38500   -650.47881    73.641138   -576.83767    2234.1672     128878.1    10.472245   0.48424468 
   38600   -651.69375    75.582605   -576.11114    2293.0685    126726.34    10.472245   0.45653368 
   38700   -654.51159     69.39272   -585.11887    2105.2762    121170.21    10.472245   0.48456168 
   38800   -648.34076    71.798891   -576.54186     2178.276    128220.37    10.472245   0.49618995 
   38900   -649.99201    74.795555   -575.19645    2269.1906    128485.75    10.472245   0.48792641 
   39000   -651.68057    68.479818   -583.20075    2077.5801     125166.8    10.472245   0.46168401 
   39100   -650.99403    71.318761   -579.67527    2163.7096    126542.25    10.472245   0.48069514 
   39200   -639.67162    71.136861   -568.53476     2158.191    140337.28    10.472245   0.50903003 
   39300   -657.43715    72.661625   -584.77553    2204.4502     118623.7    10.472245   0.48666108 
   39400    -651.7164    72.538679   -579.17772    2200.7202    125681.01    10.472245    0.4686497 
   39500   -658.54273    81.125151   -577.41758    2461.2215    117593.44    10.472245   0.50811974 
   39600   -656.36571    68.988386   -587.37733    2093.0093    119034.69    10.472245   0.48780666 
   39700   -655.34217     75.03449   -580.30768    2276.4395    122547.07    10.472245   0.47389541 
   39800    -649.6868    78.051643   -571.63516    2367.9756    129835.18    10.472245   0.46445998 
   39900   -653.22463    74.669073   -578.55555    2265.3533    124808.73    10.472245   0.49964008 
   40000   -654.73444    68.618524   -586.11592    2081.7883    119826.39    10.472245   0.45850719 
   40100   -654.00579    80.003306   -574.00249    2427.1863    124037.32    10.472245   0.47732574 
   40200   -652.31523     74.78868   -577.52655     2268.982    127307.57    10.472245   0.46081439 
   40300   -652.61224    69.465609   -583.14663    2107.4876    123933.98    10.472245    0.4600585 
   40400   -657.70394    75.247387   -582.45655    2282.8985    119445.58    10.472245    0.4864913 
   40500   -653.55921    81.066832   -572.49238    2459.4522    124690.09    10.472245   0.45995056 
   40600   -657.64583    72.169943   -585.47588    2189.5332    117462.58    10.472245   0.47985971 
   40700   -654.37731    72.172504   -582.20481    2189.6109    123430.07    10.472245   0.45943008 
   40800   -646.24066    79.543469   -566.69719    2413.2355    134158.05    10.472245   0.50333106 
   40900   -646.33132    70.719061   -575.61226    2145.5155    130800.05    10.472245   0.55657564 
   41000   -657.75254    73.773363   -583.97917    2238.1787    116602.65    10.472245   0.48957087 
   41100   -658.08884    74.381972   -583.70686    2256.6431    117764.03    10.472245   0.44444437 
   41200   -650.18206    76.449952   -573.73211    2319.3826    127465.37    10.472245   0.51244206 
   41300    -655.3533    68.859122   -586.49418    2089.0876    120255.08    10.472245   0.46906281 
   41400   -652.25246    68.145265   -584.10719    2067.4302    124696.54    10.472245   0.48420845 
   41500   -654.66483    77.013672   -577.65116    2336.4851     123239.1    10.472245   0.46162318 
   41600   -650.75345    68.959599   -581.79385     2092.136    125968.81    10.472245    0.4809424 
   41700   -658.54955    71.886956   -586.66259    2180.9478    116728.73    10.472245   0.47612893 
   41800   -661.08376    67.367811   -593.71595    2043.8434    112887.07    10.472245   0.46226742 
   41900   -655.23262    74.641357   -580.59126    2264.5124    121589.92    10.472245   0.46496361 
   42000   -655.75828    72.383573   -583.37471    2196.0145    120669.95    10.472245   0.45121782 
   42100   -658.07474    67.044204   -591.03053    2034.0256    117405.11    10.472245   0.47997173 
   42200   -652.91869    74.054008   -578.86468    2246.6931    124954.74    10.472245   0.47448154 
   42300   -651.74935    74.308686   -577.44066    2254.4196    127655.07    10.472245   0.47335458 
   42400   -660.02003    68.985945   -591.03409    2092.9353    114964.75    10.472245   0.45664054 
   42500   -656.12606    72.180258    -583.9458    2189.8462    119904.55    10.472245   0.48120198 
   42600   -653.27901    72.827259   -580.45175    2209.4753    124038.44    10.472245   0.49946977 
   42700   -648.85331    68.618569   -580.23474    2081.7896    128746.71    10.472245   0.52657788 
   42800    -655.2164    73.638326   -581.57807    2234.0819    120870.35    10.472245   0.46794305 
   42900   -655.32969    69.891131   -585.43856    2120.3973    120024.34    10.472245    0.4687409 
   43000   -650.30194    76.932562   -573.36938    2334.0243    129810.11    10.472245   0.50423852 
   43100    -651.3194    67.066052   -584.25335    2034.6885    126023.73    10.472245    0.5265519 
   43200   -653.91559    69.020727   -584.89486    2093.9905    122947.64    10.472245    0.4596875 
   43300   -656.77576    77.402996   -579.37276    2348.2966    121691.59    10.472245   0.46666042 
   43400   -656.88111    66.504755   -590.37635    2017.6595    117232.09    10.472245   0.46918823 
   43500   -653.84179    70.377947   -583.46385    2135.1666    121490.86    10.472245    0.4895187 
   43600   -652.45889    73.982791    -578.4761    2244.5325    125040.21    10.472245   0.50804295 
   43700   -654.71309    69.458565   -585.25452    2107.2739     120884.3    10.472245   0.49412711 
   43800   -658.63166    65.612678   -593.01898    1990.5952    116019.09    10.472245   0.40820046 
   43900   -654.30797    75.453042   -578.85493    2289.1378    123369.32    10.472245   0.47242739 
   44000   -651.57426    72.504188   -579.07007    2199.6738    125690.56    10.472245   0.49994748 
   44100    -660.7889    70.875663   -589.91324    2150.2666    114791.75    10.472245     0.472293 
   44200   -653.50702    76.216209   -577.29081    2312.2912    125710.73    10.472245   0.46038007 
   44300   -651.71114    71.604065   -580.10707    2172.3653     125622.3    10.472245   0.49388872 
   44400   -659.24254    70.738431   -588.50411    2146.1032    116945.36    10.472245   0.45114252 
   44500   -659.53643     73.83038   -585.70605    2239.9085    115076.58    10.472245   0.43047577 
   44600   -652.81606    72.534738   -580.28132    2200.6006    125436.52    10.472245   0.44484057 
   44700   -655.72435    67.769365   -587.95499     2056.026    119086.86    10.472245   0.47045113 
   44800   -659.25907     69.58143   -589.67764    2111.0015    116006.28    10.472245   0.46948252 
   44900   -653.42577     75.65967    -577.7661    2295.4066    124443.73    10.472245   0.47713186 
   45000   -657.03894    74.523835    -582.5151     2260.947    120467.28    10.472245   0.45580043 
   45100   -659.02107    68.198977   -590.82209    2069.0598    115500.53    10.472245   0.49014887 
   45200    -653.9387    72.031714   -581.90699    2185.3396    124970.44    10.472245    0.4878458 
   45300    -651.3169    67.998569   -583.31833    2062.9797    125164.93    10.472245   0.50096987 
   45400   -658.00254    67.384467   -590.61807    2044.3487    117821.98    10.472245   0.49491079 
   45500   -651.21552     73.40187   -577.81365    2226.9082    127222.05    10.472245   0.50415426 
   45600   -655.75892    76.600179   -579.15874    2323.9403    120991.82    10.472245   0.49199525 
   45700   -662.89266    73.069002   -589.82365    2216.8094    110925.28    10.472245   0.44255498 
   45800   -650.22341    69.715054   -580.50836    2115.0554    128673.38    10.472245   0.40703889 
   45900    -653.6156    71.419899    -582.1957     2166.778    124337.57    10.472245   0.43895211 
   46000   -653.72027    66.712686   -587.00758    2023.9679    121642.87    10.472245   0.45501273 
   46100   -659.40778    75.521946   -583.88583    2291.2282    117459.64    10.472245   0.47659682 
   46200   -653.73071    79.213487   -574.51722    2403.2243    123792.56    10.472245   0.43550556 
   46300   -657.11448    67.009459   -590.10502    2032.9715    118154.85    10.472245   0.46413772 
   46400   -657.51702    72.263111   -585.25391    2192.3598    117256.44    10.472245   0.41476455 
   46500   -648.60094    71.315167   -577.28577    2163.6006    129007.42    10.472245   0.53961885 
   46600   -650.77998    75.108972   -575.67101    2278.6992    128646.98    10.472245   0.49421621 
   46700   -664.15615    77.581819   -586.57433    2353.7219    111442.43    10.472245   0.39613143 
   46800   -652.58639    74.909334   -577.67705    2272.6425    125113.63    10.472245   0.45030498 
   46900    -652.2677    72.292323   -579.97537    2193.2461    124866.49    10.472245   0.50607285 
   47000   -661.80461    71.408191   -590.39642    2166.4228    113069.45    10.472245   0.43335332 
   47100   -649.76699     71.53439   -578.23259    2170.2515    128883.99    10.472245   0.49010626 
   47200   -653.75423    74.462896   -579.29133    2259.0982    123396.66    10.472245   0.48109348 
   47300   -663.92018    73.052889   -590.86729    2216.3206    109398.12    10.472245   0.46394508 
   47400   -654.56663    68.173316   -586.39331    2068.2813    121004.99    10.472245    0.5290398 
   47500   -654.84909    73.785394    -581.0637    2238.5437    121931.82    10.472245   0.48583126 
   47600   -649.25242    71.185107   -578.06731    2159.6547    128396.01    10.472245   0.46485409 
   47700   -656.61039    71.259355   -585.35104    2161.9073     119719.6    10.472245   0.46866119 
   47800   -661.34177    74.110344   -587.23142    2248.4022    114691.21    10.472245    0.4417711 
   47900   -653.55795    79.623653    -573.9343    2415.6682    124625.41    10.472245   0.42888755 
   48000   -660.77571    78.135067   -582.64064    2370.5066    113883.15    10.472245   0.46471311 
   48100   -661.29244    69.167969   -592.12447    2098.4576    112579.88    10.472245   0.44019967 
   48200   -663.62008    72.455774   -591.16431    2198.2049    108811.38    10.472245   0.42711447 
   48300   -657.24717    77.239512   -580.00766    2343.3367    120206.93    10.472245   0.46392322 
   48400   -656.31361    76.357353   -579.95625    2316.5733    120257.34    10.472245   0.49046948 
   48500   -653.73038    64.661351   -589.06903    1961.7333    120876.68    10.472245   0.48161259 
   48600   -655.43228    75.889113   -579.54317    2302.3676     120143.8    10.472245   0.46078789 
   48700   -653.11773    75.848082   -577.26964    2301.1227    125436.01    10.472245   0.47762552 
   48800   -655.35515    69.223189   -586.13196    2100.1329    119259.21    10.472245   0.53764002 
   48900   -660.31014    70.069045   -590.24109     2125.795    114313.78    10.472245   0.45739146 
   49000   -652.35275    70.781516   -581.57124    2147.4103    123542.89    10.472245   0.45158239 
   49100   -658.67641    76.274138   -582.40227    2314.0487    117881.41    10.472245   0.46276154 
   49200   -664.22148    72.325849   -591.89563    2194.2632    109636.68    10.472245   0.44154636 
   49300   -654.60279    74.926178   -579.67661    2273.1535    124097.09    10.472245   0.50466183 
   49400   -658.05155    79.009708   -579.04184     2397.042    118412.97    10.472245   0.49463556 
   49500   -654.61704    65.202735   -589.41431    1978.1581    120037.57    10.472245   0.52205606 
   49600   -651.94877    72.939181   -579.00959    2212.8708     125933.1    10.472245   0.48579419 
   49700   -655.27312    75.526468   -579.74665    2291.3654    122840.76    10.472245   0.45004979 
   49800      -661.42    70.137274   -591.28273     2127.865    112496.45    10.472245   0.47068197 
   49900   -658.32798    68.352213   -589.97577    2073.7088    116757.76    10.472245   0.49780329 
   50000   -653.59295    73.568835   -580.02411    2231.9736    122952.89    10.472245   0.44954065 
   50100   -650.64802    71.825138   -578.82289    2179.0723    128842.75    10.472245   0.44933408 
   50200   -661.36926    72.260338   -589.10892    2192.2757    114978.17    10.472245   0.44424396 
   50300   -654.16166    78.291639   -575.87002    2375.2568    123585.93    10.472245   0.46148366 
   50400   -656.28611    74.169807   -582.11631    2250.2063    118248.25    10.472245    0.4555725 
   50500   -654.20231    68.813574   -585.38874    2087.7058    120310.11    10.472245   0.47269144 
   50600   -648.64648    75.771636   -572.87484    2298.8035    130941.43    10.472245   0.45907804 
   50700   -654.15075    71.221495   -582.92925    2160.7587    123327.77    10.472245    0.4605075 
   50800   -658.27368    73.150889   -585.12279    2219.2938    117696.35    10.472245   0.44589551 
   50900   -656.37441    74.191003    -582.1834    2250.8493    118145.73    10.472245   0.51386037 
   51000   -649.96377    79.407994   -570.55577    2409.1254    129588.52    10.472245   0.54690313 
   51100   -653.10145    73.142112   -579.95934    2219.0274       122757    10.472245   0.46430973 
   51200   -651.73433    67.773591   -583.96074    2056.1542    124460.81    10.472245   0.50487028 
   51300   -653.11379    74.901924   -578.21186    2272.4177    126254.52    10.472245   0.46074436 
   51400   -648.68217    75.152356   -573.52981    2280.0154    128588.68    10.472245   0.50977468 
   51500   -662.98173    76.665336   -586.31639    2325.9171    112009.16    10.472245   0.42307279 
   51600   -649.74818    70.815716   -578.93246    2148.4479    127631.99    10.472245   0.47476418 
   51700   -651.65673    78.862499   -572.79423    2392.5758    124848.67    10.472245   0.50817631 
   51800   -657.94854    71.488335   -586.46021    2168.8542    118121.46    10.472245   0.47001449 
   51900   -654.85502    77.339517    -577.5155    2346.3708    122544.12    10.472245   0.46537053 
   52000   -652.64385    75.278083   -577.36577    2283.8298    125588.14    10.472245   0.47413227 
   52100   -653.50839    70.632878   -582.87551    2142.9009     122152.7    10.472245   0.50747943 
   52200   -657.32334    65.519707   -591.80364    1987.7745    116058.46    10.472245   0.47124872 
   52300   -656.66987    71.520691   -585.14918    2169.8359    120195.52    10.472245    0.5127166 
   52400   -650.60035    73.476183   -577.12416    2229.1627    127112.26    10.472245    0.4829979 
   52500   -653.28863    73.490397   -579.79823    2229.5939    123940.07    10.472245   0.47863662 
   52600   -659.45912    71.696709   -587.76241     2175.176    115888.43    10.472245   0.44716075 
   52700   -647.52878    72.439128   -575.08965    2197.6999    129913.78    10.472245    0.4792591 
   52800   -654.24184    73.647779   -580.59406    2234.3687    122392.59    10.472245    0.4475745 
   52900   -656.66386    72.570694   -584.09317    2201.6915    120790.99    10.472245   0.43375564 
   53000   -650.60475    79.026379   -571.57837    2397.5477    127422.47    10.472245   0.47829084 
   53100   -657.55189    76.138831   -581.41305    2309.9437    119260.44    10.472245   0.48379954 
   53200   -656.29568    71.823367   -584.47231    2179.0186    120240.56    10.472245   0.43327077 
   53300   -653.80515    71.639373   -582.16578    2173.4365    122346.22    10.472245   0.44283997 
   53400   -651.06235    77.366532   -573.69582    2347.1904    127528.29    10.472245   0.51757617 
   53500   -656.11673     71.54086   -584.57587    2170.4478    118725.07    10.472245   0.45891139 
   53600   -657.98915    73.019699   -584.96945    2215.3136    118760.86    10.472245   0.41580344 
   53700   -648.44628    78.927709   -569.51857    2394.5542    130082.63    10.472245   0.46099408 
   53800   -650.09276    75.417437   -574.67533    2288.0576    128432.49    10.472245   0.50795451 
   53900   -653.48412    67.743889   -585.74023    2055.2531     123872.9    10.472245   0.49975711 
   54000   -653.03899    72.180046   -580.85894    2189.8398    124428.69    10.472245   0.47703554 
   54100   -647.22946     72.03657   -575.19289    2185.4869    131540.07    10.472245   0.52191411 
   54200   -658.14369    74.364304   -583.77938     2256.107    119458.97    10.472245   0.45089849 
   54300    -651.8221    69.148103     -582.674    2097.8549    125504.98    10.472245   0.48678999 
   54400   -646.35387    72.776677   -573.57719    2207.9407    132796.51    10.472245   0.47890243 
   54500   -653.61651     67.89088   -585.72563    2059.7126     121928.8    10.472245   0.49900924 
   54600     -655.864    71.283002   -584.58099    2162.6247    119047.17    10.472245   0.49517819 
   54700   -652.43772     74.70801   -577.72971    2266.5346    125188.18    10.472245   0.51818722 
   54800   -642.05575    70.290058    -571.7657    2132.5002     137593.6    10.472245   0.57701137 
   54900   -654.06349    70.149836   -583.91366    2128.2461    122406.43    10.472245   0.46727045 
   55000   -653.75153    69.885498   -583.86603    2120.2264    123981.94    10.472245   0.48875809 
   55100   -653.93013    81.234316   -572.69581    2464.5334    125969.64    10.472245   0.50882901 
   55200   -660.68075    79.114793   -581.56596    2400.2301    114969.05    10.472245   0.40251315 
   55300   -653.74155    69.110041   -584.63151    2096.7002    122114.14    10.472245   0.50437711 
   55400   -649.03591    73.789073   -575.24684    2238.6553     129807.3    10.472245   0.53130527 
   55500   -649.39089    67.158318   -582.23257    2037.4877    128003.25    10.472245   0.51862892 
   55600   -654.53656    65.907687   -588.62888    1999.5453    119781.23    10.472245   0.46548531 
   55700   -651.73571    77.600007    -574.1357    2354.2737    127011.83    10.472245   0.49696883 
   55800   -653.78176    71.183971   -582.59779    2159.6203    121467.26    10.472245   0.49473756 
   55900   -651.73282    68.434634   -583.29819    2076.2093     125084.9    10.472245    0.4821346 
   56000   -649.28346    70.442168    -578.8413     2137.115    127910.76    10.472245   0.53819816 
   56100   -655.24202    74.370954   -580.87106    2256.3088    123166.35    10.472245   0.44010378 
   56200   -656.61797    67.185504   -589.43247    2038.3125    117786.37    10.472245   0.46365929 
   56300   -651.34554    77.124364   -574.22118    2339.8433     128665.6    10.472245   0.44214032 
   56400   -653.51537      68.3181   -585.19727    2072.6738    123520.41    10.472245   0.47934805 
   56500   -659.49088    77.625684    -581.8652    2355.0527    117078.75    10.472245   0.43712318 
   56600   -649.13393    69.917431    -579.2165    2121.1952    128775.56    10.472245   0.48620767 
   56700   -652.82094     72.06684    -580.7541    2186.4052    124941.99    10.472245   0.49187546 
   56800   -654.79915     69.90053   -584.89862    2120.6825    121911.42    10.472245    0.4625991 
   56900   -658.55522    73.698913    -584.8563      2235.92    117453.59    10.472245   0.48568233 
   57000   -652.80364    78.095002   -574.70864    2369.2911    127409.75    10.472245   0.51309056 
   57100   -655.63324    67.794906   -587.83833    2056.8008    120495.42    10.472245   0.44556145 
   57200   -654.15858    68.522107   -585.63647    2078.8631    122255.35    10.472245   0.46735725 
   57300   -655.17392    77.339406   -577.83451    2346.3674    123087.23    10.472245   0.49055331 
   57400   -654.90447    72.667639   -582.23683    2204.6326    122033.45    10.472245   0.46433315 
   57500   -663.02031    70.989179   -592.03113    2153.7105    111911.28    10.472245   0.47282313 
   57600   -649.88772    69.845607   -580.04211    2119.0162    127448.99    10.472245   0.46938462 
   57700   -653.53788    71.074026   -582.46385    2156.2847    122713.59    10.472245   0.50886846 
   57800   -663.02896    70.725492   -592.30347    2145.7106    112644.24    10.472245    0.5040842 
   57900   -651.06824    67.644684   -583.42356    2052.2433    124616.98    10.472245   0.47175547 
   58000   -652.23153    76.812275   -575.41926     2330.375    124790.17    10.472245   0.46547056 
   58100   -656.27514    71.579188   -584.69595    2171.6106     120537.8    10.472245   0.46435441 
   58200   -655.00211    69.439743   -585.56237    2106.7029    120842.25    10.472245   0.47287472 
   58300   -648.94958    74.178699   -574.77088     2250.476    131081.09    10.472245   0.48690612 
   58400   -657.41657    75.490321   -581.92625    2290.2688     119625.5    10.472245   0.51968307 
   58500   -654.58959    74.564762   -580.02483    2262.1886    121872.18    10.472245   0.51390556 
   58600   -653.33172    83.996588   -569.33513    2548.3368    125849.14    10.472245   0.47279057 
   58700   -648.10788    67.028259   -581.07962    2033.5419    128392.79    10.472245    0.4868797 
   58800   -658.11365    74.312464   -583.80119    2254.5343    118252.34    10.472245    0.4781643 
   58900   -652.33035    80.679689   -571.65066    2447.7068    128883.16    10.472245   0.45243372 
   59000   -645.88245    71.579254   -574.30319    2171.6126    134194.37    10.472245   0.54718421 
   59100   -652.22239    70.793579   -581.42881    2147.7763    123809.55    10.472245   0.54886028 
   59200   -654.32456    73.657148   -580.66741    2234.6529    121892.75    10.472245   0.52970442 
   59300   -658.30879    74.041139   -584.26765    2246.3027    117013.97    10.472245    0.4539605 
   59400   -658.19406    71.543324   -586.65073    2170.5225    116561.08    10.472245    0.5172316 
   59500   -650.42308    75.479595   -574.94348    2289.9434    128620.96    10.472245   0.51414623 
   59600   -656.95537    72.826927   -584.12844    2209.4652    118469.47    10.472245   0.46806549 
   59700   -657.03592    68.768388   -588.26753    2086.3349    117535.53    10.472245   0.45152489 
   59800   -649.02129    73.430506   -575.59078    2227.7769    131165.69    10.472245   0.47677989 
   59900   -651.77215    69.508484   -582.26366    2108.7884     123488.5    10.472245   0.52128975 
   60000   -659.58404    74.263037     -585.321    2253.0347    114701.02    10.472245   0.45290894 
   60100   -649.97795    70.274887   -579.70306      2132.04    126828.13    10.472245   0.51125276 
   60200   -654.44874    73.646078   -580.80266    2234.3171    123808.63    10.472245   0.46694202 
   60300   -658.03345    69.461133   -588.57231    2107.3518    117909.52    10.472245   0.48956844 
   60400    -657.5798    68.878444   -588.70136    2089.6738    117850.74    10.472245   0.42427497 
   60500   -652.70171    72.845413    -579.8563     2210.026    123566.93    10.472245   0.52174409 
   60600   -656.09834     72.04488   -584.05346     2185.739    121304.45    10.472245    0.4472715 
   60700    -662.1909    74.095361   -588.09553    2247.9477    112639.38    10.472245    0.4796105 
   60800   -654.59103    75.705014   -578.88602    2296.7823     124308.6    10.472245   0.50542839 
   60900   -649.23249    71.956948   -577.27554    2183.0713       128489    10.472245   0.52740279 
   61000   -656.29033    74.814536   -581.47579    2269.7664    120979.71    10.472245   0.43317119 
   61100   -656.35164    67.281824   -589.06982    2041.2347    119761.69    10.472245   0.43340291 
   61200   -654.23681    75.680827   -578.55598    2296.0484    122778.12    10.472245   0.43432959 
   61300   -657.15274    75.457357   -581.69538    2289.2687    119977.41    10.472245   0.42937835 
   61400    -660.0313    65.895516   -594.13579    1999.1761    113940.25    10.472245   0.46385643 
   61500   -651.98782    69.638412    -582.3494    2112.7302    124101.28    10.472245   0.52729035 
   61600   -651.23561    75.566139   -575.66947     2292.569    127640.69    10.472245    0.5309281 
   61700   -655.60205    69.166232   -586.43582    2098.4049     118980.8    10.472245   0.48937122 
   61800    -654.1151    70.743915   -583.37119    2146.2696    123432.07    10.472245   0.49651115 
   61900   -649.93337     80.02642   -569.90695    2427.8875    130596.69    10.472245   0.47632192 
   62000   -653.88941    73.977475   -579.91194    2244.3712    124482.25    10.472245   0.49666646 
   62100   -657.10095    69.802726   -587.29822    2117.7153    117103.03    10.472245   0.44725588 
   62200   -651.41463    77.890568   -573.52406    2363.0889    127823.36    10.472245   0.51187193 
   62300   -659.60091    80.880368   -578.72054    2453.7951    116847.23    10.472245   0.41996592 
   62400   -658.48607    73.259295   -585.22678    2222.5826    117200.83    10.472245   0.46927229 
   62500   -651.31625    72.791908   -578.52434    2208.4028    125632.13    10.472245   0.45588035 
   62600   -648.80404    80.670398   -568.13364    2447.4249    130301.43    10.472245   0.53501419 
   62700   -651.96631    75.208765   -576.75755    2281.7268    125677.71    10.472245    0.5314956 
   62800   -659.29974    75.140219   -584.15952    2279.6472    117413.54    10.472245     0.459711 
   62900   -659.06712    75.517714    -583.5494    2291.0998    116251.36    10.472245   0.43444448 
   63000   -653.27006    78.411657    -574.8584     2378.898     126252.7    10.472245    0.4571527 
   63100   -659.45679    72.219394    -587.2374    2191.0335    116719.03    10.472245   0.47187576 
   63200   -651.10404    67.851492   -583.25255    2058.5176    124239.49    10.472245   0.47452498 
   63300   -658.02808    78.228552   -579.79953    2373.3428    120038.37    10.472245   0.47369245 
   63400   -657.81107    76.558711   -581.25235    2322.6822    119702.69    10.472245   0.48936002 
   63500   -652.61366    82.822658     -569.791    2512.7214    125884.59    10.472245   0.50146502 
   63600   -654.12626    74.061642   -580.06462    2246.9247    123013.18    10.472245   0.48302934 
   63700   -656.59874    76.712143    -579.8866    2327.3371    121065.92    10.472245   0.47052339 
   63800   -656.96236    71.972318   -584.99004    2183.5376    119932.36    10.472245   0.46306108 
   63900   -660.22035    72.082869   -588.13748    2186.8916    116393.93    10.472245   0.42948238 
   64000   -650.85105    74.769587   -576.08146    2268.4027    127703.88    10.472245   0.49842763 
   64100   -661.53388    79.754935   -581.77895    2419.6511    115491.24    10.472245   0.45091666 
   64200   -658.23001     66.54097   -591.68904    2018.7582    117309.43    10.472245   0.42769574 
   64300   -652.58896    78.496215   -574.09275    2381.4633    126050.19    10.472245   0.49008562 
   64400   -649.95312    67.455661   -582.49746    2046.5086    126634.34    10.472245   0.48597516 
   64500   -657.74017    71.353895   -586.38628    2164.7755    116370.61    10.472245    0.4993229 
   64600   -646.75878     74.01339   -572.74539    2245.4608    131930.39    10.472245   0.53834704 
   64700   -652.87861    68.484849   -584.39376    2077.7328    123956.98    10.472245   0.49168013 
   64800   -657.27605    73.871196   -583.40486    2241.1468    118263.19    10.472245   0.43591056 
   64900   -648.32881     79.87841    -568.4504    2423.3971    134933.47    10.472245   0.50478455 
   65000   -650.68456    72.335237   -578.34932     2194.548    127467.55    10.472245   0.50011589 
   65100     -657.855     77.37978   -580.47522    2347.5923    118693.58    10.472245   0.48578531 
   65200   -655.23663    67.634231    -587.6024    2051.9262     122166.2    10.472245    0.4624884 
   65300   -659.16415    72.112065   -587.05208    2187.7773    117021.22    10.472245   0.39914511 
   65400   -655.96818    75.798974   -580.16921    2299.6329    120536.46    10.472245   0.44369309 
   65500   -654.01837    68.660362   -585.35801    2083.0575    123427.32    10.472245   0.48691188 
   65600   -656.12653     69.29299   -586.83354    2102.2506    119741.66    10.472245   0.44037445 
   65700   -650.43866     73.88741   -576.55125    2241.6387    127891.65    10.472245   0.50731081 
   65800   -664.71826    77.917057    -586.8012    2363.8925    109947.44    10.472245    0.4553538 
   65900   -658.13098    71.886524   -586.24445    2180.9347    116081.13    10.472245   0.50758208 
   66000   -653.27963    75.461446   -577.81818    2289.3927     123792.2    10.472245   0.53938604 
   66100   -653.41534    73.419691   -579.99564    2227.4488    123981.75    10.472245    0.4850416 
   66200   -655.67805    66.569439   -589.10861    2019.6219    119755.04    10.472245   0.47295254 
   66300   -650.69986     71.34283   -579.35703    2164.4398    128123.23    10.472245   0.50131965 
   66400   -657.23894    77.474002   -579.76494    2350.4508    119849.32    10.472245   0.43581615 
   66500   -662.32967    71.531648   -590.79802    2170.1683    110249.73    10.472245   0.47078106 
   66600   -650.87526    69.083684   -581.79158    2095.9005    127439.71    10.472245   0.50352463 
   66700   -654.78006    76.766993   -578.01307    2329.0012    123320.79    10.472245   0.46977751 
   66800   -656.93116    69.972654    -586.9585    2122.8706    117762.73    10.472245   0.44672703 
   66900   -662.89626    68.465549   -594.43071    2077.1472    110007.12    10.472245   0.43571423 
   67000   -653.14288    72.618145   -580.52473    2203.1311     124300.4    10.472245   0.46994575 
   67100   -653.06705    72.598891   -580.46815    2202.5469    124399.01    10.472245   0.48501204 
   67200   -662.48949    69.806795   -592.68269    2117.8387    111155.57    10.472245   0.40096272 
   67300   -651.29215    64.685212   -586.60693    1962.4572    123230.19    10.472245   0.52524783 
   67400   -650.90165    76.004057   -574.89759    2305.8548    127277.73    10.472245   0.50343114 
   67500    -645.7038     63.87497   -581.82883    1937.8756    131829.96    10.472245   0.62345365 
   67600   -651.41632    71.268098   -580.14822    2162.1726     125952.9    10.472245   0.45012216 
   67700   -659.89388    77.065931   -582.82795    2338.0706    115967.01    10.472245   0.45420688 
   67800   -653.88325    72.055022   -581.82823    2186.0467    123011.69    10.472245   0.47425926 
   67900   -648.70772    71.384607   -577.32312    2165.7073    129400.64    10.472245   0.48283433 
   68000   -653.58149    68.175871   -585.40562    2068.3588    123187.25    10.472245   0.45751075 
   68100   -657.66929    70.955033   -586.71426    2152.6746    117106.51    10.472245   0.42834866 
   68200   -644.56009     71.15766   -573.40243     2158.822    134653.59    10.472245   0.49545069 
   68300    -644.4903     84.25938   -560.23092    2556.3095    137749.05    10.472245   0.55246519 
   68400   -649.14205    71.862589   -577.27946    2180.2086     129528.6    10.472245   0.43912704 
   68500   -655.16369    68.514025   -586.64967    2078.6179    120612.75    10.472245    0.4501725 
   68600    -649.2445    70.323981   -578.92052    2133.5294     128556.5    10.472245   0.54739471 
   68700   -653.68397    78.407256   -575.27671    2378.7644    125645.54    10.472245   0.46496245 
   68800   -660.02733    78.121167   -581.90616    2370.0849    114773.83    10.472245   0.44306804 
   68900   -658.68127    73.230973    -585.4503    2221.7234    117072.97    10.472245   0.51533766 
   69000   -661.08909    71.339413   -589.74968    2164.3361    114042.13    10.472245   0.40041216 
   69100   -648.91823    69.896208   -579.02202    2120.5514    126651.16    10.472245   0.52999406 
   69200   -654.92366    71.337649   -583.58601    2164.2826    123524.98    10.472245   0.48310945 
   69300   -662.00526    67.084915   -594.92035    2035.2607     112312.9    10.472245   0.43202787 
   69400   -657.16271    73.154252   -584.00846    2219.3958     120399.6    10.472245   0.48883426 
   69500   -652.07151    75.344345   -576.72716    2285.8401     126841.2    10.472245   0.48254906 
   69600   -656.89946    70.322911   -586.57655    2133.4969    119963.78    10.472245   0.47925412 
   69700   -654.90219    69.059741   -585.84245    2095.1741    120093.48    10.472245   0.53718153 
   69800   -654.93681    77.646776   -577.29004    2355.6926     122168.9    10.472245   0.47777844 
   69900   -654.25984    67.760011   -586.49983    2055.7422    121865.08    10.472245   0.45638063 
   70000    -657.0296     73.65676   -583.37284    2234.6412     119558.9    10.472245   0.46378616 
   70100    -647.9438    75.059727   -572.88407    2277.2052    131084.46    10.472245   0.49100971 
   70200   -660.34973     75.07574   -585.27399     2277.691    114945.23    10.472245   0.44163026 
   70300    -653.7851    71.353278   -582.43183    2164.7568    123728.52    10.472245   0.49117324 
   70400   -649.08091    73.961374   -575.11954    2243.8827    132480.62    10.472245   0.49640174 
   70500   -661.26049    71.790168   -589.47032    2178.0114    113566.01    10.472245   0.48006177 
   70600   -649.77692    70.710731   -579.06619    2145.2628    128667.07    10.472245   0.50608567 
   70700   -654.66893    73.307795   -581.36114    2224.0541    123238.47    10.472245   0.45649105 
   70800   -662.03867    70.201773   -591.83689    2129.8218    111745.64    10.472245     0.429497 
   70900   -657.06656    75.385361    -581.6812    2287.0844    119853.97    10.472245   0.46586261 
   71000   -647.68539    69.324444   -578.36095    2103.2048    132516.68    10.472245   0.51055889 
   71100   -655.75128    65.302336   -590.44895    1981.1798    118769.23    10.472245   0.44586021 
   71200   -657.86051    75.774497   -582.08601    2298.8903    118159.59    10.472245   0.41897056 
   71300   -651.85473    73.223404   -578.63132    2221.4937    123493.02    10.472245   0.50394868 
   71400    -656.1833    73.844419   -582.33889    2240.3345    120621.03    10.472245    0.4864256 
   71500   -653.93644    66.237695   -587.69874    2009.5573    121744.82    10.472245   0.52423161 
   71600   -652.03087     74.15942   -577.87145    2249.8911    126739.59    10.472245   0.52050574 
   71700    -653.0347    74.554272   -578.48043    2261.8704    124775.53    10.472245   0.52155789 
   71800   -652.40632    65.546025    -586.8603     1988.573    122260.99    10.472245   0.47256435 
   71900   -650.84154    70.404212   -580.43733    2135.9635    125972.44    10.472245   0.49903458 
   72000   -654.09627    75.527928   -578.56834    2291.4097    123794.76    10.472245   0.57776654 
   72100    -660.5205    67.074251   -593.44625    2034.9372    112332.52    10.472245   0.44042752 
   72200   -655.12949    72.367324   -582.76217    2195.5215    121864.89    10.472245   0.45672933 
   72300   -656.31125     81.74927   -574.56198    2480.1564    121126.45    10.472245   0.52451019 
   72400   -652.46577     76.88074   -575.58503    2332.4521    125491.13    10.472245   0.54322396 
   72500   -650.23175    67.509456   -582.72229    2048.1407    127085.16    10.472245   0.53381882 
   72600   -649.19106    74.942597   -574.24846    2273.6516    129978.83    10.472245   0.52419665 
   72700   -652.79895    70.444109   -582.35484    2137.1739    123708.08    10.472245   0.49040291 
   72800   -653.22463    69.071097   -584.15354    2095.5187    124479.06    10.472245   0.47539067 
   72900   -645.60598    74.151003   -571.45498    2249.6358    133392.35    10.472245   0.53938056 
   73000   -658.80833    72.313463   -586.49487    2193.8874    117000.09    10.472245   0.45996952 
   73100   -653.63246    69.602746   -584.02972    2111.6481    123291.02    10.472245   0.50672717 
   73200   -652.05518    75.695736   -576.35945    2296.5008    125694.66    10.472245   0.45342061 
   73300   -654.77542    69.226521    -585.5489     2100.234    120206.27    10.472245   0.50134986 
   73400   -661.06313    64.318111   -596.74502    1951.3198    111106.42    10.472245   0.47417822 
   73500   -655.26393    71.887621   -583.37631     2180.968     120607.8    10.472245   0.46959217 
   73600   -648.44739    72.547227   -575.90016    2200.9795    130519.73    10.472245   0.44113341 
   73700   -658.99818    69.228244   -589.76994    2100.2863    116326.98    10.472245   0.42680653 
   73800   -654.92823    72.643404   -582.28483    2203.8974    121815.06    10.472245   0.47461067 
   73900   -655.53416     77.61417   -577.91999    2354.7033    121914.86    10.472245   0.52316486 
   74000   -657.79854    70.307931   -587.49061    2133.0425    117941.48    10.472245   0.47080255 
   74100   -659.41592    74.789559   -584.62636    2269.0087    114929.96    10.472245   0.44106165 
   74200    -652.1034    73.269266   -578.83413    2222.8851     123937.8    10.472245   0.48019563 
   74300    -654.3797    67.069916   -587.30979    2034.8057    121577.36    10.472245   0.46247609 
   74400   -662.82262    72.274402   -590.54821    2192.7024    112276.42    10.472245   0.41018435 
   74500   -654.86154    75.624423   -579.23712    2294.3372    123070.27    10.472245   0.49571264 
   74600   -657.50752    76.623737   -580.88378     2324.655     120202.1    10.472245   0.47139375 
   74700   -656.32622    67.751312   -588.57491    2055.4783    119450.32    10.472245   0.49316223 
   74800   -647.89775    73.497458   -574.40029    2229.8082    131818.55    10.472245    0.5498796 
   74900   -657.67143    76.766907   -580.90452    2328.9986    118203.49    10.472245   0.40385363 
   75000   -657.49941    71.368502   -586.13091    2165.2187    118156.54    10.472245   0.47261318 
   75100   -650.70752    72.083804   -578.62372    2186.9199    125902.35    10.472245   0.48393303 
   75200   -653.22657    72.485093   -580.74147    2199.0944    123542.68    10.472245   0.45097817 
   75300   -654.30174    70.749679   -583.55206    2146.4445    122146.66    10.472245   0.50829099 
   75400   -651.66604    68.935591   -582.73045    2091.4076    124359.35    10.472245   0.45104739 
   75500   -652.46697    79.469358   -572.99761    2410.9871    127076.83    10.472245   0.50572129 
   75600   -653.06555    80.285307   -572.78025    2435.7418    123722.71    10.472245   0.48702595 
   75700   -657.75657    74.118371    -583.6382    2248.6458    118381.09    10.472245   0.42961767 
   75800   -655.79782     73.41662    -582.3812    2227.3557    121900.59    10.472245   0.43015464 
   75900    -651.6948    78.545476   -573.14933    2382.9578    127659.42    10.472245   0.50048461 
   76000   -655.86081    70.690894   -585.16992     2144.661    121195.91    10.472245   0.50446545 
   76100   -658.93518    78.209678   -580.72551    2372.7702    116720.13    10.472245   0.47685348 
   76200   -646.16531    80.133515   -566.03179    2431.1367    135107.64    10.472245   0.50232812 
   76300   -651.20214    70.831666   -580.37047    2148.9318    126165.08    10.472245   0.51038605 
   76400   -656.81196    72.599316   -584.21264    2202.5598    120503.18    10.472245   0.42006431 
   76500   -650.64197    75.318342   -575.32363    2285.0512     130569.9    10.472245   0.50350677 
   76600   -648.29771    72.719594   -575.57812    2206.2089    130523.32    10.472245   0.52187617 
   76700   -656.75828     73.75673   -583.00155    2237.6741    121643.98    10.472245   0.48084147 
   76800   -646.79546    70.468942   -576.32651    2137.9273    132601.06    10.472245   0.51275692 
   76900   -645.61072    73.048424    -572.5623    2216.1851    134649.22    10.472245   0.52610869 
   77000   -649.93817    71.564471    -578.3737    2171.1641    128619.94    10.472245   0.48836836 
   77100   -654.46516    71.932667   -582.53249    2182.3346    122984.04    10.472245   0.47899745 
   77200   -655.52435    76.048522   -579.47583    2307.2038    121915.68    10.472245   0.47538284 
   77300   -644.59001    71.183434   -573.40657     2159.604    134163.54    10.472245   0.51241128 
   77400   -655.65348    70.768537   -584.88494    2147.0166    120845.16    10.472245   0.46619453 
   77500   -652.90088    69.423698   -583.47719    2106.2161    123860.07    10.472245   0.43387229 
   77600   -652.65313    83.037664   -569.61547    2519.2444    126184.68    10.472245   0.44118378 
   77700   -651.50519    77.667723   -573.83747    2356.3281    127184.16    10.472245    0.4583225 
   77800   -657.33521    73.865736   -583.46948    2240.9812    119379.63    10.472245   0.47192281 
   77900   -645.57982    70.148358   -575.43146    2128.2012    132972.94    10.472245   0.55563553 
   78000   -649.97131    74.038868   -575.93245    2246.2338    130026.04    10.472245   0.54237766 
[...]
  481400   -652.40121    68.140168   -584.26105    2067.2756    124171.28    10.472245   0.96937543 
  481500   -652.71521    69.532085   -583.18312    2109.5044    122069.56    10.472245   0.91054965 
  481600   -646.37824    76.620781   -569.75746    2324.5653    133583.58    10.472245   0.98011248 
  481700    -655.3183    72.254202    -583.0641    2192.0895     121865.1    10.472245   0.96145719 
  481800   -656.48572    71.584187   -584.90154    2171.7622     119317.6    10.472245   0.95905748 
  481900   -647.29144    73.052099   -574.23934    2216.2966    132190.57    10.472245   0.90193707 
  482000   -657.65235    74.207546    -583.4448    2251.3512    119144.61    10.472245   0.92147449 
  482100   -654.53575    67.699617   -586.83613    2053.9099    122561.03    10.472245   0.91045347 
  482200    -652.7127    76.305225   -576.40747    2314.9918     126180.6    10.472245   0.92065846 
  482300   -654.65166     73.40374   -581.24792    2226.9649    122286.19    10.472245   0.87103482 
  482400   -653.12127    68.016856   -585.10441    2063.5345    124131.22    10.472245   0.95947035 
  482500   -650.39262    79.399544   -570.99307     2408.869    129414.67    10.472245   0.93978085 
  482600   -655.79086    76.405651    -579.3852    2318.0386    121062.02    10.472245    0.8806153 
  482700   -653.32303    68.156816   -585.16621    2067.7807    124101.49    10.472245   0.87072341 
  482800   -648.60605    71.854673   -576.75138    2179.9684     129650.7    10.472245   0.96188015 
  482900   -651.22583    76.374006   -574.85182    2317.0785    127616.76    10.472245   0.92265911 
  483000   -657.37417    76.000531   -581.37364    2305.7478    119340.02    10.472245   0.91077422 
  483100   -652.94082    70.232271   -582.70855     2130.747     123026.5    10.472245    0.9559974 
  483200   -659.85531     77.02414   -582.83117    2336.8027    115501.04    10.472245   0.87333254 
  483300   -653.26084    78.499618   -574.76122    2381.5666    124784.69    10.472245   0.95375477 
  483400   -658.15465    73.058139   -585.09652    2216.4799    117899.31    10.472245    0.9807435 
  483500   -658.38063    72.585596   -585.79503    2202.1436    117426.46    10.472245   0.90364102 
  483600   -646.58191     73.87866   -572.70325    2241.3733    131997.96    10.472245   0.90693203 
  483700   -651.38093    70.644728    -580.7362    2143.2604    124784.32    10.472245    1.0123191 
  483800   -653.84637    71.900832   -581.94554    2181.3688    122212.23    10.472245   0.93132598 
  483900   -655.84887     67.99313   -587.85574    2062.8147    119495.96    10.472245   0.96226401 
  484000   -648.42648    71.730881    -576.6956    2176.2127    129971.29    10.472245   0.93893095 
  484100   -655.70658    74.429411   -581.27717    2258.0823    121646.93    10.472245    0.9364421 
  484200   -660.98936     74.86958   -586.11978    2271.4364    114580.02    10.472245   0.87348187 
  484300    -646.0064    76.446159   -569.56024    2319.2675    136716.26    10.472245   0.95911472 
  484400   -652.72278    70.287752   -582.43502    2132.4303    123928.51    10.472245   0.92347357 
  484500   -654.13686    66.855049   -587.28181    2028.2869    121081.49    10.472245   0.89311743 
  484600   -651.22557    78.197296   -573.02828    2372.3945     129307.5    10.472245   0.94178372 
  484700   -648.00037    70.241622   -577.75875    2131.0307    131266.42    10.472245   0.94323396 
  484800   -659.58051    68.609588   -590.97092    2081.5172    114930.04    10.472245    0.9522576 
  484900   -657.37696    68.753288   -588.62367    2085.8768    117947.18    10.472245   0.86938447 
  485000   -656.39878    75.991309   -580.40747     2305.468    121351.95    10.472245   0.91264413 
  485100   -655.92505    77.535751    -578.3893    2352.3242    122739.34    10.472245   0.91959938 
  485200   -659.55087    72.239841   -587.31102    2191.6539     116318.1    10.472245   0.90594244 
  485300   -652.66659    76.662673   -576.00392    2325.8363    125032.99    10.472245   0.98652208 
  485400   -653.60816    76.508858    -577.0993    2321.1697     126343.8    10.472245   0.94017074 
  485500   -654.70917    73.263044   -581.44613    2222.6964    123856.77    10.472245   0.93009061 
  485600   -655.83348    70.623404   -585.21008    2142.6134    120111.23    10.472245   0.92632484 
  485700   -652.41698    64.187477    -588.2295    1947.3566     122906.9    10.472245   0.91462284 
  485800    -652.8726    75.175698    -577.6969    2280.7236    125169.52    10.472245   0.99043819 
  485900   -661.32359    73.680526   -587.64307    2235.3622    112655.13    10.472245    0.9152009 
  486000   -656.83934    69.772261   -587.06707     2116.791    119988.45    10.472245    0.9068891 
  486100   -652.53475    71.339263   -581.19549    2164.3316    125385.94    10.472245   0.94860299 
  486200   -651.43974    84.581092   -566.85865    2566.0698    129444.72    10.472245   0.95724262 
  486300   -654.58201    78.999414    -575.5826    2396.7297    123870.22    10.472245   0.97430413 
  486400   -649.96217    67.492063   -582.47011     2047.613     127059.1    10.472245   0.96071199 
  486500    -658.3412    70.332782   -588.00842    2133.7964    116809.59    10.472245   0.92163447 
  486600   -648.45859    68.345884   -580.11271    2073.5167    128298.25    10.472245    1.0036103 
  486700    -652.0148    75.934002    -576.0808    2303.7294    125727.64    10.472245   0.97780979 
  486800   -655.36151    74.395024   -580.96649     2257.039    121876.95    10.472245   0.94702297 
  486900   -659.44319    78.821497    -580.6217    2391.3319    117052.36    10.472245   0.89279955 
  487000   -658.21045    71.508133   -586.70231    2169.4549    118368.27    10.472245    0.9059282 
  487100   -661.17736    69.149411   -592.02795    2097.8946    112859.11    10.472245   0.90495279 
  487200   -658.58537    77.928021   -580.65735    2364.2251    118064.88    10.472245   0.91486018 
  487300   -654.99954    73.207068   -581.79247    2220.9981    121491.61    10.472245   0.90185578 
  487400   -657.54576    66.571162    -590.9746    2019.6742    117044.78    10.472245   0.93238229 
  487500   -654.72751    76.723702   -578.00381    2327.6878    122921.65    10.472245   0.97102797 
  487600   -650.13831    71.029321   -579.10899    2154.9284    126135.27    10.472245   0.95395795 
  487700   -656.95764    70.198492   -586.75914    2129.7222    117532.25    10.472245   0.93522121 
  487800   -654.41841    73.906256   -580.51216    2242.2105     122741.1    10.472245   0.95271443 
  487900   -652.96651    74.574613    -578.3919    2262.4875    125284.36    10.472245      1.00785 
  488000   -664.34561    73.471303   -590.87431    2229.0147    108976.76    10.472245   0.88132563 
  488100   -656.04802    76.043173   -580.00485    2307.0415    121102.79    10.472245   0.95408607 
  488200   -651.26951    71.484548   -579.78496    2168.7393    125585.63    10.472245    0.9559689 
  488300   -661.31614     68.25531   -593.06083    2070.7689     112807.2    10.472245   0.94773119 
  488400   -657.07274     72.07103   -585.00171    2186.5324    118569.79    10.472245    0.9316152 
  488500    -655.8263    77.445761   -578.38054     2349.594    121738.77    10.472245   0.93566496 
  488600   -650.95808    73.416932   -577.54115    2227.3651    126893.24    10.472245   0.95629055 
  488700   -659.81834    73.125859   -586.69248    2218.5344    115570.95    10.472245   0.97671676 
  488800   -650.11146    73.571702   -576.53976    2232.0606    127039.11    10.472245    0.9305185 
  488900   -645.80034    66.940077   -578.86027    2030.8666    132632.37    10.472245    1.0044399 
  489000   -659.69684    70.601131   -589.09571    2141.9377    113566.97    10.472245   0.89441034 
  489100   -650.98516    74.521109   -576.46405    2260.8643    126537.29    10.472245   0.94037019 
  489200   -655.75317     73.56427    -582.1889    2231.8351    120058.19    10.472245   0.98656927 
  489300   -647.31632    66.361577   -580.95475    2013.3157    129340.97    10.472245   0.96324233 
  489400   -645.61738    73.249876    -572.3675    2222.2969    133983.78    10.472245     0.986109 
  489500   -655.69649    71.715618   -583.98087    2175.7497    120909.19    10.472245   0.92103472 
  489600   -657.96458    76.423782    -581.5408    2318.5887    118694.04    10.472245   0.93561444 
  489700   -646.89093    77.437691   -569.45324    2349.3492    133242.89    10.472245   0.98410808 
  489800   -654.92713     70.52634   -584.40079    2139.6687    121295.64    10.472245    0.8894805 
  489900    -653.7433    70.298151   -583.44515    2132.7458    123898.75    10.472245   0.91026264 
  490000   -649.63748    79.015318   -570.62217    2397.2122    130123.61    10.472245   0.95571712 
  490100   -654.09175    69.102979   -584.98877    2096.4859    123014.29    10.472245   0.88708765 
  490200   -656.90796    72.337626   -584.57033    2194.6205    120041.73    10.472245   0.90564595 
  490300    -653.5355    79.983132   -573.55237    2426.5743    125566.96    10.472245   0.92592024 
  490400    -659.4649    73.291369   -586.17353    2223.5557    115369.24    10.472245   0.91677841 
  490500   -655.94346    73.775294   -582.16817    2238.2373    120298.22    10.472245   0.92793669 
  490600   -651.12582     74.99527   -576.13055    2275.2496    127733.37    10.472245   0.88856821 
  490700   -656.28183    70.104642   -586.17718     2126.875    119724.59    10.472245    0.9616975 
  490800   -654.08556     76.35839   -577.72717    2316.6047    124184.27    10.472245   0.95703738 
  490900   -658.38069    78.204141   -580.17655    2372.6022    118483.24    10.472245    0.9167086 
  491000   -659.12918    72.230836   -586.89834    2191.3807    116136.09    10.472245   0.97793638 
  491100   -652.49882    74.295678   -578.20314     2254.025    125615.53    10.472245    0.9937921 
  491200   -651.63126    71.403961    -580.2273    2166.2944    123781.08    10.472245   0.95801935 
  491300   -659.66325     66.53246   -593.13079       2018.5    114197.95    10.472245   0.91391107 
  491400   -658.27645    72.701065   -585.57538    2205.6467    116035.94    10.472245   0.95300539 
  491500   -648.33068    69.668135   -578.66255     2113.632    129432.56    10.472245   0.99133812 
  491600   -646.99544    71.751989   -575.24345    2176.8531     132018.7    10.472245   0.92753746 
  491700   -657.77984    72.077433   -585.70241    2186.7266    116611.42    10.472245    1.0026593 
  491800   -652.25907    74.348645   -577.91043    2255.6319    124710.17    10.472245   0.97570088 
  491900   -653.03146     79.81222   -573.21924     2421.389    126823.84    10.472245   0.89509355 
  492000   -657.94494    71.341509   -586.60343    2164.3997    118218.51    10.472245    0.9491822 
  492100   -654.49433    76.315367   -578.17896    2315.2995    123632.74    10.472245   0.93188684 
  492200   -648.34149    68.733187    -579.6083     2085.267    131507.18    10.472245   0.98822506 
  492300   -652.14198    61.523395   -590.61859    1866.5321    123452.79    10.472245     0.923314 
  492400   -658.71545    80.790459     -577.925    2451.0674    118784.69    10.472245   0.93450341 
  492500   -656.95054    73.854146    -583.0964    2240.6295    120186.84    10.472245   0.86662041 
  492600   -659.89241    76.555303   -583.33711    2322.5788    116396.41    10.472245    0.8920019 
  492700   -650.10174    75.821978   -574.27976    2300.3308    129598.15    10.472245   0.98639256 
  492800   -658.37446     70.25462   -588.11984    2131.4251    115846.71    10.472245   0.90491625 
  492900   -656.82582    74.429198   -582.39663    2258.0758    120683.01    10.472245    0.9159214 
  493000   -648.25041    73.304715    -574.9457    2223.9606    130764.87    10.472245   0.92897406 
  493100   -656.94311    72.593486   -584.34962    2202.3829    120226.65    10.472245   0.93817541 
  493200   -654.53633    69.878776   -584.65755    2120.0225    122076.49    10.472245   0.92432012 
  493300   -655.29702     78.71858   -576.57844    2388.2096    120787.58    10.472245    0.9057523 
  493400    -661.8616    71.525308    -590.3363    2169.9759    112769.71    10.472245   0.90845179 
  493500   -659.76733    79.004374   -580.76295    2396.8801    115915.74    10.472245   0.86835671 
  493600   -649.95377    69.280625   -580.67314    2101.8755    128988.65    10.472245   0.93515149 
  493700   -660.50259    67.419845   -593.08274     2045.422    112904.81    10.472245    0.9270988 
  493800   -657.89779    77.104819   -580.79297    2339.2503    117490.27    10.472245   0.93435362 
  493900   -651.04095    71.750546   -579.29041    2176.8093     126299.1    10.472245   0.92565627 
  494000   -660.13085     68.33335    -591.7975    2073.1365    114275.38    10.472245   0.89192048 
  494100   -657.16317    73.242132   -583.92104    2222.0619    117879.28    10.472245   0.96753876 
  494200    -657.2807    78.670709   -578.60999    2386.7572    120509.62    10.472245   0.88956725 
  494300   -654.69944    76.482129   -578.21731    2320.3588    123204.13    10.472245   0.92659012 
  494400   -656.77758    70.285902   -586.49167    2132.3741    121360.04    10.472245   0.93221412 
  494500   -655.51136    73.216229   -582.29513    2221.2761    120130.19    10.472245   0.91192178 
  494600   -656.19579    77.744791   -578.45099    2358.6662       121460    10.472245   0.91988283 
  494700   -657.63061    72.087331   -585.54328    2187.0269    119252.17    10.472245   0.91246372 
  494800   -640.32154    70.118884   -570.20266     2127.307    140366.67    10.472245   0.97972346 
  494900   -652.08505    72.262432   -579.82262    2192.3392    124774.66    10.472245   0.94763257 
  495000   -653.76689    69.154145   -584.61274    2098.0382    122642.02    10.472245   0.93887679 
  495100   -652.44227    81.031684   -571.41058    2458.3858    126811.92    10.472245   0.95010548 
  495200   -651.74607    71.009318   -580.73676    2154.3215     126584.2    10.472245   0.94950733 
  495300   -663.88195    76.783619   -587.09833    2329.5056    109943.18    10.472245   0.93915243 
  495400   -652.94679    78.876416   -574.07037    2392.9981    125207.26    10.472245    0.9446089 
  495500    -648.2031    72.094573   -576.10853    2187.2466    129572.28    10.472245    1.0209279 
  495600   -648.70615    64.236444    -584.4697    1948.8422     128019.5    10.472245   0.94411415 
  495700   -654.10571    73.202454   -580.90325    2220.8581    123580.28    10.472245   0.98564049 
  495800   -644.90528    76.225318   -568.67997    2312.5675    135244.37    10.472245   0.93871225 
  495900   -656.87183    74.183383   -582.68845    2250.6181    121553.68    10.472245   0.89708559 
  496000   -656.72225    73.743768   -582.97848    2237.2808    118494.87    10.472245   0.95355476 
  496100    -650.8871    78.891742   -571.99536    2393.4631    129581.76    10.472245    0.9314093 
  496200   -654.93925    72.099614   -582.83963    2187.3996    121717.13    10.472245   0.93890922 
  496300   -652.63691    68.705782   -583.93113    2084.4355    124940.83    10.472245   0.90172504 
  496400   -647.28875     76.89094   -570.39781    2332.7616    134370.25    10.472245   0.90943612 
  496500   -652.34862    75.598324    -576.7503    2293.5454     127132.3    10.472245   0.93983149 
  496600   -657.24716    73.821712   -583.42545    2239.6455    119480.43    10.472245   0.88578112 
  496700   -660.91738    71.477982    -589.4394    2168.5401    114051.16    10.472245   0.88208552 
  496800   -650.50491    68.770081   -581.73483    2086.3863    126687.66    10.472245   0.91107848 
  496900   -649.80735    73.164257   -576.64309    2219.6993    129105.56    10.472245   0.92193155 
  497000   -659.17743    69.569527    -589.6079    2110.6403    116065.34    10.472245   0.91348199 
  497100   -652.29566    76.530315   -575.76535    2321.8207    125931.59    10.472245   0.91265802 
  497200   -648.83989    73.700334   -575.13956    2235.9631    130580.05    10.472245    1.0174958 
  497300   -650.63176    66.259801   -584.37196     2010.228    123947.32    10.472245   0.95364196 
  497400   -659.94229    75.070182    -584.8721    2277.5224    117371.46    10.472245   0.94646094 
  497500   -648.40783    76.634857   -571.77297    2324.9924    130892.25    10.472245   0.93272692 
  497600   -654.77991    72.720346   -582.05957    2206.2317    123468.33    10.472245    0.8909403 
  497700   -648.66953    65.655506   -583.01402    1991.8945    126568.24    10.472245   0.94070407 
  497800   -651.46986    73.582484   -577.88737    2232.3877    127127.33    10.472245   0.90363147 
  497900   -649.27925    70.106709   -579.17254    2126.9377    129537.23    10.472245   0.92473008 
  498000   -657.70678    69.824895   -587.88189    2118.3878    119570.85    10.472245   0.93546903 
  498100   -653.48747     79.36665   -574.12082    2407.8711    125593.79    10.472245   0.88296645 
  498200   -656.19487    73.991536   -582.20334    2244.7978    120707.11    10.472245   0.92854129 
  498300   -658.94921    74.222173   -584.72703     2251.795    116194.88    10.472245   0.91026376 
  498400   -654.84471    73.087219   -581.75749    2217.3621    122830.04    10.472245   0.95397303 
  498500   -649.64659    77.538651   -572.10794    2352.4122    129786.12    10.472245   0.94432897 
  498600   -656.48946    72.366751    -584.1227    2195.5041    119668.31    10.472245   0.89972108 
  498700    -657.4306     75.55146   -581.87914    2292.1236    119568.88    10.472245   0.93651987 
  498800   -648.20476    81.071251   -567.13351    2459.5862    132656.64    10.472245   0.98394331 
  498900   -655.00945    77.318484   -577.69096    2345.7326    121145.43    10.472245    0.9206839 
  499000   -654.93254    73.604366   -581.32818    2233.0516    121334.46    10.472245   0.84601366 
  499100   -657.20319    72.647558   -584.55563    2204.0234    118291.13    10.472245   0.97794431 
  499200   -661.06197    79.411939   -581.65003    2409.2451    115613.41    10.472245   0.96138525 
  499300   -649.04457    75.658808   -573.38576    2295.3804    130115.36    10.472245   0.92112744 
  499400   -655.67817    66.506113   -589.17206    2017.7007    120051.77    10.472245   0.99928796 
  499500   -657.09346    76.666043   -580.42742    2325.9385    119726.98    10.472245   0.91234748 
  499600   -656.04011    73.754911    -582.2852    2237.6189    120312.72    10.472245    0.9708598 
  499700   -661.84232    66.583555   -595.25877    2020.0502    112386.43    10.472245   0.90220171 
  499800   -652.62533    67.012399   -585.61293    2033.0607    122295.43    10.472245   0.95985231 
  499900   -649.05341    71.842506   -577.21091    2179.5993    128713.01    10.472245    1.0142196 
  500000    -649.5662    75.136935   -574.42927    2279.5476    132585.94    10.472245   0.99252377 
Loop time of 375.091 on 1 procs for 500000 steps with 256 atoms

Performance: 575.860 ns/day, 0.042 hours/ns, 1333.010 timesteps/s
100.0% CPU use with 1 MPI tasks x no OpenMP threads

MPI task timing breakdown:
Section |  min time  |  avg time  |  max time  |%varavg| %total
---------------------------------------------------------------
Pair    | 224.03     | 224.03     | 224.03     |   0.0 | 59.73
Neigh   | 18.032     | 18.032     | 18.032     |   0.0 |  4.81
Comm    | 3.9626     | 3.9626     | 3.9626     |   0.0 |  1.06
Output  | 0.13557    | 0.13557    | 0.13557    |   0.0 |  0.04
Modify  | 128.21     | 128.21     | 128.21     |   0.0 | 34.18
Other   |            | 0.7195     |            |       |  0.19

Nlocal:    256 ave 256 max 256 min
Histogram: 1 0 0 0 0 0 0 0 0 0
Nghost:    1453 ave 1453 max 1453 min
Histogram: 1 0 0 0 0 0 0 0 0 0
Neighs:    13283 ave 13283 max 13283 min
Histogram: 1 0 0 0 0 0 0 0 0 0

Total # of neighbors = 13283
Ave neighs/atom = 51.8867
Neighbor list builds = 32367
Dangerous builds = 59
Total wall time: 0:06:15
