LAMMPS (3 Mar 2020)
Reading data file ...
  orthogonal box = (0 0 0) to (17.469 17.469 17.469)
  1 by 1 by 1 MPI processor grid
  reading atoms ...
  217 atoms
  read_data CPU = 0.00102053 secs
Reading potential file library.meam with DATE: 2012-06-29
Reading potential file LiSi.meam with DATE: 2020-11-07
1 atoms in group Li
216 atoms in group Si
Neighbor list info ...
  update every 1 steps, delay 10 steps, check yes
  max neighbors/atom: 2000, page size: 100000
  master list distance cutoff = 6
  ghost atom cutoff = 6
  binsize = 3, bins = 6 6 6
  2 neighbor lists, perpetual/occasional/extra = 2 0 0
  (1) pair meam/c, perpetual
      attributes: full, newton on
      pair build: full/bin/atomonly
      stencil: full/bin/3d
      bin: standard
  (2) pair meam/c, perpetual, half/full from (1)
      attributes: half, newton on
      pair build: halffull/newton
      stencil: none
      bin: none
Setting up Verlet run ...
  Unit style    : metal
  Current step  : 0
  Time step     : 0.003
Per MPI rank memory allocation (min/avg/max) = 8.895 | 8.895 | 8.895 Mbytes
Step Temp E_pair E_mol TotEng Press Volume 
       0         1700   -951.04357            0   -903.57924   -114721.17    5330.9442 
    3200    1680.0968   -945.97014            0   -899.06152    1168.2948    4638.0424 
Loop time of 2.26751 on 1 procs for 3200 steps with 217 atoms

Performance: 365.794 ns/day, 0.066 hours/ns, 1411.241 timesteps/s
100.0% CPU use with 1 MPI tasks x no OpenMP threads

MPI task timing breakdown:
Section |  min time  |  avg time  |  max time  |%varavg| %total
---------------------------------------------------------------
Pair    | 2.1753     | 2.1753     | 2.1753     |   0.0 | 95.93
Neigh   | 0.043045   | 0.043045   | 0.043045   |   0.0 |  1.90
Comm    | 0.014807   | 0.014807   | 0.014807   |   0.0 |  0.65
Output  | 2.5653e-05 | 2.5653e-05 | 2.5653e-05 |   0.0 |  0.00
Modify  | 0.029429   | 0.029429   | 0.029429   |   0.0 |  1.30
Other   |            | 0.004949   |            |       |  0.22

Nlocal:    217 ave 217 max 217 min
Histogram: 1 0 0 0 0 0 0 0 0 0
Nghost:    957 ave 957 max 957 min
Histogram: 1 0 0 0 0 0 0 0 0 0
Neighs:    4262 ave 4262 max 4262 min
Histogram: 1 0 0 0 0 0 0 0 0 0
FullNghs:  8524 ave 8524 max 8524 min
Histogram: 1 0 0 0 0 0 0 0 0 0

Total # of neighbors = 8524
Ave neighs/atom = 39.2811
Neighbor list builds = 73
Dangerous builds = 0
Setting up Verlet run ...
  Unit style    : metal
  Current step  : 3200
  Time step     : 0.003
Per MPI rank memory allocation (min/avg/max) = 9.664 | 9.664 | 9.664 Mbytes
Step PotEng KinEng TotEng Temp Press Density c_msdli[4] c_msdsi[4] 
    3200   -945.97014    46.908624   -899.06152    1680.0968    1168.2948    2.1744752            0 9.7430656e-32 
    3300   -944.87329    49.330941   -895.54235    1766.8554    11312.578    2.2033319   0.17730112   0.11066655 
    3400   -940.41846    48.102713   -892.31575    1722.8648    -7426.101    2.1470376    6.1444315   0.13594313 
    3500   -934.50229    49.719607   -884.78268     1780.776   -8440.3259    2.1330077   0.22220524   0.15967666 
    3600   -938.46034     55.25312   -883.20722    1978.9664    5667.1621    2.1762717    0.1785755   0.16499521 
    3700   -941.87676    50.871861    -891.0049    1822.0456    1249.5866    2.1650947    3.9334086     0.165558 
    3800   -940.09537    46.625246   -893.47012    1669.9472   -3176.8317    2.1566569    2.7929164    0.1451603 
    3900   -940.96604     45.41167   -895.55437    1626.4813    1334.1504    2.1777339    2.7659391    0.1520593 
    4000   -945.19045    46.046901   -899.14354     1649.233    534.99476    2.1784257    5.6022091     0.129569 
    4100    -949.9785    42.638541   -907.33996    1527.1579    2440.5345    2.1901848    4.0799518   0.12172637 
    4200   -942.18213    44.041296   -898.14084    1577.3995   -1185.6304    2.1646483    7.6338259   0.13837016 
    4300   -943.98184    48.305916   -895.67592    1730.1427   -2918.1449    2.1629212    5.5890165   0.16268254 
    4400   -940.73023    47.270352   -893.45988    1693.0526    1988.8095    2.1703096    5.1897135   0.16919297 
    4500   -948.38778    45.141322   -903.24646    1616.7984    1143.6932    2.1820471    5.7409078    0.1590089 
    4600   -942.33775    44.619155   -897.71859    1598.0963    -2891.949    2.1604318    4.0730067   0.16053568 
    4700   -942.12126    48.008087   -894.11317    1719.4756   -2577.9122    2.1608837     5.507246   0.15761615 
    4800   -947.08267    47.930768   -899.15191    1716.7063   -45.652633     2.174448    7.3875946   0.14837536 
    4900   -948.74169     47.44319    -901.2985     1699.243    1976.6286    2.1805125    4.8375575   0.14474622 
    5000   -941.00885    48.558503   -892.45035    1739.1895   -2750.1246    2.1552982    5.8480305   0.15645946 
    5100   -942.73548    46.770834   -895.96465    1675.1616   -1264.4963    2.1636326     4.730115    0.1465882 
    5200   -947.15395    47.426828   -899.72712     1698.657    3647.6941    2.1827907    4.5769162   0.15641192 
    5300   -943.21001    53.387371   -889.82264     1912.142   -4312.9422    2.1562812    6.4479088   0.16527352 
    5400   -940.98733    45.470203   -895.51713    1628.5778   -1069.9109    2.1615496    2.8951444    0.1479612 
    5500   -944.36951    46.024617   -898.34489    1648.4349    -1509.108    2.1705501    5.0747023   0.14961144 
    5600   -937.99509    49.155279   -888.83981    1760.5638    833.36008    2.1614752    4.2821745   0.14427441 
    5700   -941.66021    46.379886   -895.28032    1661.1593    3460.5128    2.1746732    5.2416154   0.13108692 
    5800   -944.95301    46.172578   -898.78043    1653.7343   -1843.4467     2.167436    4.7264165   0.13802537 
    5900   -942.89603    50.492389   -892.40364    1808.4543   -1216.2857    2.1633598     5.910449   0.12424553 
    6000   -940.36899    48.818819   -891.55017    1748.5131    4182.2834    2.1680711    5.2118056    0.1231335 
    6100   -947.48098    48.133047   -899.34793    1723.9512   -2215.7586    2.1721363    5.5552376   0.13428565 
    6200   -943.54466     47.53395   -896.01071    1702.4937   -430.16397    2.1663977     5.896289   0.14576326 
    6300   -946.08895    55.424141   -890.66481    1985.0917   -1744.3264    2.1642844    4.9862205   0.13203578 
    6400   -945.29654    45.270861   -900.02568    1621.4381   -244.04685    2.1731826    5.9568434   0.12031931 
    6500   -946.48149    47.077355   -899.40414    1686.1401   -7806.3601    2.1594641    4.7530981   0.12675068 
    6600    -943.5152    49.098211   -894.41699    1758.5199    5463.7257    2.1811223    6.5660544   0.12656768 
    6700   -944.03123    45.742852   -898.28837    1638.3431     6138.563    2.1868959    5.9482426    0.1419014 
    6800   -951.00689    47.091642   -903.91525    1686.6518   -10162.649     2.162619    5.8933969   0.12166285 
    6900   -942.12442    45.402463   -896.72196    1626.1516   -446.58663    2.1636218    6.2681549   0.12860707 
    7000   -939.66182    45.853906   -893.80791    1642.3206    13271.433     2.192828    6.1408134   0.12813346 
    7100   -945.05321    42.723047   -902.33016    1530.1846   -1636.5256    2.1732401    5.8391026   0.14108101 
    7200   -940.96576     44.09719   -896.86857    1579.4014   -10292.571    2.1377031    6.3288967   0.13112834 
    7300   -944.34452    50.898816    -893.4457     1823.011    7385.7444    2.1843208    6.3453517   0.13855182 
    7400   -948.20771    50.663283   -897.54443    1814.5751    5281.7119     2.190031    5.0331565   0.11533677 
    7500   -946.04278    44.052324   -901.99045    1577.7945   -10798.043    2.1487338    5.2591534   0.12379502 
    7600   -940.25285    46.791182   -893.46167    1675.8905   -785.26639    2.1611297    6.2031912   0.13293064 
    7700   -940.20244    47.389449   -892.81299    1697.3182    11238.866    2.1907733    4.2770565   0.13288253 
    7800   -946.19178    48.182602   -898.00918    1725.7261   -4532.2857    2.1617525    6.7895463    0.1254282 
    7900   -941.31575    44.947576   -896.36817    1609.8592   -4334.2848    2.1585049    6.4418118    0.1195684 
    8000   -937.41087    49.947848   -887.46302    1788.9508      74.9132    2.1574798    5.8067944   0.13912246 
    8100   -941.63467    45.314467    -896.3202    1622.9999    6057.0044    2.1807834     5.759054   0.13313073 
    8200   -944.77683    46.808104   -897.96873    1676.4965   -2610.9463    2.1637262    5.8748062   0.13518267 
    8300   -937.59141    47.134265   -890.45714    1688.1784    -2113.798    2.1546876    3.6876719   0.15616551 
    8400   -942.97059    48.450921   -894.51967    1735.3363    1699.6818    2.1741662    5.0426353   0.12885774 
    8500   -946.59198    48.073469   -898.51851    1721.8173   -659.87937    2.1733259    4.9919058   0.11584963 
    8600   -941.71202    46.368421    -895.3436    1660.7487   -382.16832    2.1648788    5.3715523     0.115591 
    8700   -940.88765    50.152474   -890.73518    1796.2797    1204.6129    2.1654823    4.7900333   0.13423051 
    8800   -947.83781    46.753883   -901.08393    1674.5545    2304.9684    2.1847521    5.9362466   0.12238796 
    8900    -943.9515    45.044199    -898.9073    1613.3199   -7960.6434    2.1520015    5.3438479   0.13233251 
    9000   -941.62774    46.414971   -895.21277    1662.4159    286.28164    2.1667266    5.8071472   0.12939505 
    9100   -946.06188    51.293777    -894.7681    1837.1571    8795.3256    2.1935645    5.9884006   0.13173763 
    9200   -949.23438    44.639851   -904.59453    1598.8376    -1771.854    2.1759277    4.5172644   0.13508902 
    9300   -943.68195    45.213845    -898.4681     1619.396   -12458.853    2.1385529    6.0921272   0.13059389 
    9400   -944.03198    49.412008   -894.61997    1769.7589    7837.2426    2.1864963    5.1857241   0.11671435 
    9500   -947.52911    48.328442   -899.20066    1730.9495    7736.8326    2.1957454    5.8186932   0.11744611 
    9600   -949.30027    42.996555   -906.30372    1539.9807   -9638.3686    2.1568129    6.5209014   0.10307995 
    9700   -944.65675    47.800067   -896.85668    1712.0251   -6229.0666     2.151505     4.707829    0.1116229 
    9800   -944.07346    49.106975   -894.96648    1758.8338    9193.3232    2.1892676     5.115996   0.12349114 
    9900   -943.24409    43.098025   -900.14607    1543.6149    3030.9493    2.1766003     4.698784   0.13196247 
   10000   -947.12617    42.967585   -904.15858    1538.9431   -6317.3777    2.1609997    5.7008663   0.14048752 
   10100   -943.08607    49.167161   -893.91891    1760.9894   -1114.0735    2.1589809    4.2993533   0.13859941 
   10200   -944.12358    48.892725   -895.23086    1751.1601    7746.6012    2.1855335    6.0233082   0.13411733 
   10300   -944.44372    46.223467   -898.22025     1655.557   -695.52236     2.165894    5.7932562   0.12312602 
   10400   -941.69926    49.476522   -892.22274    1772.0696   -4350.7505    2.1489346    6.4653193   0.11613222 
   10500   -938.30653    48.020496   -890.28603      1719.92    4825.1251    2.1636639    5.3276697   0.13576541 
   10600   -942.39341    46.344244   -896.04917    1659.8828    1687.1435    2.1722658    4.6673669   0.12796491 
   10700    -941.3729    44.977708   -896.39519    1610.9384    -2552.935    2.1546431    6.0498828   0.13562969 
   10800   -934.99432     48.37531   -886.61901    1732.6282    2323.5487    2.1511187    7.3461424   0.17103623 
   10900   -943.00302    47.725252   -895.27777    1709.3454    9876.6264    2.1885279    4.2120024   0.15556991 
   11000   -943.39712    45.919378   -897.47774    1644.6656   -3311.4024    2.1579478     4.196312   0.15639573 
   11100   -940.49873    49.120144   -891.37858    1759.3054   -9980.4736    2.1373541    4.8735299   0.16169289 
   11200   -937.42435    49.664271   -887.76008    1778.7941    9959.5118     2.178931    8.2506839    0.1470461 
   11300   -944.37576     48.48414   -895.89162    1736.5261    12540.382     2.205719    3.3248237   0.14041036 
   11400   -940.85558    45.447931   -895.40765    1627.7801   -12445.259    2.1302805    0.6824988   0.13927711 
   11500   -938.14645    46.379188   -891.76727    1661.1343   -9156.7249    2.1333487    6.1079348   0.13783681 
   11600   -946.90016    45.776748   -901.12341    1639.5571    16088.118    2.2144875    5.0290641   0.13742916 
   11700   -943.50357    46.891545   -896.61202    1679.4851     2116.677     2.175288     5.347063   0.15758464 
   11800    -942.1708    48.049337   -894.12146     1720.953   -5033.5553    2.1503933    5.0553753   0.18125241 
   11900   -945.62207    47.349514   -898.27256    1695.8879   -948.04684    2.1748542    4.2334649   0.17914016 
   12000    -946.6476    44.848582   -901.79902    1606.3136    5695.2787    2.1943594    6.0011704   0.16404833 
   12100   -937.50749    44.840306   -892.66718    1606.0172   -2959.0192    2.1539723    4.4499913   0.15635572 
   12200   -941.86514    45.862168   -896.00297    1642.6165   -6483.2136    2.1515782    8.2674919   0.15001988 
   12300   -943.80891    44.585274   -899.22364    1596.8828    5194.6638    2.1882078    4.6678355    0.1454313 
   12400   -945.77122    52.511872   -893.25935    1880.7848    2695.5771    2.1802091    4.2813726   0.13763822 
   12500   -936.67249    45.362357   -891.31014    1624.7151   -5255.3931    2.1447706    3.8597105   0.14296794 
   12600   -940.42511      44.0229   -896.40221    1576.7406   -2440.3227    2.1568931    5.3186365   0.15670985 
   12700   -945.94837    47.843613   -898.10475    1713.5847    9315.3743    2.1977576     5.619326   0.16058919 
   12800   -934.85385    47.124586   -887.72926    1687.8318    284.92264    2.1528417    1.3769623   0.17523448 
   12900   -939.34207    45.657644   -893.68443    1635.2912   -5419.5886    2.1493324    5.7520956   0.17865487 
   13000   -943.78046    46.891665    -896.8888    1679.4894    4957.7401    2.1817323    3.4353217   0.15989702 
   13100   -945.24321    48.194222   -897.04899    1726.1423    10785.224    2.2003166    8.4022346   0.15529364 
   13200   -933.45008    47.469192   -885.98089    1700.1743   -12056.124    2.1199293     5.497731   0.17081952 
   13300   -940.08227    45.119955   -894.96231    1616.0332   -5752.4127    2.1560056    3.6992699    0.1629864 
   13400   -942.01464    47.748544   -894.26609    1710.1797    18523.762    2.2115334    7.2438873   0.16048769 
   13500    -946.3004    48.611298    -897.6891    1741.0804   -3757.8523    2.1624781    5.9658344   0.15280901 
   13600   -936.77071    49.357417   -887.41329    1767.8037   -7530.3604    2.1350468    4.5179963   0.17258094 
   13700   -938.22844    45.600742    -892.6277    1633.2532    7465.7703    2.1788578     6.867145   0.16518069 
   13800   -945.35453    49.068927    -896.2856     1757.471    380.35987    2.1744549    7.4264749   0.14690417 
   13900   -938.69777    46.271823   -892.42595    1657.2889   -103.45009    2.1639891    4.2808192   0.15014616 
   14000   -940.51748    52.931118   -887.58636    1895.8007   -3266.4194    2.1548468    6.8673074   0.13520599 
   14100   -945.20093    47.721299   -897.47963    1709.2039    5163.2678    2.1824283    6.5582436   0.12474546 
   14200   -944.62071    49.681122   -894.93959    1779.3976   -1683.2542    2.1651191     6.713522   0.12191124 
   14300   -942.40619    47.868984    -894.5372    1714.4934    -2536.253    2.1594596    5.7149192   0.12985283 
   14400   -949.21461    45.881783   -903.33283    1643.3191    4368.4581    2.1943427    8.9693071    0.1248834 
   14500   -943.83389    48.022391    -895.8115    1719.9879    1533.4309    2.1716321    6.9299004   0.14474927 
   14600   -945.44969    50.011207   -895.43848    1791.2201   -5120.9151    2.1556866    6.0516334   0.13362875 
   14700   -948.68382    45.092868   -903.59095     1615.063    1615.9678    2.1857067    6.0511885   0.12770342 
   14800   -943.24018    44.482849   -898.75733    1593.2143    8575.7965    2.1913573    5.5805374   0.12594709 
   14900   -941.09657    46.406032   -894.69054    1662.0958   -3137.0696    2.1587825    5.8414477    0.1272903 
   15000   -944.61755    45.584555     -899.033    1632.6735    -9015.352    2.1488142    5.9453882   0.12137685 
   15100   -947.34541     45.69325   -901.65216    1636.5665    7102.6815    2.1955872    6.8948665   0.12135254 
   15200   -936.62571    45.277027   -891.34869    1621.6589    9697.8131    2.1760133    6.7400242   0.13467099 
   15300   -940.99564    45.751241    -895.2444    1638.6435   -7776.7205    2.1376585    9.0144044   0.14115937 
   15400   -946.83873    50.132875   -896.70586    1795.5778   -3627.1852    2.1693508    7.7168133   0.14338482 
   15500   -949.71448    45.036335   -904.67815    1613.0382    7147.0534    2.2007818    8.3668321   0.13588376 
   15600   -946.56656    44.477176   -902.08939    1593.0112   -5289.7013    2.1680578    10.377501   0.15763917 
   15700   -943.28605    46.634147    -896.6519     1670.266    514.53688    2.1705387    8.3834377   0.13078325 
   15800    -946.2622    52.437961   -893.82424    1878.1376    245.37323    2.1746763    16.302902   0.14943099 
   15900   -944.81659    47.754338   -897.06225    1710.3872   -4270.5077    2.1635217    13.767725   0.14229028 
   16000    -952.0509    47.979495    -904.0714    1718.4515   -2264.8223    2.1776515    12.129913   0.14208313 
   16100   -945.82627    50.971139   -894.85513    1825.6014    1891.1181     2.176577    12.840499   0.15722752 
   16200   -943.09466    47.951583   -895.14308    1717.4518   -2578.9522     2.162116     15.15384   0.15011273 
   16300   -944.65876    43.518491   -901.14027    1558.6745   -7906.4108    2.1493101    11.422418   0.14685869 
   16400   -946.97206    48.701847   -898.27021    1744.3235    6632.7865    2.1893134    11.981959   0.15388279 
   16500   -942.82129      51.3004   -891.52089    1837.3943    7468.8437     2.184282    14.228684   0.15672212 
   16600   -944.43632    46.792491   -897.64383    1675.9373   -9808.8218    2.1454596    12.293759   0.17033575 
   16700   -940.38798    44.281255   -896.10673     1585.994   -3200.5241    2.1612254    12.708562    0.1748777 
   16800   -933.20964    46.868165   -886.34147    1678.6477    12700.091    2.1776085    13.487384    0.1635766 
   16900   -944.38976    50.017242   -894.37252    1791.4362   -221.76995    2.1728755    10.875058   0.16216354 
   17000    -943.9008    46.000388   -897.90041    1647.5671   -9635.9633    2.1457032    12.442045   0.14921298 
   17100   -943.22989    52.213071   -891.01682    1870.0828    2333.5393    2.1708361    12.563142   0.14018384 
   17200   -942.28345    51.509702   -890.77375    1844.8907    4340.2331      2.17521    12.157236   0.13890085 
   17300   -946.10961    48.149174   -897.96043    1724.5288   -5275.8306     2.161011    11.999248   0.15288487 
   17400   -945.94202    50.759942   -895.18208     1818.037   -1595.7472    2.1653198    11.707213   0.15310725 
   17500   -940.87726    51.171944   -889.70531    1832.7934    2185.6754    2.1693922    17.313819   0.15054025 
   17600   -938.81661    53.612275   -885.20434    1920.1973   -4069.3493    2.1442153    14.532151   0.14717299 
   17700    -940.0141    44.893123   -895.12098    1607.9089    2183.7155    2.1735054    9.8922136   0.14669771 
   17800   -942.48388    47.730333   -894.75355    1709.5274    4640.2398    2.1805644    5.6786134   0.12154358 
   17900   -941.66067    45.439337   -896.22134    1627.4723    472.59272     2.168767    7.2576105   0.13323801 
   18000   -940.98705    54.307436   -886.67961    1945.0954   -3100.5392    2.1480693    5.3500034   0.13034388 
   18100   -946.33562    54.784569   -891.55105    1962.1846   -2311.8168    2.1698029    6.3674047   0.11422874 
   18200   -945.22646    48.959357   -896.26711    1753.5466   -2621.1632    2.1682491    6.5048159   0.12452053 
   18300   -946.09689    48.214191    -897.8827    1726.8575   -1782.7744    2.1681968    6.1253898   0.12045096 
   18400   -942.90566    48.398869   -894.50679     1733.472    1662.2777    2.1718637    6.0441692   0.13356771 
   18500   -939.69754    50.299426   -889.39811     1801.543   -4594.4121     2.152531     6.098021   0.15073807 
   18600   -943.58867    46.727158   -896.86151    1673.5974   -2882.6049    2.1628387    6.5570999    0.1228371 
   18700   -943.61016    46.421648   -897.18851    1662.6551    3596.2079    2.1811484    4.5397725   0.13260367 
   18800   -939.81694    49.430108   -890.38683    1770.4072    1467.8546    2.1665169    7.7882806   0.12171682 
   18900   -938.08535    47.104956    -890.9804    1687.1287   -4294.0213    2.1486062    5.3229308   0.13516736 
   19000   -946.84073    48.979418   -897.86132    1754.2651   -5402.2803    2.1658063    5.4352075   0.14268192 
   19100   -946.15448     50.71881   -895.43567    1816.5639    7431.4569    2.1920231    6.1021378   0.12039159 
   19200   -938.50554    49.695682   -888.80986    1779.9191   -2343.2999    2.1525704    6.8778152   0.15878931 
   19300   -937.44673    45.913043   -891.53368    1644.4387    -10872.68    2.1265477    6.8364431   0.14519948 
   19400   -945.81688    48.553145   -897.26373    1738.9976    4255.6268    2.1818286    7.2092596     0.128264 
   19500   -942.90375    47.849768   -895.05398    1713.8052    15520.936    2.2125602    6.3251435   0.14130613 
   19600   -944.22021     47.60219   -896.61802    1704.9378   -11388.151    2.1418532    6.1194807   0.13190206 
   19700    -948.4324    42.434012   -905.99839    1519.8324   -5358.7495    2.1696277    4.7116928    0.1145697 
   19800   -942.66706    44.237711   -898.42935    1584.4344    9284.9393     2.195616    4.3066303   0.14502033 
   19900   -941.36147    46.077274    -895.2842    1650.3208    1883.3036    2.1714356    6.2028887   0.13892058 
   20000   -943.78299    47.727379   -896.05562    1709.4216   -8061.4919        2.154    7.6405858   0.15350774 
   20100   -948.52551    43.860543   -904.66497    1570.9256     3893.137    2.1961509    5.6885988   0.14531751 
   20200   -943.32946    47.455982   -895.87348    1699.7012    2031.3077    2.1789015    6.6271482   0.15562242 
   20300   -942.41012    46.490743   -895.91937    1665.1298   -3817.4623    2.1620949    6.9856688   0.14696836 
   20400   -945.24441    43.628085   -901.61632    1562.5998   -49.331138    2.1765191    5.9929539   0.13639086 
   20500   -948.70909    46.562697    -902.1464    1667.7069    4910.4853    2.1989024    5.2509244    0.1406357 
   20600   -942.80975    48.077888   -894.73186    1721.9756   -2230.3871     2.165803    5.4008996   0.13464622 
   20700   -944.11098    46.464969   -897.64601    1664.2067   -8257.6113    2.1524187    5.7749047   0.13416977 
   20800   -943.70136    43.235192   -900.46617    1548.5278    6961.6869    2.1890874    5.5193074   0.12987039 
   20900   -947.22748    50.017655   -897.20982     1791.451    8385.8504    2.2014983    8.2000343   0.14449742 
   21000   -939.40518    47.181715   -892.22347    1689.8779    -8977.608    2.1378694    7.5171057   0.16349955 
   21100     -941.378     44.56962   -896.80838    1596.3222   -11233.489    2.1413964    7.1716974   0.15033344 
   21200   -940.86113    45.347856   -895.51327    1624.1957    20033.718    2.2143042    6.9629427   0.13028905 
   21300   -946.61348     45.98747   -900.62601    1647.1044    1479.6611    2.1832538     7.403557   0.12150339 
   21400   -950.43878    43.108355   -907.33042    1543.9849   -10412.691     2.164478    6.7664174   0.12044901 
   21500   -944.86542    45.385729   -899.47969    1625.5522   -537.97349     2.174698    5.1614966   0.13823917 
   21600   -944.07978    48.054512   -896.02526    1721.1383    4218.4949     2.180452    4.9549845   0.12730787 
   21700   -941.84441    46.100611    -895.7438    1651.1567    18.008394    2.1632342    6.2656489   0.13058668 
   21800   -946.08572    40.333958   -905.75176    1444.6161    -2217.248    2.1727205    5.4049033   0.12948881 
   21900   -944.95345    44.919316   -900.03413     1608.847    443.60772     2.171722    5.8723975   0.13267946 
   22000   -941.19748    46.044254   -895.15323    1649.1382     5523.069    2.1792166    5.6851024    0.1429921 
   22100   -944.76614    46.680784   -898.08535    1671.9364   -2537.3108    2.1661828    6.6020473    0.1341984 
   22200   -947.83429    42.276691    -905.5576    1514.1978   -1547.0609    2.1781002    6.8751657   0.12530166 
   22300   -943.99113    47.956506   -896.03462    1717.6281   -18.309872    2.1687628    5.6204692   0.12868782 
   22400   -945.99725    50.340036   -895.65721    1802.9975    1444.8989    2.1773549    6.8636046   0.12700804 
   22500   -945.35879     44.69138   -900.66741    1600.6831   -2488.7015     2.167418    6.3487488    0.1298958 
   22600   -949.52006    44.016512   -905.50355    1576.5118   -2982.0418    2.1770946    7.8407105   0.11824882 
   22700   -943.62274    48.296902   -895.32584    1729.8199    1822.4414    2.1702707    6.6732013   0.12742992 
   22800   -940.97782    44.960794   -896.01703    1610.3326    5435.7764    2.1767273    6.6593089   0.13276025 
   22900   -946.77815    48.063736   -898.71441    1721.4687   -3798.2501    2.1605484    6.4492466    0.1239914 
   23000   -944.34337    48.430749   -895.91262    1734.6138    51.422245    2.1647966    6.1709193   0.12338462 
   23100   -939.94398    50.463901   -889.48008    1807.4339    5022.2297    2.1658876    6.3231167   0.13752472 
   23200   -946.58842    50.695225    -895.8932    1815.7191   -6524.8752    2.1555597    5.7089999   0.12182596 
   23300   -945.95619    47.240101   -898.71609    1691.9691   -1882.3771    2.1649996    4.8444582   0.12697623 
   23400   -943.07567    49.014714   -894.06095    1755.5293    8882.7006    2.1876949    6.3442787   0.12383661 
   23500   -942.46447    52.577361   -889.88711    1883.1304   -3384.7372    2.1504857    6.0546906   0.13646395 
   23600   -943.88763    45.380765   -898.50687    1625.3744   -8988.8283    2.1475719    5.1152122    0.1262626 
   23700   -943.53708    47.315154   -896.22193    1694.6572     7567.747    2.1868253     6.434365   0.12944539 
   23800   -941.34805    51.442681   -889.90537    1842.4903    5894.3171    2.1773347    5.3189029   0.12567588 
   23900   -940.90652    47.784078   -893.12244    1711.4524   -12094.311    2.1306883    4.8111527   0.13309518 
   24000   -944.70769    45.628498   -899.07919    1634.2473   -2523.3813     2.162884    5.9418421    0.1304987 
   24100   -940.12481    46.479577   -893.64524    1664.7299    13361.418     2.195423     7.662363   0.14114023 
   24200   -943.37161    48.406626   -894.96498    1733.7498   -2924.3638    2.1591621    5.9782484   0.13741135 
   24300   -945.46989     42.54574   -902.92415    1523.8341   -2013.6403    2.1659378    9.2148203   0.11934019 
   24400    -944.5948    48.613712   -895.98109    1741.1669     2034.894    2.1744456    4.5490705   0.11665745 
   24500   -940.75627    46.973227   -893.78305    1682.4106    3113.3864    2.1685355    5.8324052     0.121268 
   24600   -948.16773    44.986525   -903.18121    1611.2542   -3674.9036    2.1727494    5.6692656   0.11531504 
   24700    -945.0391    46.627332   -898.41177     1670.022    -3168.044    2.1646863    6.1191288   0.12588679 
   24800   -939.56844    45.975819   -893.59263    1646.6871    6405.0465    2.1729037     5.912574   0.12948296 
   24900   -948.05127    47.641635   -900.40963    1706.3506   -652.97813    2.1758737    6.8628178   0.13638879 
   25000   -943.79276    44.152688   -899.64008    1581.3892   -3444.7407    2.1620347    8.4666741   0.13247696 
   25100   -943.71561     50.38911    -893.3265    1804.7552   -2196.3778    2.1606021     7.903251   0.14409694 
   25200   -950.14133    51.826356   -898.31498    1856.2321    1032.2477    2.1822027    5.9488535   0.12109689 
   25300   -944.72333    43.712505   -901.01082    1565.6234    525.32707    2.1776361    5.6756767   0.13261569 
   25400   -937.99504    46.694625   -891.30042    1672.4321   -9326.7312     2.134201     5.366557   0.14338227 
   25500   -943.16676    45.734709   -897.43205    1638.0514    6309.0943    2.1853683    6.3290695   0.12405551 
   25600   -947.19975    48.910034   -898.28972      1751.78    10897.429    2.2026807    5.1770638   0.13413054 
   25700   -937.78216    46.704244   -891.07791    1672.7767     -6932.56    2.1391201    6.2667651   0.14557753 
   25800   -941.05659    46.244722   -894.81187    1656.3182   -8789.6179    2.1434491    5.5540479    0.1608119 
   25900   -945.41884    47.373003   -898.04584    1696.7292    12848.177    2.2037752    7.4784733   0.13719122 
   26000   -945.37548    51.469875   -893.90561    1843.4643    3862.3694    2.1800394     6.060611   0.13204181 
   26100   -942.62658    49.372364   -893.25421     1768.339   -14172.474    2.1320937     6.253243   0.12798832 
   26200   -950.42511    48.758743   -901.66636    1746.3614   -205.25286    2.1804759    4.6606371   0.12198127 
   26300   -944.01077    49.514656   -894.49611    1773.4354    9167.3361     2.186961    6.9578063   0.12318637 
   26400    -945.2825    50.942739   -894.33976    1824.5842   -3319.4169    2.1611199    5.9949215   0.12312973 
   26500   -949.76811    46.672119   -903.09599     1671.626   -5517.3784    2.1671516    5.4357833   0.11999487 
   26600   -944.80518    48.914867   -895.89032    1751.9531    1022.1775    2.1718637    7.2516073   0.11696431 
   26700   -943.13262    49.644296   -893.48832    1778.0786    3115.5133    2.1748116    5.9695865   0.13948496 
   26800   -951.66032    49.174418    -902.4859    1761.2493   -5922.8948    2.1718874    5.0651489    0.1305202 
   26900   -941.83506    45.605043   -896.23001    1633.4072   -2472.8829     2.159322     6.666855   0.12570136 
   27000   -943.63369    50.520483   -893.11321    1809.4605    3113.3675    2.1757092    6.5539568   0.11979754 
   27100   -946.42234    45.814315   -900.60803    1640.9026    476.36204    2.1767345    5.4715285   0.12691373 
   27200   -943.25156    48.343872   -894.90769    1731.5022    -6130.102    2.1504538    6.9173643   0.12078057 
   27300   -940.22312    48.225642   -891.99748    1727.2676    578.79597    2.1695138    6.0018633   0.15972291 
   27400   -945.59028     46.83418    -898.7561    1677.4305     3435.126    2.1818759    6.5540792   0.12648473 
   27500   -950.15819      50.2315   -899.92669    1799.1102   -9193.7955    2.1570335    4.9912219   0.11064611 
   27600   -941.97106    50.581818   -891.38924    1811.6573     -6836.22    2.1475548    7.1654411    0.1202232 
   27700   -944.81474    47.487262   -897.32748    1700.8215    11546.118    2.2024684    5.3506608   0.12049704 
   27800   -944.67332    45.282098   -899.39123    1621.8406    2100.5173    2.1802713    5.5952002   0.12270258 
   27900   -942.82387    50.797192   -892.02667    1819.3712   -15185.753    2.1284802    5.6378901   0.14108928 
   28000   -946.38607    48.586475   -897.79959    1740.1913    606.63111    2.1769431     5.978697   0.12598405 
   28100   -946.89211    47.869218   -899.02289    1714.5018     9488.613    2.2020826    6.2922383   0.12579483 
   28200    -942.5595    48.333733   -894.22577     1731.139   -5522.9561    2.1519027    7.0109797   0.14685489 
   28300   -940.39161    48.100252   -892.29136    1722.7766   -8554.2682     2.138686    4.5982026   0.15984325 
   28400   -947.84567    46.374172    -901.4715    1660.9547    8706.2207    2.1988317    6.4099698   0.13834861 
   28500   -944.65774    49.619662   -895.03808    1777.1963     1988.341     2.175599    6.3294433   0.11975174 
   28600   -943.21675    48.741543   -894.47521    1745.7453   -7954.2392    2.1469219    6.4268728   0.12441935 
   28700   -949.78929    47.091774   -902.69752    1686.6566   -1998.7023    2.1778456    5.2169508   0.11908088 
   28800   -943.30262    47.191503   -896.11111    1690.2285    6256.8038     2.185325    7.0549642   0.13115125 
   28900   -944.33901    50.201506    -894.1375    1798.0359    -931.8814    2.1642271    4.9035455   0.12441707 
   29000   -948.59347     46.61272   -901.98075    1669.4986   -6565.8157    2.1624818    7.2457539   0.11968031 
   29100   -946.66455     49.66714   -896.99741    1778.8968    1198.5879    2.1791668    6.3931463   0.12416487 
   29200   -943.35591    51.459416   -891.89649    1843.0897    5079.6354    2.1786705    6.1135553   0.13714521 
   29300   -945.90074    45.688467   -900.21227    1636.3952   -7379.3722    2.1572975     6.504066   0.14713474 
   29400   -943.75633    47.048949   -896.70738    1685.1227   -6681.4524    2.1551839    5.4118544    0.1260929 
   29500    -941.5495    52.117527   -889.43198    1866.6608    17605.514     2.200276    8.9977308   0.13462066 
   29600   -943.64406    47.572954    -896.0711    1703.8907   -925.03749    2.1658283    18.551857   0.13217768 
   29700   -942.63433     43.08686   -899.54747    1543.2151   -19124.812    2.1202253    20.991292   0.14669111 
   29800   -937.15794    45.079802   -892.07813     1614.595    10007.255    2.1825487    16.678658   0.14851028 
   29900   -940.01598    48.015983   -891.99999    1719.7584    10775.012    2.1872549    23.535711   0.16580757 
   30000   -947.19187    47.551133   -899.64073    1703.1091   -9618.3163    2.1523632    20.328756    0.1477074 
   30100    -939.4853    44.900607   -894.58469    1608.1769   -1915.4634    2.1561713    24.499844   0.16331133 
   30200   -939.81481     49.98211    -889.8327    1790.1779    6377.2926     2.178395    21.798932   0.17496646 
   30300   -944.24462    44.835467   -899.40915    1605.8438    3580.9334    2.1819334    27.137703   0.16491577 
   30400   -943.18691    46.409674   -896.77724    1662.2262   -9909.0425      2.14739    17.000067   0.14968145 
   30500   -942.82054     52.65256   -890.16798    1885.8238   -4816.6661     2.159182    33.930374   0.15689988 
   30600   -948.73081    49.667016    -899.0638    1778.8924    6258.1917    2.1971132    49.177065   0.11771408 
   30700   -942.15215    43.344194   -898.80795    1552.4318   -2551.5745    2.1664722    47.442867   0.13198684 
   30800   -940.16691    46.777968   -893.38894    1675.4172   -4951.7128    2.1521925    44.869719   0.14604456 
   30900   -946.46706    46.439315   -900.02775    1663.2878     4353.598    2.1867067    44.454599   0.13395009 
   31000   -944.72456    44.274052   -900.45051     1585.736    4049.9507    2.1836299    48.778184   0.14094328 
   31100    -939.2901    45.004892    -894.2852     1611.912   -1476.1574    2.1582935    46.975525    0.1465239 
   31200   -941.56195    44.282696   -897.27926    1586.0456   -1979.3492    2.1638363    46.098037   0.14078272 
   31300   -945.86026    43.454143   -902.40612    1556.3698    8650.6946    2.2008335    44.917405   0.12282559 
   31400   -939.70447    46.771258   -892.93321    1675.1768    2454.9761    2.1685993    50.242393   0.14170806 
   31500   -940.19961    44.275041   -895.92457    1585.7714   -9715.1059    2.1370148    48.054117   0.13287364 
   31600   -945.97571    44.574908    -901.4008    1596.5116    3453.2069    2.1859651    45.436846   0.12863008 
   31700   -944.55607    46.278602   -898.27747    1657.5317    17935.718    2.2188601    44.157517   0.14359703 
   31800   -940.79168    47.210803   -893.58088    1690.9198   -8455.3448    2.1430276    42.315518    0.1391727 
   31900   -944.45194    45.234036   -899.21791    1620.1191   -9478.8012    2.1462587    43.404588   0.13271691 
   32000   -948.37936     50.94401   -897.43536    1824.6297    8572.7908    2.1964247    45.682788   0.12385522 
   32100   -934.88483    45.659586   -889.22524    1635.3608    4143.1255    2.1656087    42.034321   0.14518482 
   32200   -941.43668    43.403488   -898.03319    1554.5555   -3662.0953    2.1562041    44.561335   0.13183349 
   32300   -942.90727    45.111663   -897.79561    1615.7362    -533.5643    2.1687564    45.231122   0.12594229 
   32400   -940.69212    51.194732   -889.49739    1833.6097    5682.6223     2.172796    45.880555   0.12714619 
   32500   -944.68051    47.338772   -897.34174    1695.5031   -1422.9816     2.166589    46.342998   0.13688877 
   32600   -943.33263    43.950151   -899.38248     1574.135   -5258.8233    2.1598669       52.094   0.13417846 
   32700   -940.91788    49.063377   -891.85451    1757.2722    3805.0353    2.1736009    47.530468   0.13154135 
   32800   -945.95627    47.436988   -898.51928    1699.0209    4032.0534    2.1833227    50.124844   0.11403612 
   32900   -944.82566    43.998988   -900.82668    1575.8842   -6737.0455    2.1581333    46.831052   0.12604682 
   33000   -942.02846    48.223648   -893.80481    1727.1962    -1737.283    2.1582199     48.99923   0.13192522 
   33100   -943.08839     45.75809    -897.3303    1638.8888    9919.5101    2.1921723    50.897344   0.13424557 
   33200   -945.76846    43.478532   -902.28993    1557.2434     829.6531    2.1777437    49.934672    0.1400312 
   33300    -944.6028    50.189761   -894.41304    1797.6152   -14903.539    2.1317872    48.556203   0.12918254 
   33400   -944.52082    49.091434   -895.42938    1758.2771    4405.0841    2.1803588    49.229165    0.1170222 
   33500   -949.55467    49.712691   -899.84198    1780.5283    15374.338    2.2181242    48.364996   0.11519892 
   33600    -941.2806    49.717227   -891.56337    1780.6908   -12088.927    2.1282452    49.479306   0.12758618 
   33700   -946.16669    51.729844   -894.43684    1852.7754   -12284.615    2.1366987     47.02245   0.11436558 
   33800   -950.44024    52.916275   -897.52396    1895.2691    8456.3476    2.1995776    48.172294    0.1219021 
   33900   -945.74898    46.597746   -899.15123    1668.9623    3621.7829    2.1832362    45.416469   0.11965986 
   34000   -936.23795     46.57606   -889.66189    1668.1856   -8760.4957    2.1296889    48.579949   0.16065577 
   34100   -945.80658    48.505722   -897.30086    1737.2991    795.72987    2.1756152    63.212238   0.16212453 
   34200    -943.3517     46.40588   -896.94582    1662.0903    6689.7729     2.187192     67.92803   0.16618346 
   34300   -938.25073    49.761127   -888.48961    1782.2631   -2013.0151    2.1463357    74.959957   0.16594913 
   34400    -943.5381    48.676695   -894.86141    1743.4227     -3560.77    2.1572268    63.570149   0.16026601 
   34500   -946.39278    49.344675    -897.0481    1767.3473    3593.7162    2.1787489     64.42342   0.14693682 
   34600   -942.22778    49.229616   -892.99817    1763.2263    2264.0847    2.1683736    71.656673   0.14987558 
   34700   -939.60353     50.46607   -889.13746    1807.5116   -7403.6922    2.1388159    62.853097   0.15423227 
   34800   -946.78938    47.712085    -899.0773    1708.8738   -808.53702    2.1779858    64.919491    0.1575115 
   34900    -942.9376    47.979714   -894.95789    1718.4594    8778.2094    2.1860561    66.804374   0.15401101 
   35000   -940.41186    46.895253   -893.51661    1679.6179   -5732.7357    2.1454521     74.54483   0.15619821 
   35100   -947.05495    44.211338   -902.84361    1583.4898   -6928.6872    2.1542464    60.964097   0.15131692 
   35200   -947.41102    48.511192   -898.89983     1737.495    10047.608    2.1962188    76.594583   0.14808421 
   35300   -941.40051    48.182433   -893.21807      1725.72    8761.1577    2.1894788    66.010954   0.15441926 
   35400   -939.49886    42.843554    -896.6553    1534.5007   -14246.206    2.1244885    66.512508   0.18047058 
   35500   -944.45973    42.145863   -902.31387     1509.512   -4032.3569    2.1661926    73.155104   0.15738817 
   35600   -945.34464    51.972188   -893.37246    1861.4553    15206.583    2.2083683    74.948708   0.16233357 
   35700    -942.0841    48.259546   -893.82455    1728.4819   -865.69499    2.1632215    68.893814   0.17458291 
   35800   -945.84605    46.447309   -899.39875    1663.5742   -8938.2257    2.1508388    63.863705   0.15580607 
   35900   -942.94908    47.951504   -894.99758     1717.449    4577.0288    2.1796935     61.14707   0.16099694 
   36000   -939.43264    49.679696   -889.75294    1779.3465    745.92661    2.1667909    72.515749   0.16309174 
   36100    -944.6804    46.825982   -897.85441    1677.1369   -7933.9637    2.1559745    52.529532   0.15069207 
   36200   -942.05873     46.98168   -895.07705    1682.7134     1474.213    2.1753643    47.286194   0.18614411 
   36300   -940.76067    53.725179   -887.03549    1924.2411    4844.7873    2.1730358    47.143515   0.16475667 
   36400   -944.41952    48.355767   -896.06375    1731.9282   -4282.3432    2.1629918    54.649672   0.17544339 
   36500   -943.37257    48.125368   -895.24721    1723.6762   -8129.5553    2.1546511    48.983482   0.17139338 
   36600   -936.79182    48.752674   -888.03915     1746.144    1622.9266    2.1631143    51.593705   0.18560251 
   36700   -945.63419    48.415407   -897.21878    1734.0643    7554.8413    2.1952904    41.236629   0.14808212 
   36800   -942.02194     45.16304    -896.8589    1617.5763   -7054.1417    2.1540445    49.296432   0.16302117 
   36900   -940.13875    48.898931   -891.23982    1751.3824    -7655.256    2.1462436    49.309489   0.14584984 
   37000   -945.15831    46.496173   -898.66214    1665.3243    10853.669    2.1983794    43.952859   0.13056084 
   37100    -944.5766    45.935369   -898.64124    1645.2383    2265.9521    2.1796831    64.028408   0.13778019 
   37200   -938.44489     44.75009    -893.6948    1602.7859   -9221.2536    2.1327893    66.258959    0.1574972 
   37300   -942.90847     46.45169   -896.45678    1663.7311    663.81687    2.1716171    62.344153   0.14246976 
   37400   -945.60449     46.12236   -899.48213    1651.9357    16555.926    2.2172785    67.173394   0.15616145 
   37500   -938.30682    47.515205   -890.79162    1701.8223   -5684.8163    2.1378763    70.071981   0.15087962 
   37600   -943.10068    48.263318   -894.83736     1728.617   -14522.182    2.1311891    52.755544   0.14615958 
   37700   -942.05215    45.596456    -896.4557    1633.0997    11933.078    2.2003871    40.234768   0.14162115 
   37800   -944.93029    46.087761   -898.84252    1650.6965     4759.794    2.1849346    40.662926   0.12542545 
   37900   -943.01028    45.971184   -897.03909    1646.5211   -4450.9688    2.1582014     40.48686   0.13570421 
   38000    -937.5109    47.694967   -889.81594    1708.2607   -883.16436    2.1531848    37.070277   0.14895398 
   38100   -944.66985    50.612505   -894.05734    1812.7564    862.07719    2.1738908     40.62048   0.12835716 
   38200   -945.16732       48.397   -896.77032     1733.405    1988.4121    2.1776538    38.876191   0.13432725 
   38300   -943.84474    44.088747   -899.75599     1579.099   -517.31822    2.1716245    37.182433   0.13882016 
   38400   -950.25611    41.919547   -908.33656    1501.4061   -2054.8808    2.1839347    36.974389   0.12759736 
   38500   -945.58003    43.492423    -902.0876    1557.7409     4599.494    2.1884331    39.935753   0.12149842 
   38600   -946.03869    48.223321   -897.81537    1727.1845    1910.2978    2.1847932     40.56259   0.14022618 
   38700   -947.29428    51.131136   -896.16315    1831.3319   -9414.0598    2.1541208    35.689557   0.12982002 
   38800     -943.773    51.823084   -891.94992    1856.1149   -3874.6065    2.1576472    32.425861   0.13387827 
   38900   -942.16256    51.802542   -890.36002    1855.3792    6097.0113    2.1840553    38.888902   0.16298935 
   39000   -944.95795    44.925764   -900.03218    1609.0779    4689.1116    2.1876527    39.397696   0.15292169 
   39100   -942.23878    44.211046   -898.02774    1583.4793   -7366.6518    2.1507684    37.386742   0.14539655 
   39200   -945.10202    49.163859   -895.93816    1760.8711   -2635.6783    2.1672273    39.140094    0.1514065 
   39300   -942.35401    48.924085   -893.42993    1752.2833    13569.768    2.1989305    40.465493   0.15210476 
   39400    -938.0756     56.07743   -881.99817    2008.4902   -5942.2445    2.1394437     35.35255   0.13709881 
   39500   -939.34906    47.709971   -891.63909    1708.7981   -3925.5524    2.1494017    35.666863   0.14261735 
   39600   -945.80987    50.671111   -895.13876    1814.8554    6645.8387    2.1901035    37.105519   0.12611758 
   39700   -942.88389    46.289811   -896.59408    1657.9332    8106.5033    2.1903961    32.771456   0.13842674 
   39800   -944.56237    45.917723   -898.64465    1644.6063   -12686.136    2.1412277    35.724261   0.16032369 
   39900   -953.41749    44.560896   -908.85659    1596.0097   -878.89489    2.1924923    37.587703   0.14098861 
   40000   -945.13545    45.176804   -899.95864    1618.0693    14785.426     2.213469    40.996238   0.15245282 
   40100   -943.47638    46.564764   -896.91161     1667.781   -5846.4335    2.1595822    39.434003   0.16608583 
   40200   -944.47114    48.178582   -896.29256    1725.5821   -12628.938    2.1405188    35.501452   0.15983221 
   40300   -944.84828    46.601583    -898.2467    1669.0997    8208.6401    2.2003377     29.80844   0.16729294 
   40400   -939.64648    52.388794   -887.25768    1876.3766    5231.4231    2.1730309    36.026245   0.15692419 
   40500   -941.86102    50.489925   -891.37109     1808.366   -3744.9314    2.1512052     40.09606   0.13096475 
   40600   -946.28079    50.089528   -896.19127    1794.0252   -2198.3213     2.163905    36.702848    0.1111264 
   40700   -945.30443    47.010323   -898.29411    1683.7393    2038.0619    2.1785429    35.581283   0.14568463 
   40800    -937.3106    45.411052   -891.89955    1626.4592       2945.9    2.1669613    35.359956   0.15203481 
   40900   -940.93895    50.191017   -890.74794    1797.6602   -1471.9425    2.1511039    35.804339   0.13979587 
   41000   -946.30745    48.521979   -897.78547    1737.8813   -2946.3376    2.1676828    36.442953   0.12591592 
   41100   -945.97527    49.435108   -896.54017    1770.5863    3920.7749     2.182907    37.426598   0.11835348 
   41200   -936.02985    48.474455   -887.55539    1736.1792    538.60532     2.158635    37.468661   0.15142604 
   41300   -942.86226    46.492103   -896.37015    1665.1785   -2967.4241    2.1622432    36.520963   0.12976526 
   41400   -944.83718    46.953106   -897.88407      1681.69   -2461.8613    2.1680042    36.150461   0.13312094 
   41500   -942.56601    49.156759   -893.40925    1760.6168    2474.8625    2.1771157    38.237275    0.1390816 
   41600   -940.98181    51.792515    -889.1893    1855.0201   -426.08209    2.1640858    39.060755   0.14250306 
   41700   -943.20057    43.503045   -899.69753    1558.1213   -1567.6253    2.1679965    37.716632   0.15784366 
   41800   -943.33863    46.072119   -897.26651    1650.1362    2938.1623    2.1782389    35.670048     0.128506 
   41900   -941.81819    48.256251   -893.56194    1728.3639     4613.479    2.1801562    37.267926   0.13919133 
   42000   -939.12645    47.317987   -891.80846    1694.7587   -6280.4833    2.1477762    37.454533   0.14883336 
   42100   -942.09038    40.345813   -901.74457    1445.0407    5476.8289    2.1814862     38.12709   0.13083072 
   42200   -948.49873    51.225646   -897.27308    1834.7169    6029.4811    2.1939635    37.473891   0.12352589 
   42300   -942.41266    47.575551   -894.83711    1703.9837   -2512.9869    2.1567924    39.534033    0.1386341 
   42400   -942.64733    50.995702   -891.65163    1826.4811    -11324.69    2.1407808    35.335596   0.15722276 
   42500   -947.15821    44.974164   -902.18405    1610.8115    12648.309    2.2111619    35.760926   0.14056351 
   42600   -945.39043    47.769371   -897.62106    1710.9256    970.03647    2.1773245    34.665754   0.13047342 
   42700   -944.73493    48.950225   -895.78471    1753.2196   -13392.075    2.1395561    35.817691   0.14126247 
   42800   -944.10827    50.391266     -893.717    1804.8324    971.97317    2.1720437    35.249445   0.13448539 
   42900     -949.096    44.724217   -904.37178    1601.8592    9859.2739    2.2053174    39.258238     0.121522 
   43000    -942.9892    43.088444   -899.90075    1543.2718   -8265.9494     2.150844    36.224786   0.13143311 
   43100   -943.25509    47.009771   -896.24532    1683.7195   -2760.1971    2.1623591    35.864083   0.13543572 
   43200   -942.62431    48.699347   -893.92496     1744.234    7503.9922    2.1868846    36.637869   0.12912655 
   43300   -943.32139    44.324925   -898.99647    1587.5581   -1216.0834    2.1647839    40.729073   0.13927299 
   43400   -946.28151    43.666959   -902.61455    1563.9921   -3643.5612    2.1679976    35.641563   0.14509662 
   43500   -942.53534    45.650269   -896.88508    1635.0271     6569.619    2.1831537    33.261816   0.13211815 
   43600   -940.26137    45.398941   -894.86243    1626.0254    1021.4696    2.1701003    37.296029   0.14227548 
   43700    -945.8101    48.803745   -897.00635    1747.9731   -7355.0992    2.1535555    37.613714   0.11866526 
   43800   -949.11176    46.137013   -902.97475    1652.4605    2091.8735    2.1894187    38.120178   0.12833571 
   43900   -944.84057    48.922435   -895.91814    1752.2242    5858.5592    2.1821146    38.932942   0.12886511 
   44000   -946.49772    50.586556   -895.91117     1811.827   -7295.5476     2.151632    38.205785   0.12525443 
   44100   -947.96737    43.729335   -904.23804    1566.2262   -4243.0334    2.1679317    38.581906   0.14084276 
   44200    -945.3428    45.716664   -899.62614    1637.4051     6132.536    2.1873378    36.306267   0.12886771 
   44300    -942.8557    48.315831   -894.53987    1730.4978    3511.2382    2.1739314    37.322596   0.14701777 
   44400   -942.25119    43.610695    -898.6405    1561.9769   -6662.7701    2.1519703    34.917229   0.14930472 
   44500   -948.71277    44.714112   -903.99866    1601.4973    1287.1049    2.1859026    34.983161   0.13464988 
   44600   -944.53475    50.705529   -893.82922    1816.0882    9289.6836    2.1947452     36.24388   0.14941174 
   44700   -942.92782    47.623519    -895.3043    1705.7017   -4574.2375    2.1546162    37.152212   0.15264321 
   44800   -946.33883    46.441589   -899.89725    1663.3693   -14751.559    2.1393653    37.870462   0.15751197 
   44900   -941.69772    46.398159   -895.29956    1661.8138    17066.522    2.2111874    35.616856    0.1675768 
   45000   -942.64844    53.157817   -889.49062    1903.9202    4601.8128    2.1797462    37.885517   0.13986007 
   45100    -945.5861    47.148796   -898.43731    1688.6989   -12363.614      2.14255    34.695257   0.13453009 
   45200   -943.61554    46.155353   -897.46018    1653.1174   -1091.7803    2.1680738    36.569896   0.14367446 
   45300    -941.0412     50.54423   -890.49697     1810.311    8276.6464    2.1898715    40.623323   0.13250737 
   45400   -940.85448    45.401516   -895.45297    1626.1177   -3241.1041    2.1582876    38.111915    0.1484893 
   45500   -944.43752    44.489501   -899.94802    1593.4526   -6845.4383    2.1553304    37.710962    0.1393611 
   45600   -945.27386    51.599486   -893.67438    1848.1065    5782.2442     2.186054     39.85291   0.13077836 
   45700   -941.63957    44.689871    -896.9497    1600.6291    5021.3998    2.1772164    35.134389   0.14374007 
   45800   -948.50648    44.945895   -903.56058     1609.799   -7084.2277    2.1674609    36.224273   0.12090928 
   45900   -944.33624    48.286998   -896.04924    1729.4651   -199.84326    2.1691609    37.956188    0.1302733 
   46000   -946.61793    52.191661   -894.42627     1869.316    5083.5553    2.1835002    36.910103   0.11344423 
   46100   -950.54632    47.127515   -903.41881    1687.9367    -3955.187    2.1745763    34.357795   0.10560492 
   46200   -943.44829    46.560925   -896.88736    1667.6435   -7243.9583    2.1526363    35.980477   0.12811347 
   46300   -944.35553    50.686674   -893.66886    1815.4128    5072.5012    2.1817917    35.407392   0.11987325 
   46400   -945.90649    46.219049   -899.68745    1655.3987    4361.9213    2.1828749    36.500412   0.11766006 
   46500   -944.74827    47.088022   -897.66025    1686.5222   -6746.8283    2.1516102    36.342505   0.13338523 
   46600   -939.90917    48.080887   -891.82829     1722.083   -844.76251     2.158478    35.525462   0.13218605 
   46700   -940.92452    44.052225   -896.87229     1577.791    13455.495    2.2003616    36.510808   0.14314485 
   46800   -946.59182    46.937212    -899.6546    1681.1207   -2611.3539    2.1689579    32.793622   0.11508866 
   46900    -936.7549    45.921799   -890.83311    1644.7523   -17226.667    2.1097102    33.038566   0.12530396 
   47000   -942.86901    47.267772   -895.60124    1692.9602    11009.147    2.1939338    37.467681   0.11885328 
   47100   -945.89525    47.824408   -898.07085    1712.8969    12740.555    2.2023771     39.25212   0.11280957 
   47200   -944.00002    47.621546   -896.37847    1705.6311   -9994.1808    2.1429404    36.198854   0.12477909 
   47300    -940.9003    49.423704   -891.47659    1770.1778   -5943.1663    2.1462258    35.651808   0.13643509 
   47400   -948.35072    46.618166   -901.73255    1669.6937    10407.839    2.2081033    36.169682   0.11945075 
   47500   -945.49539    48.079425   -897.41596    1722.0306   -3253.7259    2.1672205    34.417385   0.13980283 
   47600   -945.52452    50.873061   -894.65146    1822.0885   -8734.0017    2.1475403    38.598003   0.13123372 
   47700   -945.98531    44.478751   -901.50656    1593.0676    4805.3202    2.1866252    38.664164    0.1153823 
   47800   -948.46636    47.756082   -900.71028    1710.4497    3356.4425      2.18885      36.1518   0.11636994 
   47900   -943.39041    48.912798   -894.47761     1751.879   -5177.0113    2.1522839     37.31651   0.11439753 
   48000   -941.77189     43.34942   -898.42247     1552.619    -2099.161    2.1606491    35.583308   0.11728498 
   48100   -947.86676    46.278354   -901.58841    1657.5228    9536.7122    2.2004652    37.905477    0.1192818 
   48200   -941.29049    49.434222   -891.85627    1770.5546    -2952.004    2.1542169    38.147998   0.14424626 
   48300   -941.83485    44.665614   -897.16924    1599.7603    -5146.399    2.1483342    38.657539   0.13368155 
   48400   -947.57246    48.771751   -898.80071    1746.8273    6008.5801    2.1868296    34.314398   0.13557942 
   48500   -936.68434    48.028058   -888.65628    1720.1909    7476.4778    2.1681411    39.117257   0.14238644 
   48600   -942.93406    48.649383   -894.28467    1742.4445   -5546.2229    2.1492112    37.778933   0.12203569 
   48700   -943.43991    44.237049   -899.20286    1584.4107   -4720.1333    2.1565424    41.260018   0.11611764 
   48800   -940.78165    47.162729   -893.61892    1689.1979    16428.454    2.2010475    35.947953   0.13009176 
   48900   -939.63027    49.513483   -890.11678    1773.3934    1256.8267    2.1571542    37.595835   0.13078971 
   49000   -945.20258    45.668947   -899.53364    1635.6961   -18949.888    2.1237512    40.303983   0.13778499 
   49100   -946.65823     49.74617   -896.91206    1781.7274    1807.2682    2.1778681    49.037456   0.15744796 
   49200   -942.15989    50.581974   -891.57791    1811.6629    11096.324    2.1908568    48.484396    0.1414692 
   49300   -943.11921    46.682281   -896.43693      1671.99   -9422.6254    2.1478101    42.126217   0.15453914 
   49400   -945.56853    43.527287   -902.04124    1558.9896    -6355.174     2.158821    34.251691   0.11924852 
   49500   -944.67231    51.232919   -893.43939    1834.9774    3873.0455    2.1801981    36.066689   0.11828932 
   49600   -944.33916    48.215255   -896.12391    1726.8956    5024.8401    2.1813754    38.249344   0.11912226 
   49700   -943.93518    40.716985   -903.21819    1458.3347   -3522.2877    2.1645524    35.743793     0.130615 
   49800   -940.72929    46.073295   -894.65599    1650.1783   -3188.6047    2.1579753    38.221357    0.1601801 
   49900   -941.96072    47.423467   -894.53725    1698.5366    7688.6151    2.1873578    34.982387   0.15031421 
   50000   -945.38494    43.736056   -901.64888    1566.4669    1831.9346    2.1812289    36.400641   0.14834244 
   50100   -942.85656    49.703484   -893.15307    1780.1985   -11184.345    2.1430013    39.174141   0.14851409 
   50200   -944.30567    50.066021   -894.23965    1793.1833    39.183359    2.1724752    35.493621   0.15193211 
   50300     -946.243    46.319214   -899.92378    1658.9863     5506.743    2.1931577    38.515521   0.13593686 
   50400   -939.40483    46.783929   -892.62091    1675.6307   -3639.1864    2.1525517    37.498583   0.14224717 
   50500   -943.41329    49.558643   -893.85464    1775.0109   -7230.4203    2.1545567    33.988071   0.13480283 
   50600    -943.6305    43.834032   -899.79646    1569.9761    5547.8953    2.1897062    37.250071   0.14714281 
   50700   -940.82115    47.513132   -893.30801    1701.7481    6255.6884    2.1782342    43.112337    0.1578414 
   50800   -940.25794    46.801069   -893.45687    1676.2445   -9036.9527    2.1363134    37.774888    0.1554251 
   50900   -945.44588     43.71295   -901.73293    1565.6393   -4167.0379    2.1663521    40.065926   0.13669702 
   51000   -942.96627    48.536321   -894.42995     1738.395    18538.386     2.212046    37.048412   0.14088401 
   51100   -944.01805    49.746472   -894.27158    1781.7382   -2811.0809    2.1624642    35.570146   0.13200635 
   51200   -946.40818    43.735149   -902.67303    1566.4344   -14894.629    2.1361311    34.081276   0.12807891 
   51300   -945.88605    47.208305   -898.67775    1690.8303     5442.638    2.1879303    37.603627   0.12263397 
   51400   -942.53791    50.170876   -892.36704    1796.9388    9775.7336    2.1873821    38.572464   0.13401335 
   51500   -944.02236    44.647928   -899.37444    1599.1269   -7609.2418    2.1561026    38.316534   0.14893567 
   51600   -946.35628    45.988156   -900.36812     1647.129   -5536.6625    2.1635342    37.653684   0.14786772 
   51700   -942.14158    50.154115   -891.98746    1796.3385     5302.966    2.1764123    35.915475   0.13566154 
   51800   -943.71284    46.344265   -897.36858    1659.8835    4528.0522    2.1775208    37.804595   0.12639357 
   51900   -944.52722    43.774274   -900.75295    1567.8357   -2779.5916    2.1640716    39.070831   0.12746406 
   52000   -938.59078    47.790176    -890.8006    1711.6708   -985.31905    2.1538746    32.424471   0.13047849 
   52100   -943.49895    47.234377   -896.26457    1691.7641    7800.4782    2.1861224    35.615238   0.12797105 
   52200    -945.1147     45.51446   -899.60024    1630.1629   -543.32327    2.1727748    34.509436    0.1210622 
   52300    -939.2496    47.928272   -891.32132    1716.6169   -5276.0097    2.1416047    38.022588   0.13579004 
   52400    -943.2206    46.362354   -896.85825    1660.5314    6543.8263    2.1813981    38.490302   0.13010146 
   52500    -946.2093    47.306399    -898.9029    1694.3436    4656.7824    2.1862328    38.701874   0.13577495 
   52600   -939.38518    45.284075    -894.1011    1621.9113   -7657.3022      2.14497    38.486989   0.15527568 
   52700   -941.50539    49.187716   -892.31767    1761.7256   -6092.5516    2.1473653    36.560811   0.13137111 
   52800   -946.85288    46.949154   -899.90372    1681.5484    17411.584    2.2228765    36.724321   0.13119317 
   52900   -943.44373    48.841241   -894.60249    1749.3161   -379.31996    2.1676268    37.421183   0.13196442 
   53000   -944.31594    49.466748   -894.84919    1771.7195   -17630.816    2.1219072    38.976929   0.12920528 
   53100    -947.5042    46.324197      -901.18    1659.1647    4809.3421    2.1903048    38.686502   0.12352297 
   53200   -945.39485    46.784954    -898.6099    1675.6674    11707.772     2.204045    40.137825   0.14076463 
   53300   -943.20895     49.36471   -893.84424    1768.0649   -8359.9308     2.148426    37.088851   0.13815208 
   53400   -943.06414    43.346234   -899.71791    1552.5049   -2577.1361    2.1617198    40.118501   0.13406225 
   53500    -947.9548    48.946428   -899.00837    1753.0835    7556.6827    2.1913534    38.669468   0.12985706 
   53600   -942.21974    51.034057   -891.18568    1827.8549   -1265.2473    2.1628103    37.982595   0.13271983 
   53700   -942.65256    43.966607   -898.68596    1574.7244   -3068.0065    2.1557046    36.218821   0.12893825 
   53800   -948.22081    50.495177   -897.72563    1808.5541   -1725.6567    2.1724786    39.467062   0.11225253 
   53900    -940.0748    50.925958   -889.14884    1823.9831    4931.3017    2.1739121     39.23011   0.15567245 
   54000   -940.51439     42.87509    -897.6393    1535.6302    713.41836    2.1662252    39.092433   0.15270127 
   54100   -943.44618    44.771549   -898.67463    1603.5545   -5855.6045    2.1567781     35.94449   0.14884338 
   54200   -940.48165    50.355465   -890.12618    1803.5502    2888.4568    2.1679869    35.975096   0.14935653 
   54300   -944.00025    46.200537   -897.79972    1654.7357    8225.1714    2.1897703    35.411882   0.14144929 
   54400   -943.20815    43.536821   -899.67133     1559.331   -7234.5329    2.1486576    32.413417    0.1315714 
   54500   -940.50301    47.205466   -893.29755    1690.7286    -4744.405     2.148564     33.15008   0.15321078 
   54600   -945.57265    47.007959    -898.5647    1683.6546    12810.102    2.2072089    36.760356   0.13414611 
   54700    -944.5745    43.531482   -901.04302    1559.1398    1831.3857    2.1768398    37.442567   0.13251582 
   54800   -942.90718    47.477401   -895.42978    1700.4683   -16165.516    2.1244001    34.903659   0.15932477 
   54900   -940.28942    47.238294   -893.05113    1691.9044    5767.8589    2.1809098    37.947735   0.15894504 
   55000   -945.74993    45.872246   -899.87768    1642.9775    16842.949    2.2162322    36.459114   0.14754973 
   55100   -940.33888    45.937544   -894.40134    1645.3162   -7109.6803    2.1436538    36.162056   0.14145326 
   55200   -941.94946    48.781818   -893.16764    1747.1878   -5362.4049    2.1496807    35.862331   0.14273737 
   55300   -947.85899    49.447835   -898.41116    1771.0421    4542.1101    2.1877184    32.789614   0.12451553 
   55400   -944.50287     46.11579   -898.38708    1651.7003    3710.6306    2.1776649    37.043045   0.13535377 
   55500   -937.50669    46.998128   -890.50856    1683.3025   -4178.9454    2.1393484      33.8831    0.1407444 
   55600   -944.69528    45.777666   -898.91762      1639.59    1869.2418    2.1747516     42.32484   0.12216566 
   55700   -943.72821    46.463253   -897.26495    1664.1452    4890.3424    2.1817763    38.819418   0.13979438 
   55800   -938.42485    48.041238   -890.38362    1720.6629   -2303.7792    2.1482884    36.432241   0.13946623 
   55900   -944.19183    44.548075   -899.64376    1595.5505   -1089.0603    2.1653655    36.613344   0.13810015 
   56000   -944.07094    45.929524   -898.14142     1645.029      1977.79    2.1772614     37.11752   0.13552666 
   56100   -944.59913    52.362118   -892.23701    1875.4212   -520.56963    2.1681765    35.628877   0.13405331 
   56200   -947.80026    49.258448   -898.54181     1764.259   -8048.0475    2.1576065    36.699407   0.13153075 
   56300   -944.13695    43.672828   -900.46412    1564.2023   -1417.9647    2.1698894    37.695667   0.13385852 
   56400   -940.87475     48.16516   -892.70959    1725.1013    10383.262    2.1893786    42.049498   0.14189272 
   56500   -946.10859    48.083043   -898.02555    1722.1602    105.73112    2.1741373    37.421313   0.14756267 
   56600   -946.47586     43.23819   -903.23767    1548.6352   -11357.597    2.1502065    37.263808   0.15458615 
   56700   -939.43069    45.281172   -894.14952    1621.8074    3257.1949    2.1743491    39.638502   0.16733201 
   56800   -941.49331    48.157103   -893.33621    1724.8128    9364.5304    2.1908409    36.716607   0.14939358 
   56900   -942.88099    41.406721   -901.47427    1483.0386   -4341.2471    2.1590098     36.90277   0.14753913 
   57000   -941.79277    45.616295   -896.17648    1633.8103   -6966.4733      2.14744    39.321257   0.14653722 
   57100   -940.44763    48.893834    -891.5538    1751.1998    11765.128    2.1864905     43.72806   0.15186268 
   57200    -946.5383    49.028864   -897.50944    1756.0361    1960.3466    2.1794026    46.570155   0.15179425 
   57300   -945.98661    49.876347   -896.11026    1786.3899   -12764.872    2.1398806     39.55513    0.1487227 
   57400   -938.41502    48.948156   -889.46686    1753.1454   -1836.4264    2.1538488    39.957126   0.16349238 
   57500   -943.26422    46.584253   -896.67997     1668.479    10211.116    2.1978943    36.484213    0.1525502 
   57600   -943.13616    44.272389   -898.86377    1585.6764   -650.22028    2.1695115    36.940787    0.1394334 
   57700   -937.35481    47.145801   -890.20901    1688.5916   -2608.0945    2.1479338    35.123776   0.15283153 
   57800     -947.425    50.204176   -897.22083    1798.1315   -1075.7842    2.1757593    36.653559   0.12830898 
   57900    -945.1042    46.330361   -898.77384    1659.3855    745.25617    2.1749974    40.187658   0.14893331 
   58000   -942.76541    49.591468   -893.17394    1776.1865   -2170.5528    2.1621157    38.727211   0.14381032 
   58100   -945.12976    50.254508   -894.87525    1799.9342   -2944.8971     2.162339    38.493314    0.1513197 
   58200   -945.54538    44.588122   -900.95725    1596.9848    4159.5852    2.1855412    34.104979   0.14130362 
   58300   -941.41374    46.584466   -894.82927    1668.4866    1126.9296    2.1682571    36.780607   0.14738302 
   58400   -942.98376    48.008451   -894.97531    1719.4886   -5156.9336    2.1549965    31.694425   0.13507835 
   58500   -948.05417    44.706188   -903.34798    1601.2135    4696.9935    2.1868287    37.585393   0.13082243 
   58600   -942.06545     46.96554   -895.09991    1682.1353    2540.4637    2.1756221    38.060087   0.13870419 
   58700   -941.27931    45.751041   -895.52827    1638.6364   -3680.5631    2.1590572    34.072743   0.14382056 
   58800   -950.49657    47.303813   -903.19275     1694.251   -3776.9387    2.1759215    37.046475   0.12260843 
   58900   -946.44728    49.953041   -896.49424    1789.1368    3882.5784     2.183976    36.827111   0.12594587 
   59000   -943.74038    49.717509   -894.02288    1780.7009    407.17143     2.171797     36.54943   0.14757299 
   59100   -944.58566    43.832105   -900.75355     1569.907   -8646.6063    2.1502156    39.334776    0.1472833 
   59200   -944.05877    47.411524   -896.64724    1698.1089    1575.5074     2.177208    37.970912   0.13697563 
   59300   -942.15787     51.57266   -890.58521    1847.1456    12170.516    2.1927667    35.587538   0.12396869 
   59400   -948.88533    50.449315   -898.43601    1806.9115    -9886.284    2.1523879    33.371311   0.11944065 
   59500   -941.87734    44.692138    -897.1852    1600.7103   -6080.2628    2.1496075    36.428914   0.11885341 
   59600   -942.43588     54.31804   -888.11784    1945.4752    7548.6519    2.1837077    38.462876   0.14105705 
   59700   -943.86944    47.433716   -896.43573    1698.9037    3911.4402    2.1808317     36.46578   0.12492393 
   59800   -946.03146    46.779193   -899.25226     1675.461   -9281.2988    2.1487809    36.530961   0.13644867 
   59900   -946.52587    55.105337   -891.42053    1973.6733   -2419.5136    2.1648669    36.584704    0.1305867 
   60000   -948.44022     50.17349   -898.26673    1797.0325    5225.1015    2.1922703    33.443245   0.12645034 
   60100   -947.66278    47.410723   -900.25206    1698.0802   -3680.6778    2.1681173    38.472279   0.11925415 
   60200   -938.60886    44.969282   -893.63958    1610.6366   -15.704766    2.1589185     37.76515   0.12637934 
   60300   -946.23681    48.348576   -897.88823    1731.6707    130.69293    2.1788656    36.279691   0.11997584 
   60400   -947.47605    45.438748    -902.0373    1627.4512    1853.2198    2.1861312    36.865423   0.11570767 
   60500   -944.53179    50.308514   -894.22328    1801.8685   -4763.4315    2.1610729    38.098791   0.12400399 
   60600   -945.79045    49.196833   -896.59362    1762.0521   -4006.5311    2.1633173    38.766039   0.14138196 
   60700   -947.73459     45.07403   -902.66056    1614.3883    6413.9343    2.1932219    39.136519   0.13036995 
   60800   -941.87705    48.965918   -892.91114    1753.7816     1.647728    2.1639174    40.354909   0.13499695 
   60900   -943.75784    47.962252   -895.79559    1717.8339   -4919.2053    2.1593809    32.892832    0.1303829 
   61000   -946.74499    45.670409   -901.07458    1635.7484   -731.87338    2.1768172     41.73105   0.12293222 
   61100   -941.84014    48.930152   -892.90999    1752.5006    6070.2416     2.180853    34.495224    0.1163743 
   61200   -944.62516    51.028851    -893.5963    1827.6684   -2058.6844    2.1645392    35.897713      0.12784 
   61300    -943.3703    42.934741   -900.43556    1537.7667   -9082.5216    2.1475747    38.994841   0.12012257 
   61400   -939.10681    44.776816   -894.32999    1603.7432    9003.9131    2.1841309    37.237221   0.14909842 
   61500   -940.18268    51.424568   -888.75811    1841.8415    6687.6278    2.1833127    36.934845   0.15468679 
   61600    -944.1045    46.154789   -897.94971    1653.0972   -10266.925    2.1456212    35.856998   0.14542376 
   61700   -942.61535    46.591113   -896.02424    1668.7247    -4292.518    2.1645667    34.269789   0.15034021 
   61800   -939.02236    51.206514   -887.81585    1834.0316      9718.62    2.1827541    34.233207    0.1481728 
   61900   -942.11883    45.963956   -896.15487    1646.2622    1027.0839     2.173957    35.349011   0.14158409 
   62000   -945.38795    46.480916   -898.90704    1664.7778   -10954.574     2.148121    35.083671   0.12703345 
   62100   -937.65793    46.986269   -890.67166    1682.8778    1983.6457    2.1647308    39.054881   0.13524577 
   62200   -944.11874    46.245132   -897.87361    1656.3329    10524.592    2.1957754    33.696545    0.1352755 
   62300   -945.62728    45.957103   -899.67018    1646.0168   -3332.2262    2.1650798    35.946502   0.12560713 
   62400   -940.64268    46.799376   -893.84331    1676.1839   -3892.9353    2.1533767    39.026191   0.12113899 
   62500   -944.05659    47.347532   -896.70906    1695.8169     3807.025    2.1824026    38.127449   0.12799513 
   62600   -945.70205    43.906066   -901.79598    1572.5561    6747.5352    2.1897563    37.940876   0.12904971 
   62700   -939.04402    44.009369   -895.03465     1576.256    130.09751    2.1600613    37.952278     0.140361 
   62800   -942.23922     46.78891   -895.45031    1675.8091   -2445.6137    2.1601669     32.97724   0.12519519 
   62900   -952.44557    49.161884   -903.28369    1760.8004     3301.212    2.1923156    38.358381   0.11417154 
   63000   -944.19658    49.771919   -894.42466    1782.6496   -1557.0552    2.1647947    38.417192   0.13208546 
   63100   -942.97709    47.665141   -895.31195    1707.1925   -1823.3549    2.1626996    38.099885   0.13477781 
   63200   -947.03631    45.310285   -901.72603    1622.8501    1199.8865     2.179525    36.571959   0.12193479 
   63300   -941.94826    46.958813   -894.98945    1681.8944    3917.6669     2.176811    36.087674   0.14085419 
   63400   -943.46003    49.875776   -893.58426    1786.3694   -532.88358    2.1649941    37.307785   0.13213863 
   63500   -945.71624    45.961476   -899.75476    1646.1734   -1066.7952    2.1701978     39.24561   0.12500587 
   63600   -945.29211    49.191604   -896.10051    1761.8648    2326.4302    2.1781598    38.118256   0.14108294 
   63700   -943.05111    52.015216   -891.03589    1862.9964   -1242.8315    2.1618484    35.621279   0.12446581 
   63800   -945.28332      45.9791   -899.30422    1646.8046   -949.50043    2.1681486    34.895531   0.13608745 
   63900   -942.71864    46.335454   -896.38318    1659.5679    3621.2891    2.1750877    34.385918   0.14555983 
   64000   -941.07505    51.445729   -889.62932    1842.5995    763.29678    2.1624632     38.40707   0.15308816 
   64100   -944.58336    45.187979   -899.39538    1618.4695   -446.46975    2.1722278    40.816594   0.14315933 
   64200   -943.64543    46.384882   -897.26055    1661.3383    301.47123    2.1681923    38.306146   0.12823118 
   64300   -942.70931    51.798484   -890.91083    1855.2339    1739.1216    2.1685582    34.463066   0.14029115 
   64400   -946.02559    45.574311   -900.45128    1632.3066    3256.5566    2.1845179    37.716665   0.14061423 
   64500   -945.35932    46.843118    -898.5162    1677.7506   -8935.9757    2.1512759    38.476758   0.13933702 
   64600   -942.31931    48.878521   -893.44079    1750.6514    472.07194    2.1651982     38.49065   0.14187911 
   64700   -945.18918    44.874454   -900.31472    1607.2402     11199.68    2.1997992    35.938633   0.13452474 
   64800   -948.82958    48.042441   -900.78714     1720.706   -5243.4458    2.1678574    37.282644   0.13200095 
   64900   -945.08114    50.327267   -894.75388    1802.5402   -10261.386    2.1459788    39.342841    0.1567434 
   65000   -945.44499    47.913223   -897.53177    1716.0779    5731.9251    2.1850403      37.1946   0.13003593 
   65100   -945.59706    43.278991   -902.31806    1550.0965    10593.481    2.1986361    38.630062    0.1363163 
   65200   -939.86965    47.250361   -892.61929    1692.3366   -7453.7317    2.1398884    36.474446   0.13565688 
   65300   -944.41918    47.414845   -897.00433    1698.2278   -4303.7627    2.1583956     36.69055   0.12072586 
   65400   -947.18472     47.97113   -899.21358    1718.1519    10805.933    2.2011806    36.785494   0.12705283 
   65500   -937.18913    47.699823   -889.48931    1708.4347    403.03341    2.1577238    33.565005   0.15599745 
   65600   -942.40397    46.932244   -895.47172    1680.9428    -7479.232    2.1507382    36.482617   0.14482174 
   65700    -949.1974    50.526477   -898.67092    1809.6752   -778.86643    2.1801201    40.018565   0.14962822 
   65800   -944.61014    51.868389   -892.74175    1857.7376    5797.8098    2.1838811    40.521926   0.14017421 
   65900   -937.86678    45.804446   -892.06233    1640.5491   -1339.7851    2.1496309    34.969979   0.15538364 
   66000   -944.56219    44.505453   -900.05674    1594.0239   -5655.5539    2.1591539    37.464845   0.14167883 
   66100   -942.78683    48.195336    -894.5915    1726.1822    10828.089    2.1936161    34.726426   0.14112395 
   66200   -939.63065    50.817079   -888.81357    1820.0835    6035.2046    2.1767422    24.986236   0.16375416 
   66300   -938.11309    42.687792    -895.4253    1528.9219   -15837.531    2.1189344    29.618559   0.16090788 
   66400   -946.07587    48.319212   -897.75666    1730.6189    -3171.539    2.1701685    21.209083    0.1535776 
   66500     -943.047    53.353043   -889.69396    1910.9125    16134.855     2.203401    23.125081   0.17549112 
   66600   -944.59697    47.348024   -897.24894    1695.8345   -2908.3736    2.1616737    23.397093   0.17421591 
   66700   -945.59217    46.323132   -899.26904    1659.1266   -8569.1118    2.1592173    21.740134    0.1738516 
   66800   -942.07769    51.597065   -890.48062    1848.0197    5331.7315    2.1721256    25.297962   0.16030457 
   66900   -944.82464    48.202933    -896.6217    1726.4542    4577.6504    2.1829385     21.74301   0.15252638 
   67000   -943.11896    43.081182   -900.03778    1543.0117   -7602.2688    2.1559965    22.457361   0.15420775 
   67100   -941.58262    49.792963   -891.78966    1783.4034   -3608.7768    2.1544014    20.426478   0.16596467 
   67200   -947.99508    50.927626   -897.06746    1824.0429    6573.9737    2.1910042    20.929631   0.15235635 
   67300   -944.43054    44.929064   -899.50147    1609.1961   -1183.1155    2.1728467    17.325146   0.17337517 
   67400   -942.33613     49.58692   -892.74921    1776.0237   -6920.8489    2.1436819    20.999502    0.1874347 
   67500    -943.0729    46.660056   -896.41284     1671.194    4062.7347    2.1734815     19.63924   0.17090031 
   67600   -943.51878    44.231532   -899.28725    1584.2131    9491.0654    2.1899796     21.46384   0.17044374 
   67700   -941.10452    49.426097   -891.67843    1770.2635   -4194.4916     2.147492    22.607393   0.16185543 
   67800   -944.01054    48.100109   -895.91043    1722.7715   -10362.669    2.1446446    19.265299   0.15258013 
   67900    -945.5272    46.732676   -898.79453     1673.795    5925.6241    2.1883726    22.147472   0.14957538 
   68000    -939.1245    49.016953   -890.10755    1755.6095    8329.7033    2.1765388    24.519759   0.15347976 
   68100   -941.05248    46.197045   -894.85544    1654.6106   -5647.7807    2.1471003    29.478419   0.16161672 
   68200   -947.49526     47.81255   -899.68271    1712.4722   -5118.6677    2.1610506    21.631185   0.15100014 
   68300   -940.87897    49.893356   -890.98562    1786.9991     8814.034    2.1839713    24.120196    0.1577035 
   68400   -942.81618      49.1204   -893.69578    1759.3146    2318.1869    2.1729792    16.200831   0.15625684 
   68500   -945.41156    45.895683   -899.51588    1643.8169   -10223.038    2.1474456    21.032643   0.16028249 
   68600   -940.67353    47.774649   -892.89888    1711.1147   -45.985035    2.1652659    21.254772   0.16143625 
   68700   -941.16249    49.706812   -891.45567    1780.3177     10490.64    2.1885952    23.615495   0.16076244 
   68800   -944.47479    44.346193   -900.12859    1588.3198    561.98511     2.172491    19.167503   0.14339318 
   68900    -941.4978    45.693307   -895.80449    1636.5685   -8405.6875    2.1453807    19.965375   0.15729692 
   69000    -945.1015    54.807717   -890.29378    1963.0137    4169.5542    2.1806707    20.897703   0.14355019 
   69100   -945.30137    46.540939   -898.76043    1666.9276    11767.002    2.2062917    19.166788    0.1436687 
   69200   -939.96829    41.600915   -898.36737    1489.9939   -17833.383    2.1225593    20.034927   0.16294057 
   69300   -940.88209    48.293566   -892.58852    1729.7004    -7765.683    2.1414029    17.174992   0.16127428 
   69400   -943.19136    47.965892   -895.22547    1717.9643    16823.095    2.2100119    26.292499   0.14016779 
   69500   -946.60699    46.356979   -900.25001    1660.3389   -2743.5218    2.1747828    15.441461   0.16044767 
   69600   -939.56655    48.368231   -891.19832    1732.3746   -14522.673    2.1252989    21.564033   0.16196862 
   69700   -943.97752    48.046109   -895.93141    1720.8374    1241.5941    2.1731494    19.334991    0.1431697 
   69800   -944.21713    46.732843   -897.48428     1673.801    7036.8455    2.1948801    24.102586   0.16704241 
   69900   -941.47687    48.561434   -892.91544    1739.2945   -6239.2105    2.1501687    22.816545   0.16711184 
   70000   -941.25793    49.386136   -891.87179    1768.8323   -7635.4285     2.142974    23.293484    0.1683415 
   70100   -944.53294    45.607046   -898.92589     1633.479    8963.4105    2.1964202    19.628775   0.14484168 
   70200   -943.33926    50.863812   -892.47545    1821.7573    5814.9601      2.18141     21.43123   0.15283977 
   70300   -940.45167    47.014578   -893.43709    1683.8917   -10354.051     2.139498    18.599215   0.18218337 
   70400    -946.6062    45.175341   -901.43086    1618.0169   -2252.1271    2.1779231     18.57023   0.16487728 
   70500    -940.5316    47.781803    -892.7498    1711.3709    9709.9145    2.1868769    20.917694   0.15720767 
   70600   -943.83896    49.469978   -894.36898    1771.8352   -3133.6962    2.1616594    28.085279    0.1518755 
   70700   -945.36524    43.249212   -902.11602    1549.0299   -2562.0255    2.1634516    11.185327   0.14407461 
   70800   -938.29758    44.462915   -893.83466    1592.5004    8776.2413    2.1776025    12.060135   0.14087265 
   70900   -941.15589    47.766778   -893.38911    1710.8328    4680.9762    2.1777163    19.333074   0.15552795 
[...]
  186800   -943.24612    44.205748   -899.04037    1583.2896    2173.9806    2.1724171    48.675218   0.12136208 
  186900   -941.37134    50.945191   -890.42615     1824.672    1338.8319    2.1639182    49.527111   0.13667214 
  187000   -941.75578    47.314287    -894.4415    1694.6262    897.42226    2.1661186    58.214619   0.15056431 
  187100   -941.98188    43.539288   -898.44259    1559.4194   -1456.0675    2.1602374    59.031549   0.13111517 
  187200    -937.2842    46.587404    -890.6968    1668.5919    2263.7682    2.1604304    56.713715     0.148137 
  187300   -942.66546    47.779713   -894.88575     1711.296    5106.1224    2.1785781    57.108719    0.1549764 
  187400   -943.23473    44.125594   -899.10914    1580.4187   -3439.0041    2.1615938    61.513326   0.13926979 
  187500   -940.44267    47.582876   -892.85979    1704.2461   -6105.1057    2.1522635    51.071363   0.13798195 
  187600   -943.48407    47.486043   -895.99803    1700.7779    2477.9498    2.1759716    57.002948   0.14509909 
  187700   -947.49125    47.187514   -900.30374    1690.0856    3975.9599    2.1874085    51.901585   0.11331525 
  187800   -943.39412    49.441541   -893.95258    1770.8167   -7726.3779    2.1528928    52.485962   0.14230159 
  187900   -941.27593    46.323445   -894.95249    1659.1378   -5231.0057    2.1520953    52.417534   0.14185438 
  188000   -944.11803    43.019781   -901.09825    1540.8125    12291.565    2.1987759    53.057101    0.1206548 
  188100   -938.13392    45.516108   -892.61781    1630.2219    6189.4771    2.1709099    51.421739   0.13504401 
  188200   -940.55373    44.899777   -895.65395    1608.1472   -9680.2174     2.139655     49.64339   0.13148832 
  188300   -948.26013     46.71945   -901.54068    1673.3213   -1235.0909    2.1788328    52.690887   0.13202207 
  188400   -947.80636    52.899218   -894.90714    1894.6582    11525.377    2.2033289     54.00647   0.13660392 
  188500   -944.79897     51.14038   -893.65859     1831.663   -4905.7161    2.1542088    53.905438   0.12696591 
  188600   -944.26321    43.370566   -900.89264    1553.3764   -10744.763    2.1474377    58.471618   0.12006336 
  188700   -948.44127    52.564532   -895.87674    1882.6709    4862.6705    2.1898335    53.517829   0.11504099 
  188800   -944.63595    53.766317   -890.86963    1925.7145    4414.4645    2.1755554    51.527961   0.11242952 
  188900   -944.83423    44.484481   -900.34975    1593.2728   -5625.0058    2.1602846    54.970284   0.13134055 
  189000   -942.21258    45.310917   -896.90167    1622.8727   -420.42691    2.1667619    55.182903    0.1496288 
  189100   -943.68994    53.169746   -890.52019    1904.3475    3790.0964    2.1727757    50.912814   0.12003574 
  189200   -946.43573    46.224762   -900.21097    1655.6034     909.3218    2.1796095    54.220186   0.11065335 
  189300   -943.04887    44.891096   -898.15777    1607.8363   -5072.7133    2.1606757    54.551908   0.13840475 
  189400   -938.35699    46.182048   -892.17494    1654.0735    719.35829    2.1663544    56.549155   0.13088889 
  189500   -951.21618    50.576646   -900.63953     1811.472    2088.6897     2.188213    52.707489   0.11606739 
  189600   -945.09473    46.017852   -899.07688    1648.1926   -2511.9008    2.1670865     53.21131   0.11511606 
  189700   -939.60654    46.089004   -893.51754     1650.741   -2491.0639    2.1569079    53.732085   0.11810334 
  189800   -944.44613    44.651657   -899.79448    1599.2604    3864.7443    2.1827138    54.621158   0.12140488 
  189900   -941.83988    41.546753   -900.29313     1488.054    5440.1473    2.1802772    57.800502   0.13527793 
  190000   -940.20551    47.396588   -892.80893    1697.5739   -4745.5833    2.1473653    49.528643   0.12929631 
  190100   -948.49576    49.263682   -899.23208    1764.4464   -4704.6879    2.1673453    55.226291    0.1238229 
  190200   -945.18642    46.699075   -898.48734    1672.5915    10263.945    2.1990317    52.275467   0.11943534 
  190300   -940.84755    50.241926   -890.60562    1799.4836   -3609.2784    2.1503766     54.54271   0.13454699 
  190400   -943.28998    44.635615   -898.65437    1598.6859   -11911.877    2.1401209    51.745841   0.13350471 
  190500   -946.28526    48.383636   -897.90162    1732.9264    6667.0422    2.1919933    52.602445   0.11920255 
  190600   -943.41467    53.369655   -890.04501    1911.5075    7083.9115    2.1860279    55.603493   0.12613352 
  190700   -941.33043    45.343664   -895.98677    1624.0456   -12241.949    2.1395312    51.327366   0.13054214 
  190800   -944.68244    44.447754   -900.23468    1591.9574   -4329.5877     2.161537    51.279436   0.11817821 
  190900   -943.30027    51.501496   -891.79877    1844.5968    10408.026    2.1915521    51.135681   0.12733393 
  191000   -944.40949    49.200906   -895.20858     1762.198   -1127.0627    2.1669617    54.627974    0.1319271 
  191100   -943.85478    41.810568   -902.04421    1497.5029   -5768.5059    2.1583379    52.624845   0.12363475 
  191200   -940.74112    46.438899   -894.30222     1663.273    3765.2262    2.1713508    52.522676   0.13226808 
  191300    -939.9196    45.652426   -894.26717    1635.1043    7756.3741    2.1799566    52.958757   0.14166716 
  191400   -945.56993    42.798777   -902.77115     1532.897   -647.43973    2.1723968    58.489232   0.13250972 
  191500   -941.04062    45.967881   -895.07274    1646.4028   -1674.0445    2.1552004    50.179244   0.13121868 
  191600   -943.45319    49.332262   -894.12092    1766.9027    3987.9201    2.1735625    53.625513   0.12683534 
  191700   -946.98477    45.296095   -901.68868    1622.3419    5837.2624    2.1888079     49.79013   0.11839091 
  191800   -939.91113    46.034944   -893.87619    1648.8048   -5219.2854    2.1512702    55.713018   0.13438421 
  191900   -942.15837    48.052325   -894.10605      1721.06   -193.57364    2.1636454    53.406951   0.13616529 
  192000   -952.73267    52.617613   -900.11506    1884.5721    4141.9948    2.1951251    57.122282   0.12088427 
  192100   -942.53565    48.485602   -894.05004    1736.5784   -306.30783    2.1627129    53.016519   0.13379238 
  192200   -939.20612    46.104709   -893.10141    1651.3035   -8569.3584    2.1405145    58.029951   0.17022929 
  192300   -946.28851    46.329683   -899.95883    1659.3612    5532.9238    2.1926526    46.276172   0.13503681 
  192400   -945.43084    49.749113   -895.68173    1781.8328    16516.575    2.2127346    51.164442   0.13466583 
  192500   -939.64207    46.355516   -893.28656    1660.2865    -14467.92    2.1252796    54.076569   0.14153658 
  192600   -944.29621    43.914422   -900.38178    1572.8553   -10964.138    2.1459735    55.672394   0.11669051 
  192700   -945.94113    46.411622   -899.52951     1662.296    12590.674    2.2073239    57.386562   0.11896138 
  192800     -941.494    48.933808   -892.56019    1752.6315    3336.4547    2.1710611    46.802626   0.11359024 
  192900   -946.08964    48.926484   -897.16316    1752.3692   -9579.4413    2.1467153    53.424851   0.11176427 
  193000   -946.03515    45.055561   -900.97959    1613.7268   -597.05213    2.1772525     54.36511   0.12287597 
  193100   -940.40934    49.161236   -891.24811    1760.7772    6747.0039     2.176904    53.093934   0.13133874 
  193200   -945.63194    49.257142    -896.3748    1764.2122   -2567.8754    2.1666032    56.827819    0.1286392 
  193300   -945.12336    44.108004   -901.01535    1579.7887   -4845.4343    2.1638444     56.29861   0.14073472 
  193400   -940.29281    48.634333   -891.65848    1741.9054    3005.9522     2.167993     54.12041   0.11791739 
  193500   -945.29088    49.921633   -895.36925    1788.0118    4833.5827    2.1840911    55.567638   0.12013282 
  193600   -948.48098    47.504329   -900.97665    1701.4328   -5934.2615    2.1646836    54.367321   0.11822749 
  193700   -939.37421    46.733768   -892.64044    1673.8341   -2848.8014    2.1492838     55.98985   0.11197839 
  193800   -944.93962     50.20353   -894.73609    1798.1084    6389.9314    2.1864074    55.866517   0.12398795 
  193900   -948.13449    48.041123   -900.09337    1720.6588    3242.4365    2.1882153    57.495557   0.12601556 
  194000   -940.95285    47.091708   -893.86114    1686.6542   -7666.9764    2.1422041    49.488675   0.13340533 
  194100    -941.6719    48.353573   -893.31833    1731.8496   -2260.5288     2.156742    52.194423   0.13697951 
  194200   -947.47003     47.87054    -899.5995    1714.5491    16723.646     2.217555    52.965707   0.13251348 
  194300   -945.06557    51.112224   -893.95334    1830.6545   -5091.3208    2.1573171    54.923417   0.13238419 
  194400   -942.10512    47.882821    -894.2223     1714.989   -17708.147    2.1190143    53.604182   0.14557675 
  194500   -946.35449    47.257521   -899.09697     1692.593    9369.6541    2.1951231    59.044915   0.13374503 
  194600   -946.63321    47.035516    -899.5977    1684.6416    9289.6907    2.2028701    53.153373   0.13564038 
  194700   -940.60802    48.352371   -892.25565    1731.8066   -10872.229    2.1322941    62.514795   0.14755578 
  194800   -944.08837    47.612733   -896.47564    1705.3154   -2706.1491    2.1623799    55.958911   0.16575293 
  194900   -945.27382     46.06774   -899.20608    1649.9794    10576.444    2.2006064    59.246904   0.15192351 
  195000   -938.95386    48.697532   -890.25632     1744.169   -2874.8847    2.1495893    57.519719   0.16701429 
  195100   -940.54868    44.261169   -896.28751    1585.2745   -6570.9282    2.1458302    58.429142   0.16998149 
  195200   -947.11814    49.618604   -897.49953    1777.1584     4064.665     2.186818    59.909448   0.15524248 
  195300   -940.12499    52.150466   -887.97452    1867.8406    1328.3967     2.164674    86.149851   0.17055991 
  195400    -939.4669    44.809563   -894.65733    1604.9161   -2740.3764    2.1490004    100.33744   0.16927395 
  195500   -944.75863    46.792594   -897.96603     1675.941   -4834.9044     2.159306    103.77146   0.15796637 
  195600   -939.62394    50.253792   -889.37014    1799.9086    9020.3849    2.1817058    89.642106   0.17394859 
  195700   -945.48926    50.915503   -894.57375    1823.6087    885.43416    2.1715568    75.736011   0.14570031 
  195800   -946.21976     46.88858   -899.33118    1679.3789   -7666.2402    2.1517109    83.084048   0.14304715 
  195900   -942.77122    50.724188   -892.04703    1816.7565    3502.1059    2.1701362    81.731393   0.15740427 
  196000   -943.51906    49.154054   -894.36501      1760.52    5069.2183    2.1805769    77.086581   0.15760533 
  196100   -942.62822    42.364051   -900.26417    1517.3267   -1755.1197    2.1611682    75.426982   0.17400404 
  196200   -944.25655    49.737863   -894.51869    1781.4299   -5224.0765    2.1570178    72.084735   0.16927537 
  196300   -939.24207    49.087325   -890.15474      1758.13    11113.496     2.188296    75.048277   0.16905044 
  196400   -947.69235    48.255407   -899.43694    1728.3337    3627.9386    2.1873409    57.251644   0.13847361 
  196500   -940.06416    44.037158     -896.027    1577.2513   -15479.322    2.1257469    51.571842   0.12957643 
  196600   -943.56842     51.62314   -891.94528    1848.9537   -2322.2391    2.1660435    53.329958   0.11861708 
  196700   -947.56506     49.56107   -898.00399    1775.0978    18689.474    2.2253889    56.151647   0.12758753 
  196800   -947.66335    47.660226   -900.00312    1707.0165   -6149.5283    2.1664459    57.271679   0.11906583 
  196900   -941.25879    48.492336   -892.76646    1736.8196    -13006.51    2.1349972    53.246438   0.14109374 
  197000   -944.82872    46.392706   -898.43602    1661.6185    5592.8926    2.1963051    55.402208   0.14176635 
  197100   -948.15203    47.886902   -900.26513    1715.1352    4207.1644    2.1965347    49.934843   0.13429814 
  197200   -939.74204    47.093054   -892.64899    1686.7024   -6884.2818     2.149077    57.955336   0.12933571 
  197300   -947.55591    49.590833   -897.96507    1776.1638   -4555.5588    2.1681788    52.016161   0.12920312 
  197400   -949.60785    49.725343    -899.8825    1780.9815    3392.9698    2.1978459    53.542959   0.13244891 
  197500   -939.99742    48.318274   -891.67914    1730.5854   -348.79735      2.16624    52.818874   0.14732743 
  197600   -947.86229    50.506512   -897.35577    1808.9601    -9625.747    2.1583322     55.93482   0.13255649 
  197700    -945.7349     45.72788   -900.00702    1637.8068     822.4428    2.1824892     54.63555   0.14644625 
  197800   -938.24763    47.441323   -890.80631    1699.1762    7724.0906    2.1826444    54.795118    0.1471807 
  197900   -944.57919     47.65241   -896.92678    1706.7365    -4335.436    2.1622134    54.822781   0.13721874 
  198000   -944.02943    43.161681   -900.86775    1545.8949   -3141.4133    2.1660814    49.804459   0.13218201 
  198100   -939.74785    48.240907   -891.50694    1727.8143    6769.7484    2.1818571    47.684887   0.14848566 
  198200   -941.16277    45.126289   -896.03648      1616.26    6770.3013    2.1849351    50.463365   0.13303451 
  198300   -945.89599    44.347463   -901.54853    1588.3653    -10128.81    2.1490705    49.380332   0.13122178 
  198400   -943.03256    49.235006   -893.79755    1763.4194   -3290.6274    2.1567113    55.977965   0.13168148 
  198500   -943.04206    49.656954    -893.3851     1778.532    16524.925    2.2082504    57.203204   0.14543835 
  198600    -947.3943    46.568019   -900.82629    1667.8976   -1888.7295     2.173302    47.287161    0.1502545 
  198700   -941.28106    46.912111   -894.36895    1680.2217   -10819.567     2.132642    38.564721   0.15023799 
  198800   -941.75187    49.292916   -892.45896    1765.4935    6249.6903    2.1818237    18.968037   0.13323876 
  198900   -948.57813    48.970537   -899.60759     1753.947    5308.6885    2.1939733    22.760371   0.11939944 
  199000   -944.19371     49.98791    -894.2058    1790.3857   -5350.2038    2.1523304    19.781196   0.11917935 
  199100   -942.64394    50.392648   -892.25129    1804.8819   -1394.7808    2.1583143    19.292281   0.13320864 
  199200   -947.46336    48.000831   -899.46253    1719.2157     4326.077    2.1866065    21.579559   0.10927121 
  199300   -940.14599    45.410425   -894.73556    1626.4367     2481.047    2.1691021    22.810864   0.13083832 
  199400   -942.33782     50.10625   -892.23157    1794.6242   -5792.5786    2.1483723    24.607262   0.13113578 
  199500   -945.97863    45.478278   -900.50036     1628.867    2494.0426    2.1816968    18.187697   0.12608969 
  199600   -941.46931    46.816507    -894.6528    1676.7975    6824.9423     2.180902    22.020472   0.13762972 
  199700   -946.40669    52.985292    -893.4214     1897.741   -7132.2212    2.1520203    22.962669   0.12621695 
  199800   -947.68903    45.222067   -902.46696    1619.6905   -2758.1882    2.1700323    23.609736   0.11916857 
  199900   -943.85707    48.295894   -895.56117    1729.7838    6427.9644    2.1811273     22.22148   0.12688771 
  200000   -940.17421    46.735842   -893.43836    1673.9084    5405.6612    2.1742293    21.002996   0.13134509 
  200100    -947.6685    44.983636   -902.68487    1611.1507   -7212.9722    2.1596295    21.564451   0.11122371 
  200200    -943.5942    46.452198     -897.142    1663.7493    -3169.015    2.1609797    17.336735   0.12585449 
  200300   -942.68689    52.357477   -890.32941    1875.2549    12199.001    2.1980983    3.7442377   0.14039344 
  200400   -945.74056    48.870828   -896.86973    1750.3758   -2552.6113    2.1671003    9.0655452   0.14793095 
  200500   -944.26651    41.930959   -902.33555    1501.8149    -16314.57    2.1356715    5.1376385   0.16698101 
  200600    -944.6432    51.021445   -893.62176    1827.4031    4639.5288    2.1818578    6.1510989   0.15714142 
  200700   -942.83321    49.979307   -892.85391    1790.0775    11327.243     2.192982    8.1091424   0.15988962 
  200800   -946.25862    45.274394   -900.98422    1621.5646   -9482.8912    2.1565539    4.4695476   0.14027282 
  200900   -940.29604    46.844081   -893.45196    1677.7851   -5968.1506    2.1507572     6.048041   0.14313223 
  201000   -939.87466    47.711213   -892.16344    1708.8426    7331.2626     2.181563    5.7684922   0.16088086 
  201100   -946.05946    47.074562    -898.9849    1686.0401    2644.5262    2.1785224     4.444673   0.13163957 
  201200   -942.09045    49.221713   -892.86874    1762.9433   -5319.4015    2.1495772    7.1302817   0.14975547 
  201300   -941.98946    51.206675   -890.78278    1834.0374   -25.107066    2.1603646    6.1919439   0.15774688 
  201400   -944.98162    46.899628     -898.082    1679.7746     7144.368    2.1935882    7.0599873   0.15982851 
  201500   -942.16721    47.807641   -894.35957    1712.2963   -961.01208    2.1622498    7.4795073   0.15171298 
  201600   -939.33212    49.467393   -889.86473    1771.7426   -8569.9701    2.1427157   0.28090203   0.16749414 
  201700   -948.04665    47.581745   -900.46491    1704.2055    7657.7508    2.1979221 0.0046839121   0.12395995 
  201800    -945.8607    49.017706     -896.843    1755.6365    2373.2208    2.1776675  0.069566023   0.12678568 
  201900   -942.33001     47.77516   -894.55485     1711.133   -11148.439      2.13651  0.080979265   0.12329405 
  202000    -949.8438    46.696011   -903.14779    1672.4818   -25.104861    2.1791961   0.16869066   0.10890919 
  202100   -946.96997    46.947878   -900.02209    1681.5027    10909.093    2.2044219   0.25508534   0.11622116 
  202200   -945.21146    50.296944   -894.91452    1801.4541   -7454.3477    2.1529482   0.19124007   0.12707162 
  202300   -942.39616    45.408025   -896.98814    1626.3508   -14086.796    2.1314827   0.11836523    0.1414663 
  202400   -944.37046    42.361891   -902.00856    1517.2493    15130.841    2.2107695  0.089287602    0.1342287 
  202500   -944.91786    52.492562    -892.4253    1880.0932    7513.1832      2.18929  0.038612846   0.14768805 
  202600   -940.49467    45.814564    -894.6801    1640.9115   -10407.666    2.1327546   0.14103609   0.12976392 
  202700   -948.55158    49.736947   -898.81463    1781.3971   -6435.8349    2.1637793  0.028043894   0.12180016 
  202800   -944.01581     44.65613   -899.35968    1599.4206    10392.069    2.1970022  0.054338629   0.12283357 
  202900   -939.32076    48.826689   -890.49407    1748.7949   -2526.8773    2.1463952  0.093249307   0.12705797 
  203000   -942.54886    44.538117   -898.01074    1595.1938   -2344.2749    2.1605331   0.11905772   0.12722388 
  203100   -946.28599    48.374088    -897.9119    1732.5844    1515.1688    2.1782293  0.086141143   0.12902603 
  203200   -937.79146    49.171209   -888.62026    1761.1344    2196.2418    2.1552615   0.32831201   0.11964832 
Loop time of 141.76 on 1 procs for 200000 steps with 217 atoms

Performance: 365.690 ns/day, 0.066 hours/ns, 1410.840 timesteps/s
100.0% CPU use with 1 MPI tasks x no OpenMP threads

MPI task timing breakdown:
Section |  min time  |  avg time  |  max time  |%varavg| %total
---------------------------------------------------------------
Pair    | 135.92     | 135.92     | 135.92     |   0.0 | 95.88
Neigh   | 2.6592     | 2.6592     | 2.6592     |   0.0 |  1.88
Comm    | 0.92635    | 0.92635    | 0.92635    |   0.0 |  0.65
Output  | 0.072776   | 0.072776   | 0.072776   |   0.0 |  0.05
Modify  | 1.866      | 1.866      | 1.866      |   0.0 |  1.32
Other   |            | 0.3179     |            |       |  0.22

Nlocal:    217 ave 217 max 217 min
Histogram: 1 0 0 0 0 0 0 0 0 0
Nghost:    957 ave 957 max 957 min
Histogram: 1 0 0 0 0 0 0 0 0 0
Neighs:    4099 ave 4099 max 4099 min
Histogram: 1 0 0 0 0 0 0 0 0 0
FullNghs:  8198 ave 8198 max 8198 min
Histogram: 1 0 0 0 0 0 0 0 0 0

Total # of neighbors = 8198
Ave neighs/atom = 37.7788
Neighbor list builds = 4504
Dangerous builds = 81
Total wall time: 0:02:24
