LAMMPS (3 Mar 2020)

# ---------- 1. Initialize simulation ----------
units metal
atom_style atomic
dimension 3
boundary p p p
read_data /home/modeler/RemLabs/Project/arrhenius_4_test/T1400.0/n3_T1400.0_timestep3.000000e-03_eqsteps3200_time15_rseed3321/20201205-103338/lammps.data
  orthogonal box = (0 0 0) to (17.469 17.469 17.469)
  1 by 1 by 1 MPI processor grid
  reading atoms ...
  217 atoms
  read_data CPU = 0.00108195 secs

pair_style meam/c
pair_coeff * * library.meam Li Si LiSi.meam Li Si
Reading potential file library.meam with DATE: 2012-06-29
Reading potential file LiSi.meam with DATE: 2020-11-07

group Li type 1
1 atoms in group Li
group Si type 2
216 atoms in group Si

velocity all create 1400.0 3321 dist gaussian

# ---------- 2. Specify equilibration ensemble  ----------
fix 1 all npt temp 1400.0 1400.0 0.15 tchain 2 iso 1.0 1.0 1.0 pchain 2
# fix 1 all nvt temp 1400.0 1400.0 0.15

# ---------- 3. Run equilibration -------------
timestep 0.003
run 3200
Neighbor list info ...
  update every 1 steps, delay 10 steps, check yes
  max neighbors/atom: 2000, page size: 100000
  master list distance cutoff = 6
  ghost atom cutoff = 6
  binsize = 3, bins = 6 6 6
  2 neighbor lists, perpetual/occasional/extra = 2 0 0
  (1) pair meam/c, perpetual
      attributes: full, newton on
      pair build: full/bin/atomonly
      stencil: full/bin/3d
      bin: standard
  (2) pair meam/c, perpetual, half/full from (1)
      attributes: half, newton on
      pair build: halffull/newton
      stencil: none
      bin: none
Per MPI rank memory allocation (min/avg/max) = 8.895 | 8.895 | 8.895 Mbytes
Step Temp E_pair E_mol TotEng Press Volume 
       0         1400   -951.04357            0    -911.9553   -116399.41    5330.9442 
    3200    1381.2326   -958.21493            0   -919.65065    11584.958    4508.2712 
Loop time of 2.34524 on 1 procs for 3200 steps with 217 atoms

Performance: 353.669 ns/day, 0.068 hours/ns, 1364.464 timesteps/s
100.0% CPU use with 1 MPI tasks x no OpenMP threads

MPI task timing breakdown:
Section |  min time  |  avg time  |  max time  |%varavg| %total
---------------------------------------------------------------
Pair    | 2.2961     | 2.2961     | 2.2961     |   0.0 | 97.90
Neigh   | 0.0011802  | 0.0011802  | 0.0011802  |   0.0 |  0.05
Comm    | 0.013615   | 0.013615   | 0.013615   |   0.0 |  0.58
Output  | 2.5818e-05 | 2.5818e-05 | 2.5818e-05 |   0.0 |  0.00
Modify  | 0.029488   | 0.029488   | 0.029488   |   0.0 |  1.26
Other   |            | 0.004865   |            |       |  0.21

Nlocal:    217 ave 217 max 217 min
Histogram: 1 0 0 0 0 0 0 0 0 0
Nghost:    957 ave 957 max 957 min
Histogram: 1 0 0 0 0 0 0 0 0 0
Neighs:    4209 ave 4209 max 4209 min
Histogram: 1 0 0 0 0 0 0 0 0 0
FullNghs:  8418 ave 8418 max 8418 min
Histogram: 1 0 0 0 0 0 0 0 0 0

Total # of neighbors = 8418
Ave neighs/atom = 38.7926
Neighbor list builds = 2
Dangerous builds = 0

# ---------- 4. Describe computed properties----------
compute msdli Li msd
compute msdsi Si msd
thermo_style custom step pe ke etotal temp press density c_msdli[4] c_msdsi[4]
thermo 100

# ---------- 3. Run production -------------
timestep 0.003
run 5000
Per MPI rank memory allocation (min/avg/max) = 9.659 | 9.659 | 9.659 Mbytes
Step PotEng KinEng TotEng Temp Press Density c_msdli[4] c_msdsi[4] 
    3200   -958.21493    38.564278   -919.65065    1381.2326    11584.958    2.2370677            0 2.4537774e-32 
    3300   -954.61672    37.040779   -917.57594    1326.6664    8238.6902    2.2213608  0.057478992  0.077410684 
    3400   -952.40856     38.50335   -913.90521    1379.0504   -7755.2952    2.1759273   0.34224569  0.094594513 
    3500   -952.60851    35.635259   -916.97325    1276.3257   -10021.297    2.1694174    0.2076487  0.093128348 
    3600   -959.17541    40.201957   -918.97346    1439.8883   -1896.0565    2.2037295   0.11000221  0.094465989 
    3700   -954.54256    43.783896   -910.75867    1568.1804    7452.6722    2.2130178   0.07192465   0.10114276 
    3800   -952.63674     38.32936   -914.30738    1372.8187    6212.0081    2.2073621   0.17956261   0.10267054 
    3900   -957.34343    39.539353   -917.80408    1416.1562   -7488.1517    2.1844768   0.14999674   0.10498378 
    4000    -951.0788    40.128289   -910.95051    1437.2498   -7547.6904    2.1696415  0.095869548    0.1153556 
    4100   -952.89697    40.667085   -912.22989    1456.5475    1962.9183    2.1959163  0.038272308  0.088729216 
    4200   -952.67733    36.363801   -916.31353    1302.4195    7743.4499    2.2151771   0.13794076  0.092042796 
    4300    -954.3698     39.31855   -915.05125    1408.2479    1911.8544    2.2025807   0.10878159  0.083267937 
    4400   -952.29427    43.493126   -908.80115     1557.766   -8319.4931    2.1681517   0.11419286  0.092619469 
    4500   -956.69916    39.484836   -917.21432    1414.2036   -3640.4696    2.1896926  0.028679199  0.083697134 
    4600   -958.70511    42.912762   -915.79235    1536.9795     512.0797    2.2043423  0.077326632  0.089607397 
    4700   -954.66462     43.01614   -911.64848    1540.6821    4014.1377    2.2059218   0.11661127   0.10126858 
    4800   -956.01973    41.025593   -914.99413    1469.3879   -2027.6947    2.1916067   0.19955884   0.10211256 
    4900   -954.92667    36.411136   -918.51553    1304.1148   -7261.6661    2.1810524    0.1838669    0.1139859 
    5000   -954.63176    39.750673   -914.88108    1423.7249    -1817.856    2.1917806   0.20389067   0.10115084 
    5100   -953.40916    40.500744   -912.90841    1450.5898    5998.2055    2.2080017  0.062779273  0.090029718 
    5200   -961.76627    40.615109   -921.15116    1454.6859      4550.48    2.2211802   0.16890636   0.09883237 
    5300    -953.3911    37.342938   -916.04817    1337.4886    -4511.878    2.1843648   0.25343626   0.10803695 
    5400   -953.84768    39.664703   -914.18298    1420.6458   -9602.5976    2.1730643  0.022329919  0.085119755 
    5500   -955.61023    36.969083   -918.64115    1324.0985   -1840.8938    2.1971226  0.071102775  0.088989168 
    5600   -956.15583    36.564182   -919.59165    1309.5964    9344.8646    2.2231837  0.043872171   0.08585146 
    5700   -956.26794    43.061173   -913.20677     1542.295    2983.6141    2.2049979   0.22144352  0.091901793 
    5800   -955.37254    39.042484   -916.33006    1398.3602   -5658.4992    2.1842153  0.091215381   0.10235828 
    5900     -960.934    40.707467   -920.22653    1457.9938   -8684.2601    2.1845291   0.07617583  0.090489176 
    6000   -953.42163    39.959019   -913.46262    1431.1871    990.21751    2.1965038  0.026183253   0.10896371 
    6100   -956.35992    43.260205   -913.09971    1549.4237    8276.5814    2.2215625   0.22019016   0.12005568 
    6200   -955.63962    39.255689   -916.38393    1405.9964    3392.6427    2.2081575   0.10745808   0.12588478 
    6300     -953.582    36.449593   -917.13241    1305.4922   -7967.4254    2.1791957   0.13327206   0.11950018 
    6400   -948.45532    39.641855   -908.81347    1419.8275   -9044.4292    2.1645248  0.094369811   0.11261321 
    6500   -953.98193    39.090935   -914.89099    1400.0955     5289.203     2.209457  0.070567933    0.1001757 
    6600   -955.79409    39.751946   -916.04215    1423.7706    10014.487    2.2259901  0.099019738   0.10822173 
    6700   -954.20708     42.88347   -911.32361    1535.9304    1047.5983    2.1983273   0.12522426   0.10620631 
    6800   -951.83035    39.863624   -911.96672    1427.7704    -8950.193    2.1686858   0.15527797   0.10538305 
    6900   -954.47232    37.107035   -917.36529    1329.0394    -7331.897    2.1810775    0.1850817   0.09261671 
    7000   -950.90392    37.403854   -913.50006    1339.6704    5553.7378    2.2052546   0.57909952  0.092454125 
    7100   -950.92708    41.157943   -909.76914    1474.1282    9803.5252     2.214092  0.020858908   0.12255109 
    7200   -955.90429    37.586854   -918.31744    1346.2248    3734.8209    2.2128941     0.166128   0.11557764 
    7300   -952.78961    36.865115    -915.9245    1320.3747   -6305.1278    2.1791792  0.079684587    0.1201189 
    7400    -953.0623    39.927523   -913.13478    1430.0591    -8233.083    2.1745152  0.061268255   0.11945672 
    7500   -958.31577    37.317623   -920.99815    1336.5819    2846.6962    2.2126892   0.18993045  0.096452628 
    7600   -957.88069    40.772535   -917.10815    1460.3244    5181.6882    2.2154524   0.12968044  0.097170882 
    7700   -954.94181    41.245521   -913.69629     1477.265   -817.99033    2.1977667   0.20899781   0.10362349 
    7800   -953.97826    36.291487   -917.68677    1299.8295   -4133.0837    2.1872473  0.036908662  0.097172154 
    7900   -955.40014    34.958111   -920.44203    1252.0728   -2904.3062    2.1966446   0.28845915  0.089392233 
    8000   -953.61036    40.217327   -913.39303    1440.4388    2044.8762    2.1988613   0.16081607  0.089141381 
    8100   -955.15836    39.748097   -915.41026    1423.6327    3354.3463    2.2066477   0.25449141  0.094195422 
    8200   -956.87276    36.299741   -920.57302    1300.1251    1435.9963    2.2070056   0.18686649    0.0987764 
Loop time of 3.66325 on 1 procs for 5000 steps with 217 atoms

Performance: 353.784 ns/day, 0.068 hours/ns, 1364.906 timesteps/s
100.0% CPU use with 1 MPI tasks x no OpenMP threads

MPI task timing breakdown:
Section |  min time  |  avg time  |  max time  |%varavg| %total
---------------------------------------------------------------
Pair    | 3.5832     | 3.5832     | 3.5832     |   0.0 | 97.81
Neigh   | 0.0035911  | 0.0035911  | 0.0035911  |   0.0 |  0.10
Comm    | 0.021244   | 0.021244   | 0.021244   |   0.0 |  0.58
Output  | 0.0016711  | 0.0016711  | 0.0016711  |   0.0 |  0.05
Modify  | 0.046038   | 0.046038   | 0.046038   |   0.0 |  1.26
Other   |            | 0.007518   |            |       |  0.21

Nlocal:    217 ave 217 max 217 min
Histogram: 1 0 0 0 0 0 0 0 0 0
Nghost:    957 ave 957 max 957 min
Histogram: 1 0 0 0 0 0 0 0 0 0
Neighs:    4193 ave 4193 max 4193 min
Histogram: 1 0 0 0 0 0 0 0 0 0
FullNghs:  8386 ave 8386 max 8386 min
Histogram: 1 0 0 0 0 0 0 0 0 0

Total # of neighbors = 8386
Ave neighs/atom = 38.6452
Neighbor list builds = 6
Dangerous builds = 0
Total wall time: 0:00:06
