LAMMPS (3 Mar 2020)

# ---------- 1. Initialize simulation ----------
units metal
atom_style atomic
dimension 3
boundary p p p
read_data /home/modeler/RemLabs/Project/arrhenius_3/T1300.0/n3_T1300.0_timestep3.000000e-03_eqsteps3200_time600_rseed3323/20201205-081840/lammps.data
  orthogonal box = (0 0 0) to (17.469 17.469 17.469)
  1 by 1 by 1 MPI processor grid
  reading atoms ...
  217 atoms
  read_data CPU = 0.0010893 secs

pair_style meam/c
pair_coeff * * library.meam Li Si LiSi.meam Li Si
Reading potential file library.meam with DATE: 2012-06-29
Reading potential file LiSi.meam with DATE: 2020-11-07

group Li type 1
1 atoms in group Li
group Si type 2
216 atoms in group Si

velocity all create 1300.0 3323 dist gaussian

# ---------- 2. Specify equilibration ensemble  ----------
fix 1 all npt temp 1300.0 1300.0 0.15 tchain 2 iso 1.0 1.0 1.0 pchain 2
# fix 1 all nvt temp 1300.0 1300.0 0.15

# ---------- 3. Run equilibration -------------
timestep 0.003
run 3200
Neighbor list info ...
  update every 1 steps, delay 10 steps, check yes
  max neighbors/atom: 2000, page size: 100000
  master list distance cutoff = 6
  ghost atom cutoff = 6
  binsize = 3, bins = 6 6 6
  2 neighbor lists, perpetual/occasional/extra = 2 0 0
  (1) pair meam/c, perpetual
      attributes: full, newton on
      pair build: full/bin/atomonly
      stencil: full/bin/3d
      bin: standard
  (2) pair meam/c, perpetual, half/full from (1)
      attributes: half, newton on
      pair build: halffull/newton
      stencil: none
      bin: none
Per MPI rank memory allocation (min/avg/max) = 8.895 | 8.895 | 8.895 Mbytes
Step Temp E_pair E_mol TotEng Press Volume 
       0         1300   -951.04357            0   -914.74732   -116958.82    5330.9442 
    3200    1376.6428   -960.06314            0   -921.62701    13224.678    4499.4461 
Loop time of 2.33908 on 1 procs for 3200 steps with 217 atoms

Performance: 354.601 ns/day, 0.068 hours/ns, 1368.058 timesteps/s
100.0% CPU use with 1 MPI tasks x no OpenMP threads

MPI task timing breakdown:
Section |  min time  |  avg time  |  max time  |%varavg| %total
---------------------------------------------------------------
Pair    | 2.2893     | 2.2893     | 2.2893     |   0.0 | 97.87
Neigh   | 0.0023819  | 0.0023819  | 0.0023819  |   0.0 |  0.10
Comm    | 0.013414   | 0.013414   | 0.013414   |   0.0 |  0.57
Output  | 2.4598e-05 | 2.4598e-05 | 2.4598e-05 |   0.0 |  0.00
Modify  | 0.029189   | 0.029189   | 0.029189   |   0.0 |  1.25
Other   |            | 0.004798   |            |       |  0.21

Nlocal:    217 ave 217 max 217 min
Histogram: 1 0 0 0 0 0 0 0 0 0
Nghost:    957 ave 957 max 957 min
Histogram: 1 0 0 0 0 0 0 0 0 0
Neighs:    4231 ave 4231 max 4231 min
Histogram: 1 0 0 0 0 0 0 0 0 0
FullNghs:  8462 ave 8462 max 8462 min
Histogram: 1 0 0 0 0 0 0 0 0 0

Total # of neighbors = 8462
Ave neighs/atom = 38.9954
Neighbor list builds = 4
Dangerous builds = 0

# ---------- 4. Describe computed properties----------
compute msdli Li msd
compute msdsi Si msd
thermo_style custom step pe ke etotal temp press density c_msdli[4] c_msdsi[4]
thermo 100

# ---------- 3. Run production -------------
timestep 0.003
run 200000
Per MPI rank memory allocation (min/avg/max) = 9.667 | 9.667 | 9.667 Mbytes
Step PotEng KinEng TotEng Temp Press Density c_msdli[4] c_msdsi[4] 
    3200   -960.06314    38.436129   -921.62701    1376.6428    13224.678    2.2414555            0 3.1974004e-32 
    3300   -960.05626    40.687272   -919.36899    1457.2705    4644.2432    2.2206693  0.053904872  0.076912533 
    3400   -954.88201    38.161698   -916.72031    1366.8136   -8713.0855    2.1797945  0.092548218   0.10202712 
    3500   -957.66316    33.334834   -924.32833    1193.9329   -9996.5318    2.1811383   0.08015296   0.08797795 
    3600   -959.05305    36.825802   -922.22725    1318.9667   -2286.1479    2.2003014  0.087865516  0.082267349 
    3700   -956.85377    38.060485   -918.79328    1363.1886    9709.5667    2.2257856  0.030695854  0.075884984 
    3800   -960.22068    35.630406   -924.59027    1276.1519    9464.0187    2.2344021  0.040730214  0.082623792 
    3900   -961.04881    36.344893   -924.70392    1301.7422   -779.88648    2.2091513   0.14877651  0.086461729 
    4000   -954.76436    34.101724   -920.66264    1221.4001   -6974.3012    2.1823752   0.21355064   0.11439397 
    4100   -954.54082    33.270626   -921.27019    1191.6332   -6180.9215    2.1851057  0.014734726  0.098539189 
    4200   -959.76371    32.068997   -927.69471    1148.5952    2844.5486    2.2192326  0.074976605  0.091221501 
    4300   -957.79484    37.036132   -920.75871    1326.4999    8504.6817     2.224913    0.1047563  0.090101336 
    4400   -957.42843    36.834738    -920.5937    1319.2867    5814.6568     2.218172   0.12161657  0.081587098 
    4500   -960.50569    35.571732   -924.93396    1274.0504   -2519.9984    2.2036538  0.038621549  0.075757566 
    4600    -957.9863    31.516303      -926.47    1128.7997   -6422.6786    2.1923491   0.13103563   0.10113619 
    4700   -958.04997    38.143642   -919.90633    1366.1669   -7434.3699    2.1858257   0.11347666  0.091582937 
    4800   -957.25999    35.672521   -921.58747    1277.6603     700.5758    2.2070428 0.0040507069   0.09249538 
    4900   -959.27669     35.96111   -923.31558    1287.9965    7452.0156    2.2247766  0.057630614  0.090901831 
    5000   -958.33553    42.398534     -915.937    1518.5617    3001.2757    2.2103799   0.13567784  0.098916617 
    5100   -955.47633    36.846313   -918.63001    1319.7013    1014.2039    2.1998434  0.014169302    0.1008205 
    5200   -960.25779    37.626539   -922.63125    1347.6462   -7977.1149    2.1894931  0.046955393   0.10031525 
    5300   -957.00813    35.614441   -921.39369    1275.5801   -6098.0825    2.1881681   0.18285325   0.10026789 
    5400   -954.22604    39.160853   -915.06519    1402.5997    102.16714    2.1921025   0.17261657  0.093252515 
    5500   -958.52738    36.458754   -922.06862    1305.8203    7234.9303    2.2240959  0.090423199  0.087383893 
    5600   -956.95259    35.006239   -921.94635    1253.7965    9070.7102     2.224713  0.070052653  0.094550981 
    5700   -955.57293    39.258985   -916.31394    1406.1145    -1107.946    2.1972167     0.242961  0.093492345 
    5800   -956.31634    35.409853   -920.90649    1268.2525   -7641.0347    2.1823017   0.10549007  0.085697113 
    5900   -959.05074    35.972812   -923.07793    1288.4157   -9797.6395    2.1832899  0.084999248  0.084565335 
    6000    -956.6227    37.479983   -919.14272    1342.3971   -967.25253    2.1965518   0.17181162  0.094676289 
    6100    -955.0272    37.942844   -917.08435    1358.9751    9905.0194    2.2189525  0.060408352   0.10378171 
    6200   -959.02277    34.803181   -924.21959    1246.5237    11382.523     2.236647  0.011955567   0.09198683 
    6300   -954.59462    33.345806   -921.24882    1194.3258    3496.2366     2.208665   0.17192942  0.095398445 
    6400   -955.28101    35.430901   -919.85011    1269.0064   -6680.6694     2.182054   0.19696141  0.090107706 
    6500   -959.67219    32.565303   -927.10689     1166.371   -6328.4814    2.1934467  0.064760129  0.090510489 
    6600   -956.52132    33.409603   -923.11172    1196.6108   -1135.4137    2.2014718   0.20952346  0.094079511 
    6700   -957.41508    37.643684    -919.7714    1348.2603    4979.8602    2.2185752  0.014401251  0.091248755 
    6800   -960.16284     36.20608   -923.95676    1296.7705    7135.2425    2.2294619   0.22378501  0.085750915 
    6900   -960.31205    33.984872   -926.32718    1217.2149    1756.6694    2.2177503 0.0057851166  0.086305131 
    7000   -957.79427    37.846154   -919.94812     1355.512   -7349.9572    2.1861686  0.099475246  0.092723743 
    7100   -957.78934    35.873755   -921.91559    1284.8678   -8211.1529    2.1863128   0.13229847   0.09643617 
    7200   -963.00336    36.734085   -926.26927    1315.6817   -2461.7652    2.2096058   0.16589561  0.075667636 
    7300   -958.08291    38.289265   -919.79364    1371.3826     5747.491     2.221801   0.10277133  0.085302467 
    7400   -958.44272    38.767498   -919.67523    1388.5112     9080.395    2.2296646  0.028644734  0.089638712 
    7500   -956.86353     33.86233    -923.0012    1212.8259    4075.4421    2.2144119   0.13629512  0.093132382 
    7600   -956.77408    36.020149   -920.75393    1290.1111   -6712.5639    2.1867267   0.21907139  0.096431384 
    7700   -953.04023    36.239117   -916.80111    1297.9537   -7299.6887    2.1746939   0.50803368   0.10151584 
    7800   -958.16548    35.827447   -922.33803    1283.2092   -975.91373    2.2009781   0.10292372  0.081348585 
    7900   -961.53835    39.676398   -921.86196    1421.0647    4792.4501    2.2216873  0.043429502  0.084968133 
    8000   -954.35685    39.621154    -914.7357    1419.0861    5592.1721    2.2114292  0.039133421  0.089299019 
    8100    -958.1191    36.459047   -921.66006    1305.8308    1727.1077    2.2100316   0.22469561  0.084917135 
    8200   -958.45617     35.84186   -922.61431    1283.7254   -3880.7253    2.1980048   0.08520671  0.098848258 
    8300    -955.2578    37.683459   -917.57434    1349.6849   -6120.2475     2.186245   0.18407069   0.10545109 
    8400   -956.57892     37.12787   -919.45105    1329.7857   -1450.0837    2.1983847   0.24336209  0.097962443 
    8500   -959.74212    36.580629   -923.16149    1310.1855    2582.1674    2.2175737   0.14917034  0.087258147 
    8600   -959.49619    39.328066   -920.16813    1408.5887    3882.4675     2.216707   0.64679303  0.093703657 
    8700   -955.94181    37.311722   -918.63009    1336.3706    965.02666    2.2061081  0.016783677   0.10032952 
    8800   -960.12263    33.847913   -926.27471    1212.3095   -835.15666    2.2109663   0.20406275   0.09963473 
    8900   -957.17532    34.813921    -922.3614    1246.9084   -1883.3575     2.200564   0.16865704   0.10358388 
    9000   -959.05101    39.145146   -919.90586    1402.0372   -2895.7724     2.197661  0.036915027  0.099720079 
    9100   -959.46497    33.508575   -925.95639    1200.1556   -1935.6674    2.2098117  0.034795256   0.11061955 
    9200   -957.36396    33.114477   -924.24948    1186.0405    2743.2788    2.2102021  0.062634743   0.10332899 
    9300   -955.33437     35.28062   -920.05375    1263.6239    1361.1477    2.2058425  0.063560974   0.11288299 
    9400   -955.75163     33.14824   -922.60339    1187.2497    1453.4562    2.2074429   0.37180525  0.091207513 
    9500   -959.42216     31.88331   -927.53885    1141.9445    261.22715    2.2136748  0.041573933   0.09520244 
    9600   -954.94684    34.977189   -919.96965    1252.7561   -1061.9057    2.1955813    0.2358862   0.10220264 
    9700   -958.45536    37.216108   -921.23925     1332.946   -1471.5315     2.201732  0.016396582   0.10290609 
    9800   -958.66593    33.685219   -924.98071    1206.4824    2362.1144    2.2155234   0.13225305  0.099293131 
    9900   -959.08406     34.58688   -924.49718    1238.7766    4712.2039    2.2206961  0.095856844  0.092740319 
   10000   -955.89259    36.802816   -919.08977    1318.1434    439.00886    2.2019818   0.12598428  0.092046409 
   10100   -957.43348    35.686905   -921.74658    1278.1755   -6979.2427    2.1862598  0.037645486  0.096904505 
   10200   -960.40736    36.893105   -923.51425    1321.3772   -8400.7757    2.1874637   0.14624434  0.090822211 
   10300   -962.31354    35.226558   -927.08699    1261.6875    1278.0809    2.2168376  0.041983381  0.080488332 
   10400   -963.78442    33.965524    -929.8189    1216.5219    14159.459    2.2539967   0.05842576  0.085551794 
   10500   -959.19733    35.860478   -923.33685    1284.3923    11109.329    2.2340558   0.21717957  0.085943995 
   10600   -957.41148    35.695219   -921.71626    1278.4733   -3777.9549    2.1948581  0.018057524  0.087689652 
   10700   -956.73329    35.948838   -920.78445     1287.557   -9191.2586      2.17817  0.087018482  0.092662967 
   10800   -959.92515    32.397011   -927.52814    1160.3434   -4846.6761    2.1977251  0.030926143   0.08760268 
   10900    -959.8169    35.458257   -924.35864    1269.9862   -119.23167    2.2101594   0.20979016  0.089882715 
   11000   -958.63466    38.257072   -920.37759    1370.2296    6069.9207    2.2182461   0.04283704    0.0780146 
   11100   -953.06853    31.029933    -922.0386    1111.3797    6535.4241    2.2161516  0.069123611   0.10025779 
   11200   -963.30921    34.985864   -928.32335    1253.0668   -1098.7045    2.2147247    0.1694051  0.082175611 
   11300   -957.05926    35.961095   -921.09817     1287.996   -6666.8531    2.1894798  0.073941312   0.10570857 
   11400   -957.61596    36.516219   -921.09974    1307.8786   -5206.3861    2.1924201  0.094119467   0.10310079 
   11500   -959.43286    35.671018   -923.76185    1277.6065    2405.2374    2.2123818  0.067156518   0.08644997 
   11600   -960.48987    31.886373    -928.6035    1142.0543    8409.2206    2.2337545   0.17191838  0.082312704 
   11700   -955.60258    34.904185   -920.69839    1250.1413    2696.2435    2.2071781 0.0085585509  0.096346764 
   11800   -958.00428    36.821055   -921.18323    1318.7967   -3621.4298    2.1924555  0.085872785  0.090422899 
   11900   -958.84629    36.210192    -922.6361    1296.9178   -7133.5146     2.188127  0.040924581   0.08628444 
   12000   -962.66831    33.462366   -929.20594    1198.5006   -2571.7189    2.2094384  0.071300506  0.075644904 
   12100   -962.80664    38.172289   -924.63435     1367.193    3740.2681    2.2252116   0.05286718   0.08615132 
   12200    -958.1947    37.160756   -921.03394    1330.9635    14187.533     2.239419  0.086999454  0.091752081 
   12300   -958.90814    38.074533   -920.83361    1363.6917    4110.1931    2.2163132  0.083336915  0.083748375 
   12400    -956.3348    35.250258   -921.08454    1262.5364   -12758.466    2.1705265   0.13259069   0.10726286 
   12500   -961.00462    33.065556   -927.93906    1184.2883   -11459.805    2.1825677  0.015158308   0.09332664 
   12600   -957.14252    33.846969   -923.29555    1212.2757   -282.84502      2.20385   0.12999922   0.10252726 
   12700   -956.40208    36.092282    -920.3098    1292.6947    6411.9009    2.2207311  0.049760216   0.10883975 
   12800   -960.36069    37.736737   -922.62395    1351.5931    3786.6598    2.2201591   0.22499319   0.10245698 
   12900   -961.60125    34.070442   -927.53081    1220.2797   -714.32662    2.2176247   0.11470394  0.099961333 
   13000   -956.08222    35.007539   -921.07468    1253.8431   -2823.4904     2.194054  0.028367101   0.10175037 
   13100   -958.71768    37.791103   -920.92657    1353.5403   -7167.7803    2.1908396  0.098328989   0.10316811 
   13200   -961.83654    34.958317   -926.87823    1252.0801   -1243.4666    2.2129319   0.18728382  0.087941551 
   13300   -960.07656    36.570076   -923.50648    1309.8075    3351.8544    2.2216336   0.10907242  0.094861942 
   13400   -957.61825     37.48177   -920.13648    1342.4611    7055.9617    2.2201789  0.030805532  0.094240348 
   13500   -959.20128    36.183922   -923.01736    1295.9769   -8.2861742    2.2089653  0.095448676  0.087626649 
   13600   -962.09083    34.172145   -927.91868    1223.9223   -7022.1983    2.1988253  0.051949174   0.08208808 
   13700   -959.01825    38.460398   -920.55786     1377.512   -9177.7368    2.1817463   0.10387848  0.089174595 
   13800   -956.47606    35.881671   -920.59439    1285.1513    3272.5814    2.2094279 0.0093120289  0.097849947 
   13900   -957.37783    35.879533    -921.4983    1285.0748    14226.748    2.2392339  0.018782038  0.091392413 
   14000   -962.71861    36.474721   -926.24389    1306.3922    9068.4845    2.2395745  0.012519213  0.085984785 
   14100   -961.89953    33.209091   -928.69044    1189.4292   -3282.2247    2.2072909   0.13781919  0.089604805 
   14200   -959.47705    37.098036   -922.37901    1328.7171   -15309.612    2.1692847   0.10297219  0.082770445 
   14300   -957.94151    36.278056   -921.66345    1299.3484   -7556.8278    2.1849253  0.078122191  0.093058328 
   14400   -955.81185    36.053708   -919.75814    1291.3131    2428.5629    2.2094536  0.027888922   0.09376563 
   14500   -954.15546    41.658273   -912.49719    1492.0483    4954.4618    2.2067784   0.22941423  0.088117486 
   14600   -956.47719    36.536713   -919.94048    1308.6126    5339.6421    2.2165704   0.10425764  0.085686873 
   14700   -956.41292    34.754913     -921.658     1244.795   -1713.7076    2.2000405   0.19058129  0.087269022 
   14800   -953.84384    32.151872   -921.69196    1151.5635   -3293.4848    2.1908861   0.18322257   0.08731128 
   14900   -956.50742     38.62678   -917.88064    1383.4712   -3621.8556    2.1939879  0.026596338   0.08785494 
   15000   -953.50353    37.745872   -915.75766    1351.9203    1971.1051    2.2039578  0.046399705     0.101301 
   15100   -958.15457    37.227844   -920.92672    1333.3664    1857.7036    2.2118216   0.15741138  0.091364076 
   15200   -959.44366    37.078997   -922.36466    1328.0352   -533.11486    2.2088255  0.045650971   0.08496801 
   15300   -957.46881    37.380618   -920.08819    1338.8382   -2086.4516     2.199591  0.091288362  0.092151203 
   15400   -955.88089    40.446557   -915.43434     1448.649   -4957.5365    2.1852076  0.088148552  0.091143481 
   15500   -957.30424     35.44776   -921.85648    1269.6102   -2221.5165    2.2001722   0.14911318  0.090341699 
   15600   -956.79691    34.906701   -921.89021    1250.2314    4372.3513    2.2165283   0.36026107  0.096268999 
   15700   -954.97421    38.886709    -916.0875    1392.7809    7477.8897    2.2183872    0.1037528   0.10120689 
   15800   -959.32049    40.301925   -919.01856    1443.4688     1611.684    2.2123815   0.13569936  0.079078647 
   15900   -958.26561    35.665001   -922.60061     1277.391   -7753.8898     2.188085    0.2366808  0.095508671 
   16000   -958.26595    37.375591   -920.89035    1338.6581   -11500.104    2.1779438   0.13282966  0.094261213 
   16100    -953.3733    38.141806    -915.2315    1366.1012   -991.76068    2.1896927  0.077476392   0.10773981 
   16200   -959.53112    36.993482   -922.53764    1324.9724    8057.5846    2.2317904  0.017184856  0.093104333 
   16300   -957.16107    34.751417   -922.40966    1244.6697     8657.774    2.2300336   0.12387783  0.097300925 
   16400   -957.90232    36.990606   -920.91172    1324.8694   -1569.2023    2.2056658  0.042202435    0.1035083 
   16500   -957.08107    38.742507   -918.33856    1387.6161   -8523.1419    2.1854659   0.30669771   0.10761593 
   16600   -960.20441    33.997266   -926.20715    1217.6588   -2230.3149    2.2057801   0.13735545  0.089732822 
   16700   -958.81319    35.185088    -923.6281    1260.2022    439.74234    2.2096228  0.085872437  0.092262442 
   16800   -956.55297     35.96477    -920.5882    1288.1276    1134.0617     2.210678   0.16379855   0.10084234 
   16900   -959.45298    38.742849   -920.71013    1387.6284     399.0375    2.2117536  0.095697887  0.099389341 
   17000   -959.47508    32.205232   -927.26985    1153.4746    4770.3289    2.2234614   0.13635313  0.096583994 
   17100    -956.5329    35.218103    -921.3148    1261.3847    663.06986    2.2044557  0.050011432   0.10923811 
   17200   -959.03235    38.524004   -920.50835    1379.7901   -2870.4084    2.2007807    0.1018572  0.098027318 
   17300   -961.40851    35.152989   -926.25552    1259.0526   -1373.0464    2.2109033  0.067228526  0.096019089 
   17400   -959.66377    36.477481   -923.18629    1306.4911   -1722.2955    2.2102253    0.0753404   0.10086761 
   17500   -957.18345    37.160072   -920.02338     1330.939    834.18682    2.2099581  0.050068834   0.10328046 
   17600   -959.99497    36.998718   -922.99626    1325.1599    2195.6851    2.2154863  0.039917705   0.09645422 
   17700   -962.01153    35.382713   -926.62882    1267.2805   -1238.0859    2.2147526  0.087877729  0.096499572 
   17800   -956.30481    37.898196   -918.40661     1357.376   -5461.1636    2.1866345   0.28562278   0.10675713 
   17900   -956.61068    35.741874   -920.86881    1280.1443    -6813.426    2.1871224   0.24861384  0.093447954 
   18000   -957.40637    34.103957   -923.30241    1221.4801    2540.1004     2.213285   0.10098133  0.096660509 
   18100   -958.90797    34.869247   -924.03872      1248.89     12284.38     2.241664   0.12475381  0.083891419 
   18200   -954.62685    38.006595   -916.62026    1361.2584    8281.0423    2.2171794   0.34151723   0.10560691 
   18300   -954.10344     33.44562   -920.65782    1197.9008   -2923.7068    2.1921201   0.13764949   0.10675862 
   18400    -957.8467    34.711087   -923.13561    1243.2252   -9384.9525    2.1828466   0.13198946  0.094591528 
   18500    -955.5898    36.783389   -918.80641    1317.4476   -3872.7437    2.1925087   0.11480094   0.10043178 
   18600    -956.7289    39.444148   -917.28475    1412.7463    4593.9295    2.2115584   0.16673198  0.093030606 
   18700   -955.14876    33.246364   -921.90239    1190.7642    8982.2401    2.2222485   0.18170564  0.098031538 
   18800   -959.90494    37.985641    -921.9193    1360.5079    1296.8869    2.2125886   0.15917689  0.097090198 
   18900   -951.40929    36.909912   -914.49937    1321.9792   -3889.3294    2.1841943   0.10295601   0.10508559 
   19000   -958.68107    37.409867    -921.2712    1339.8858   -5095.6744    2.1944889   0.22481824  0.087959769 
   19100   -955.89609    33.804139   -922.09195    1210.7417    778.14208    2.2074209   0.16641922  0.094971603 
   19200   -955.50884    36.039228   -919.46961    1290.7945    5303.9743    2.2140581   0.18186604  0.089726553 
   19300   -952.94517    39.602337   -913.34283    1418.4121    5198.3205    2.2074188   0.18572673   0.10198912 
   19400   -957.86706    36.193472   -921.67359    1296.3189    3071.4705    2.2155336  0.029750052   0.09125805 
   19500   -958.06396    36.384069   -921.67989    1303.1454   -6128.4041    2.1899328   0.10115601  0.085863529 
   19600   -955.35293    34.262051   -921.09087    1227.1424   -12144.158    2.1732401  0.080046266   0.11065043 
   19700   -959.03464    32.382685   -926.65196    1159.8303   -3165.4932    2.2043332   0.17879011  0.091004385 
   19800   -960.49222    34.722096   -925.77012    1243.6195    11826.259    2.2427713   0.10159837   0.10060388 
   19900   -954.67864    34.041134   -920.63751      1219.23    16460.385     2.241182  0.072764482  0.096475696 
   20000   -957.39378    36.535706   -920.85807    1308.5765    2421.1009    2.2134168   0.20389023   0.10304723 
   20100   -958.73554    33.386885   -925.34866    1195.7972   -7467.9993    2.1947739  0.063498344    0.1173905 
   20200   -960.75482    34.954007   -925.80081    1251.9258   -7757.7107    2.1936996 0.0033700192  0.092882337 
   20300   -954.92138    33.962505   -920.95887    1216.4138    182.17473    2.2023828   0.10135368  0.096030631 
   20400   -955.51015    34.523171   -920.98698    1236.4948    7045.0238    2.2180349   0.13126641  0.093078795 
   20500   -961.20531    34.243421   -926.96189    1226.4752    6489.1804    2.2288027   0.19420425  0.096696189 
   20600   -958.41263    34.623589   -923.78904    1240.0914    1920.6499    2.2126348  0.045094458  0.092937516 
   20700   -954.56845    33.686139   -920.88231    1206.5154   -3251.0528     2.195814   0.42300725   0.10428143 
   20800   -958.34911    36.545171   -921.80394    1308.9155   -5281.2465    2.1959119  0.095894273  0.095979904 
   20900   -961.41714    34.611082   -926.80606    1239.6434   -318.22551    2.2135906   0.10611535  0.092295323 
   21000   -959.87646    34.676738   -925.19972     1241.995    6177.0013    2.2285792   0.16092807  0.099055574 
   21100   -955.90056    35.172314   -920.72824    1259.7447    10540.385    2.2281273   0.11803717  0.088114219 
   21200    -956.2165    34.909849   -921.30665    1250.3442    1202.1904    2.2079489  0.045349892  0.098649478 
   21300   -955.78103     32.02875   -923.75228    1147.1537   -9883.6006    2.1790882   0.07729083   0.10849405 
   21400   -960.79508    32.127315   -928.66777    1150.6839   -11294.331    2.1874679  0.077704555   0.10214551 
   21500   -958.35716    35.911142   -922.44602    1286.2069    2375.4201     2.212429    0.1527364  0.091880341 
   21600   -959.42742    38.948193   -920.47923     1394.983    12213.298    2.2393605   0.24319261  0.086153682 
   21700   -956.58493    34.362096   -922.22284    1230.7257    10495.053     2.231934   0.25230927  0.088163641 
   21800   -960.36148    31.092877   -929.26861    1113.6341    210.23242    2.2160722   0.17219272  0.088279611 
   21900   -957.81977    35.351196   -922.46857    1266.1516   -8907.7347    2.1891243   0.15414557    0.1034131 
   22000   -960.88084    39.717906   -921.16294    1422.5513   -6550.3165    2.1966259   0.16632022  0.098017579 
   22100   -959.85295    37.582747    -922.2702    1346.0777    129.73534    2.2111071   0.31469768  0.093692229 
   22200   -962.71755    33.510536   -929.20701    1200.2259      5535.93    2.2324541  0.038856404  0.091095879 
   22300    -957.9463    35.700632   -922.24567    1278.6672    1523.8538     2.212763  0.084870258   0.10169685 
   22400   -956.12065    35.007796   -921.11286    1253.8523    -1587.483    2.2005057  0.073133175   0.11362402 
   22500   -958.61908    36.506811   -922.11227    1307.5416   -5195.7604    2.1955772  0.059870957   0.10589963 
   22600   -961.56456    32.366773   -929.19778    1159.2604   -18.242249    2.2150358  0.024854065  0.096399535 
   22700   -959.09845    36.130749   -922.96771    1294.0724    1014.5411     2.212623   0.15565137  0.093804807 
   22800   -956.52028     35.55893   -920.96135    1273.5919    5920.5722    2.2176785   0.26209704  0.097682254 
   22900   -960.65575    38.670544   -921.98521    1385.0387    1141.3721    2.2150434  0.096362569  0.090923636 
   23000   -959.61446    30.855755    -928.7587    1105.1413   -1215.4049    2.2092933  0.097004508  0.089640113 
   23100   -959.68821    36.087382   -923.60082    1292.5191    -10372.47    2.1858852  0.094829051  0.091598664 
   23200   -956.72456    35.324561       -921.4    1265.1977    -3081.696    2.1982641   0.11582958  0.094816812 
   23300   -958.09601    37.385943   -920.71006    1339.0289    7102.1773    2.2258182  0.054630953  0.097269078 
   23400   -960.42039     33.18756   -927.23283    1188.6581    12509.485    2.2475435    0.1927051   0.08739862 
   23500    -960.0768     35.52422   -924.55258    1272.3487    1726.8655    2.2160688   0.03304804   0.10276443 
   23600   -959.05064    37.639444    -921.4112    1348.1084   -10483.245    2.1835012  0.042177043   0.10720181 
   23700   -956.97392    35.730042   -921.24388    1279.7205   -9868.1568    2.1805882  0.035023805  0.097073842 
   23800   -962.61633    35.156564   -927.45976    1259.1806   -3257.0503    2.2080476   0.18835045  0.092982348 
   23900   -959.34054    35.197823   -924.14272    1260.6584    5551.3164      2.22261   0.11485816  0.087814924 
   24000   -958.52915     37.94325    -920.5859    1358.9896    3961.8092    2.2173677   0.34827253  0.095665835 
   24100   -959.28357    37.352251   -921.93132    1337.8222   -927.58785    2.2079324  0.070554417  0.092541054 
   24200   -959.85833    31.407887   -928.45045    1124.9166   -2284.7141    2.2090288   0.20496628  0.087464723 
   24300   -959.45014    36.829042    -922.6211    1319.0827   -4348.8838    2.1955857   0.16591832  0.087416359 
   24400   -960.18252    39.319901   -920.86262    1408.2962   -1372.1553    2.2033024   0.12656472  0.090614205 
   24500    -959.7395    37.575769   -922.16373    1345.8278    3178.1171    2.2149025  0.096434329  0.089250338 
   24600   -960.23899    31.745643   -928.49335    1137.0138    6216.2521    2.2253663   0.15802286   0.08505551 
   24700   -958.54347    36.361933   -922.18153    1302.3526   -1832.1762    2.1993166  0.023336135  0.090439051 
   24800   -957.19821    36.075129   -921.12308    1292.0803   -3643.4911    2.1934592   0.10194712  0.094424128 
   24900   -958.74578     36.87646   -921.86932    1320.7811     -2012.83    2.1984268   0.10939971  0.098884742 
   25000   -959.99812    32.748289   -927.24983    1172.9249    2313.1492    2.2174592   0.18019816  0.090484993 
   25100   -958.97478    33.435777   -925.53901    1197.5483    8014.4825    2.2269744   0.28606565  0.094571869 
   25200   -955.51836    34.308141   -921.21022    1228.7932    7471.6763    2.2209326    0.2780874  0.088898637 
   25300   -954.84028    33.491245   -921.34903    1199.5349   -2562.3214    2.1939918  0.048550568  0.096328895 
   25400   -958.10222    35.929988   -922.17223    1286.8819   -13263.557    2.1714405  0.069289102  0.095062714 
   25500   -963.34414    34.147652   -929.19649    1223.0451   -7919.0536    2.1983871  0.019441234   0.08253835 
   25600   -958.94498    35.831369   -923.11361    1283.3497    6590.1004    2.2231103   0.16237059  0.083468806 
   25700   -955.90834     35.56202   -920.34632    1273.7026    11512.423    2.2320869  0.073996972  0.094073606 
   25800   -958.66888    36.853884     -921.815    1319.9725    4239.0283    2.2174521   0.14018127  0.085021382 
   25900   -960.21391    31.751635   -928.46228    1137.2284   -2717.1992    2.2063759  0.033706257  0.089619248 
   26000   -957.55575     35.71754   -921.83821    1279.2727   -7667.2205    2.1848629   0.10636901   0.10339868 
   26100   -957.09429    36.399465   -920.69483    1303.6968   -3423.0252     2.194829   0.33841041   0.10020573 
   26200   -959.57972    35.141053   -924.43867    1258.6251    2399.4646    2.2176755  0.071433044  0.096079907 
   26300   -962.33888    35.685511   -926.65337    1278.1256    5576.5528     2.230338   0.20802011  0.093271562 
   26400   -960.54065    40.307435   -920.23321    1443.6662    492.80753    2.2100531   0.19766841  0.086242472 
   26500   -958.09165    36.314521   -921.77713    1300.6544   -3121.2337    2.1985465   0.05417205  0.086096544 
   26600   -961.07763    35.282348   -925.79528    1263.6857   -5736.4605    2.1987551  0.086458025  0.087106346 
   26700   -960.14353    32.643378   -927.50015    1169.1674   -73.334522    2.2133943  0.061840151   0.08260634 
   26800   -956.53826    35.710402   -920.82786    1279.0171    4721.7686    2.2125069  0.050279293  0.088263811 
   26900   -958.53621    37.106269   -921.42994     1329.012    840.90718    2.2096851  0.075291366     0.085101 
   27000   -955.36254    32.752578   -922.60996    1173.0786    1254.6282    2.2023808   0.12026847   0.08683307 
   27100    -961.3735     31.71521   -929.65829    1135.9238   -3089.2874    2.2072229   0.22625002  0.077814179 
   27200   -958.18735    33.076811   -925.11054    1184.6914   -2940.7797    2.2012816   0.18235725  0.092627967 
   27300    -960.1465    38.229981   -921.91652    1369.2593    1384.2199    2.2098941   0.16305459  0.085100633 
   27400   -956.54984    35.976625   -920.57322    1288.5522    4007.3875    2.2151657   0.12886841  0.088944389 
   27500   -958.78183    34.627377   -924.15445    1240.2271    1999.9457    2.2145583  0.057619919  0.092577234 
   27600   -963.42128     36.83456   -926.58672    1319.2804   -3335.1134    2.2106623   0.13763545  0.082364528 
   27700   -958.59216    37.038481   -921.55368    1326.5841   -1483.6829    2.2042565   0.17549834  0.086220588 
   27800   -958.14842    37.500076   -920.64834    1343.1167   -874.81661    2.2049976  0.037596585  0.084889082 
   27900   -961.65159    34.548392    -927.1032    1237.3981   -26.461529    2.2141373    0.0266979  0.079628408 
   28000   -957.23855    33.382756   -923.85579    1195.6493   -329.01275    2.2072197  0.032134382  0.092881368 
   28100   -957.39964     36.71556   -920.68408    1315.0182   -336.64344    2.2057426   0.24361458  0.091243629 
   28200   -956.78071    34.331512    -922.4492    1229.6303    993.94906    2.2105419  0.029313145  0.092599042 
   28300   -961.65499    33.400262   -928.25473    1196.2762     1653.205    2.2185984  0.061282764  0.079765666 
   28400    -957.7529    36.947302    -920.8056    1323.3184   -3575.2988    2.1985576   0.14577182  0.094745831 
   28500   -956.79698    35.770738   -921.02624    1281.1781   -878.11942    2.2023468   0.13924964   0.09239231 
   28600   -956.30064    33.141667   -923.15897    1187.0143    1005.9472    2.2103137  0.035382814  0.093269393 
   28700    -961.6993    32.356979   -929.34232    1158.9097    3110.7301    2.2238075  0.081128712  0.085540399 
   28800   -957.20647    34.134797   -923.07167    1222.5846    888.25857    2.2080887  0.023940935  0.094936764 
   28900   -956.59156    35.098375   -921.49318    1257.0965    670.44223    2.2057154  0.098504112  0.087234862 
   29000   -957.56316    36.124494   -921.43866    1293.8484    217.74875     2.206273  0.047434222  0.085171641 
   29100   -961.53811    38.649914    -922.8882    1384.2997   -1749.7948    2.2092057   0.11172949  0.083872014 
   29200   -961.88309    32.910576   -928.97251    1178.7375    2599.1073    2.2234882  0.033731513  0.078482005 
   29300   -959.81228    36.877354   -922.93493    1320.8131    362.32649     2.211463   0.12123647  0.080916657 
   29400   -956.35444    35.462917   -920.89152    1270.1531   -792.32067    2.2022414    0.1122714  0.084865353 
   29500   -955.94532    34.646347   -921.29898    1240.9065   -1169.9683    2.1973237  0.017142397  0.085758279 
   29600    -959.5962    31.177438   -928.41877    1116.6628    671.10784    2.2157289  0.022724354  0.096856203 
   29700    -956.4054    34.346325   -922.05908    1230.1608    2691.9967    2.2126964   0.10646882  0.092818026 
   29800   -959.41934     38.86157   -920.55777    1391.8805    2192.2396    2.2136375   0.07673309    0.1045061 
   29900   -960.71827     36.50859   -924.20968    1307.6053   -1420.1084    2.2114129   0.02029503   0.10206972 
   30000   -959.38797    32.017596   -927.37038    1146.7542   -1082.4488    2.2074108   0.10505747  0.096602915 
   30100   -958.63374    37.703085   -920.93065    1350.3878   -4419.7566    2.1935931  0.018130196  0.091851165 
   30200      -956.99    35.676701    -921.3133      1277.81    63.878766    2.2043503  0.067375934  0.084374708 
   30300   -960.09416    34.145845   -925.94831    1222.9803    5188.8891    2.2239388  0.047459128  0.085637913 
   30400   -963.01624    37.729553   -925.28669    1351.3358    5254.5815    2.2282238    0.1545071  0.073291473 
   30500   -957.24192    36.680965   -920.56096    1313.7791    1373.0664    2.2070499   0.24080704  0.080865723 
   30600     -958.547    36.599618   -921.94738    1310.8656   -8201.1663    2.1860741  0.010071392  0.081546808 
   30700   -957.59848    33.260598   -924.33788     1191.274   -8702.8835    2.1838152   0.26791939  0.083677852 
   30800   -961.99904    31.913036   -930.08601    1143.0092    591.42013    2.2172887 0.0080505326  0.079544228 
   30900    -959.2235    36.640662   -922.58283    1312.3356    7657.4659    2.2262306  0.096742134  0.088864086 
   31000   -959.09692    37.879307   -921.21762    1356.6994    7425.9193    2.2242111   0.10563319  0.079892749 
   31100   -957.65396    36.223708   -921.43025    1297.4018   -989.26604    2.2012626  0.042316312  0.096135158 
   31200    -954.3654    38.661492    -915.7039    1384.7144   -7524.5131    2.1774503  0.037090051   0.10982431 
   31300   -953.49638    37.095348   -916.40103    1328.6208    -4392.989    2.1843841  0.045279719   0.11102128 
   31400   -956.28179    35.476988    -920.8048     1270.657    1086.7364    2.2033765  0.058300457  0.090850864 
   31500   -959.63314    37.697427   -921.93571    1350.1851    5189.1447    2.2204083   0.10584885  0.084997718 
   31600   -960.70036    38.345727   -922.35463    1373.4049    3830.2287    2.2176612  0.058681997  0.074859785 
   31700    -953.3605    39.068425   -914.29207    1399.2893   -4053.4388    2.1838841  0.011452357  0.096797033 
   31800   -956.05414    35.734089   -920.32005    1279.8655   -2786.4087    2.1940758  0.077745917  0.092357066 
   31900   -958.01177    35.668568    -922.3432    1277.5187   -770.82517    2.2056317  0.041389372  0.092417041 
   32000    -957.7308    36.526301    -921.2045    1308.2396    2974.6162    2.2125473   0.20686925  0.083398684 
   32100   -953.45325    38.793163   -914.66008    1389.4304    291.61689    2.1972004  0.014964572  0.094284944 
   32200   -956.91221    35.338898   -921.57331    1265.7112    514.79631    2.2041349  0.099069822  0.094249776 
   32300   -958.92314    36.673863   -922.24927    1313.5248   -1562.0617    2.2050926 0.0075536697  0.094537622 
   32400   -953.43173     36.56653    -916.8652    1309.6805     1712.589     2.200409   0.21321796   0.10330778 
   32500    -955.1482    36.881154   -918.26704    1320.9492    2231.1848    2.2041521   0.30039123  0.098158759 
   32600   -959.15818    36.613355   -922.54482    1311.3576   -373.17729    2.2066362   0.15280246  0.075359679 
   32700   -960.00154    38.925056   -921.07648    1394.1543   -2785.8396    2.1998021  0.060549773   0.08674411 
   32800   -954.50216    39.061329   -915.44083    1399.0351   -952.98393    2.1900321  0.036484444  0.092480774 
   32900   -956.20879    34.830154   -921.37864    1247.4898    187.67239    2.2030312  0.072725707  0.096170818 
   33000   -957.97288    35.520797   -922.45209    1272.2261   -832.89631    2.1988092   0.13075313  0.084022428 
   33100   -959.10887    38.067469    -921.0414    1363.4387   -2314.3529    2.1988562  0.087239852  0.096173401 
   33200     -957.921    40.252665   -917.66834    1441.7045   -140.03083    2.2014382   0.28096088  0.091686577 
   33300   -953.41759    40.746913   -912.67068    1459.4066    1022.0976     2.193613   0.12129628  0.092137496 
   33400   -956.26213    35.910255   -920.35188    1286.1751    3629.1961    2.2078369  0.096330755   0.10042726 
   33500   -957.65925     36.12926   -921.52999    1294.0191    265.40492    2.2049549  0.053818814  0.094756678 
   33600   -959.03233    36.608587   -922.42374    1311.1868      -1829.6     2.199274  0.069533827  0.093136432 
   33700   -960.67224    36.722491   -923.94975    1315.2664   -5210.2189    2.1983231  0.049381582  0.091470709 
   33800   -963.52086    33.374683   -930.14617    1195.3601    2336.2376    2.2232438  0.054892154     0.078931 
   33900   -961.01437     36.30113   -924.71324    1300.1748    5244.6211    2.2261513   0.12301649  0.093063374 
   34000   -958.11149    36.462477   -921.64902    1305.9537    2634.6975    2.2124968   0.21562545  0.095387242 
   34100   -956.70829    36.028302   -920.67999    1290.4031   -5362.6578    2.1908872   0.40632899   0.10118154 
   34200   -960.74256    35.056059    -925.6865    1255.5809   -9394.8364      2.18755  0.012170623  0.085593225 
   34300   -958.84885    33.355385   -925.49346    1194.6689   -2872.0195    2.2018039   0.24374227  0.094224481 
   34400   -956.31237    35.651005   -920.66136    1276.8897    7616.1498    2.2229218   0.13530918   0.10174191 
   34500   -957.69574    36.850416   -920.84533    1319.8483    10730.861    2.2315907  0.060203837  0.089340816 
   34600   -960.82879    33.348817   -927.47997    1194.4337    2771.2559    2.2203673  0.056694849  0.089833485 
   34700    -955.5582    33.735698   -921.82251    1208.2904   -6675.5838    2.1847218   0.12231552   0.10605676 
   34800   -960.17787    39.431217   -920.74665    1412.2832   -8766.7195    2.1861814  0.086116289   0.08963215 
   34900   -955.28896    32.970165   -922.31879    1180.8717    1763.6747     2.207733   0.15794767   0.10015137 
   35000   -960.73906    33.296471   -927.44259    1192.5588    6318.2095     2.227116   0.30742963  0.092239602 
   35100   -957.47453      35.9227   -921.55183    1286.6208    2595.1797     2.215317   0.11888206   0.10516302 
   35200   -958.30497    37.625214   -920.67976    1347.5987    223.61857     2.207119   0.17291658  0.095109506 
   35300   -957.19766     35.22367   -921.97399    1261.5841   -1223.9273    2.2040523    0.2121273  0.096318781 
   35400   -957.93717     33.93784   -923.99933    1215.5304   -2121.1512    2.2025993   0.25715648    0.1043791 
   35500   -962.53037    31.802242   -930.72813     1139.041    1683.5818    2.2244568  0.031250668  0.091894257 
   35600   -960.34975    36.688077   -923.66167    1314.0339   -562.25207    2.2122679  0.015595216  0.097034446 
   35700   -956.63566    35.029685   -921.60598    1254.6363    886.98436    2.2065702   0.14564593  0.093273155 
   35800   -955.27212    34.833889   -920.43823    1247.6236    521.31691    2.2020009   0.15832791  0.094416256 
   35900   -960.58667      34.7022   -925.88447    1242.9069    -2853.663    2.2068124  0.085340804  0.089012944 
   36000   -960.75943    35.041979   -925.71745    1255.0766   -2856.0871    2.2060521  0.053358274  0.086356734 
   36100   -957.67124    36.333458   -921.33779    1301.3327    2736.5964     2.213127  0.094494663   0.09798549 
   36200    -958.6288    38.361554   -920.26725    1373.9718    6144.2841    2.2241484  0.072291073  0.094887109 
   36300    -961.7782    34.609617   -927.16859     1239.591    3742.7851    2.2240435  0.023902847  0.080051285 
   36400   -958.27123    35.467723   -922.80351    1270.3252   -8348.0453    2.1889237  0.071625279  0.097017638 
   36500   -955.08403    34.479416   -920.60461    1234.9277   -9627.3803    2.1787753  0.053542334  0.095915256 
   36600   -956.39793    33.995383   -922.40255    1217.5913   -850.81984    2.2000092   0.16756157  0.094770699 
   36700   -961.94034    34.565554   -927.37478    1238.0128    9673.7256    2.2377667  0.011834525  0.081348587 
   36800    -957.4522    37.562164   -919.89004    1345.3405     7767.206    2.2257268   0.15213163  0.094407332 
   36900   -957.52855    37.018317   -920.51023    1325.8619    3297.6958    2.2106107  0.050299618  0.085814797 
   37000   -956.95676    34.006394   -922.95037    1217.9857   -5552.3285    2.1938519  0.065357686  0.087903106 
   37100    -959.3223    35.802035   -923.52027    1282.2991    -7621.247    2.1910063   0.22558887   0.10256003 
   37200   -954.26581    38.131362   -916.13445    1365.7271   -4510.5958    2.1880498  0.025386263  0.092623259 
   37300   -956.69693    36.213495   -920.48343    1297.0361    2477.9834    2.2119561   0.16569299   0.08815155 
   37400   -958.50138    36.155328   -922.34605    1294.9527    6337.0139    2.2234713  0.094148229  0.096744939 
   37500   -958.74035    39.119474   -919.62087    1401.1177    2855.6835    2.2117063   0.17972781  0.087650302 
   37600    -956.5126    40.198616   -916.31398    1439.7686   -4896.6212    2.1878858  0.021444314  0.099940945 
   37700   -959.19788    36.643451   -922.55443    1312.4355   -6764.6523    2.1937273  0.053461781  0.095818875 
   37800    -957.7324    36.196018   -921.53639    1296.4101   -1182.6079    2.2030253  0.024522698  0.084826936 
   37900   -954.27101    39.149718   -915.12129    1402.2009    2061.2487    2.2030633   0.21430225  0.089822849 
   38000   -958.99698    37.433672   -921.56331    1340.7384    2950.5365    2.2148923   0.18184698  0.094768408 
   38100   -959.47285    36.862571   -922.61028    1320.2836    -1670.899    2.2052094  0.041590468  0.098333718 
   38200   -955.44389    35.576151   -919.86774    1274.2087   -1946.9061    2.1952918  0.023142782  0.093536253 
   38300   -954.21482    38.774474   -915.44035    1388.7611   -2111.7683    2.1929983   0.11547415   0.10835772 
   38400   -958.15697     34.41357    -923.7434    1232.5693    3807.9161    2.2193441  0.070270298  0.090304673 
   38500   -957.77611    35.258061   -922.51805    1262.8159    2050.3487    2.2129297 0.0034386042  0.096774142 
   38600   -955.45416    34.857686   -920.59647    1248.4759   -1392.5216    2.2009569  0.037919243  0.095799547 
   38700   -956.79305    39.307928   -917.48512    1407.8674   -3695.3173    2.1921969  0.090454323   0.10048337 
   38800   -950.88965    41.128149    -909.7615    1473.0611   -1592.9893    2.1846855   0.40503589   0.10245988 
   38900   -954.74895    36.767153   -917.98179    1316.8661    6092.4123    2.2155815  0.073002805   0.10227309 
   39000   -958.55879    38.600499   -919.95829    1382.5299     3109.021    2.2135646  0.071497867  0.096529949 
   39100   -956.64313    34.973821   -921.66931    1252.6354   -3792.5971    2.1948805  0.056871735  0.096798951 
   39200   -958.81276    35.671993   -923.14077    1277.6414    -11241.03    2.1786083   0.12361803   0.10417663 
   39300   -964.63937    34.167348   -930.47203    1223.7505   -7012.5891    2.2023065   0.12011367  0.086865113 
   39400   -959.84448    35.158138   -924.68634     1259.237    5088.6056    2.2236332  0.058863623  0.096453395 
   39500   -958.10902    36.784659   -921.32436    1317.4931     13194.77    2.2397126   0.14082424  0.092006174 
   39600   -958.27334    37.892948   -920.38039     1357.188    5490.7122    2.2199235  0.047836663  0.094575425 
   39700   -952.72185    33.528518   -919.19333    1200.8699   -4054.5114    2.1872477   0.11134108   0.10404331 
   39800    -962.7461    35.734239   -927.01186    1279.8709   -7371.0675     2.197007  0.037969742  0.092155187 
   39900    -959.7065     36.16334   -923.54317    1295.2397   -3256.3163    2.2024001  0.062094357  0.094223869 
   40000   -959.17012    38.703213    -920.4669    1386.2087    1658.5517    2.2096759  0.058317578  0.085080148 
   40100   -958.14154    36.949176   -921.19237    1323.3855    2433.8675    2.2129106  0.090350036  0.087574258 
   40200   -962.00641    34.425803   -927.58061    1233.0074    3344.0896     2.224067   0.10299564  0.076024855 
   40300   -959.48024    38.057518   -921.42272    1363.0823   -2051.4711    2.2042935  0.032430828  0.096167091 
   40400   -955.50327    34.829952   -920.67331    1247.4826   -791.67247    2.1961284  0.027952562  0.098064387 
   40500   -959.36918    33.338244   -926.03093     1194.055   -3312.2692    2.2051505  0.040333343  0.090528278 
   40600   -960.55651    36.133273   -924.42324    1294.1628    621.39566    2.2129087   0.27098721  0.091314427 
   40700   -955.48899    35.373866   -920.11512    1266.9636    7199.1021    2.2200137  0.072612263   0.10075169 
   40800   -958.45375    36.392536   -922.06122    1303.4487    6010.2548    2.2225485  0.012819366  0.093174297 
   40900   -960.21375    32.569013   -927.64474    1166.5039   -4027.1252      2.20687  0.053258747  0.093023372 
   41000   -956.09456    36.123372   -919.97119    1293.8082   -15930.927    2.1635281  0.057491477  0.093129099 
   41100   -957.55907    36.956168    -920.6029    1323.6359   -8089.2011    2.1852944   0.06694684  0.095734939 
   41200     -959.669    37.997775   -921.67123    1360.9425    7303.3853    2.2300704  0.099403573  0.092376033 
   41300   -959.75432    34.642212   -925.11211    1240.7584    15779.959    2.2489133  0.053787603  0.072535876 
   41400   -962.32186     34.27885   -928.04301    1227.7441    4250.8746    2.2283139   0.10140004  0.079888001 
   41500   -956.12479      35.9641   -920.16069    1288.1036   -7989.5364    2.1837893   0.21024667   0.08508189 
   41600   -955.50851    34.342626   -921.16589    1230.0283   -8979.2085    2.1816789   0.18489675   0.10563439 
   41700   -958.09875    35.938457    -922.1603    1287.1852   -4031.4338    2.1992299  0.056385249  0.085895344 
   41800   -960.30237    33.416149   -926.88622    1196.8453     6045.389    2.2271607   0.05804461  0.086161482 
   41900   -959.34929    32.690136   -926.65915    1170.8421    8162.8308    2.2346629   0.11831681  0.093221165 
   42000   -957.88691    36.016799   -921.87011    1289.9911    3864.7104    2.2156259   0.12666877   0.09348633 
   42100   -959.06899     38.04053   -921.02846    1362.4738   -4389.0421    2.1948406   0.12638915   0.10368419 
   42200   -955.61753    35.553181   -920.06435     1273.386   -8060.4024      2.18345  0.032977636  0.094411331 
   42300   -961.39452    33.258137   -928.13639    1191.1859   -4066.1475    2.2082856   0.14134491  0.076126831 
   42400    -959.9007    34.888614   -925.01209    1249.5836    2016.2817    2.2155667   0.12469607  0.084794626 
   42500   -956.16223    34.731501   -921.43073    1243.9564    6622.8275    2.2226306    0.1429574  0.094495607 
   42600   -957.26952    37.269326   -920.00019    1334.8521    3854.6289    2.2163551  0.040049386  0.089678231 
   42700   -957.31324    31.653811   -925.65943    1133.7247   -1950.7983    2.2040638  0.061808403  0.087715529 
   42800   -959.73653    34.622723   -925.11381    1240.0604   -10776.251     2.186946  0.041856089  0.084768979 
   42900   -956.75282    35.689552   -921.06326    1278.2703   -6092.1851    2.1906486   0.27036682  0.096500715 
   43000   -955.91927    35.439927   -920.47935    1269.3297    7607.0762     2.223566   0.10375515  0.095817548 
   43100   -960.94977    33.972505   -926.97727    1216.7719    16643.066    2.2597287  0.060744237  0.098943075 
   43200   -958.69565    37.103716   -921.59193    1328.9205    6175.0922     2.223376  0.051399455  0.093653591 
   43300   -956.69746    35.990177   -920.70728    1289.0376   -7363.7175    2.1848959  0.081059775   0.10093906 
   43400   -959.97788    37.125206   -922.85267    1329.6903   -11383.635    2.1818066   0.12704775   0.11274116 
   43500   -960.73659    33.745849   -926.99074    1208.6539   -3456.1817    2.2071102  0.092678163  0.094893881 
   43600   -955.70698    35.735293   -919.97168    1279.9086    4484.6475    2.2123752  0.050307035  0.091197905 
   43700   -958.51552    38.229342   -920.28617    1369.2364    5613.9568    2.2195395   0.10344839   0.09172056 
   43800   -955.77917    33.523531   -922.25564    1200.6913    4044.8357    2.2128383  0.094131666  0.095283746 
   43900   -962.67306    39.087892   -923.58517    1399.9865   -4241.3113    2.2020298  0.016783546    0.0960928 
   44000   -953.04826    37.976432   -915.07183    1360.1781   -4418.6374    2.1831102  0.068651168   0.10231316 
   44100   -957.73545     39.54365    -918.1918    1416.3101    38.770597    2.2037724  0.044774251  0.089436837 
   44200   -957.11948    35.959443   -921.16004    1287.9368    5193.8342    2.2178707   0.06889281  0.091949592 
   44300   -957.97912    35.256108   -922.72301    1262.7459    4223.2593    2.2160797   0.22424055  0.093052693 
   44400   -954.88965    39.728158   -915.16149    1422.9185   -3226.6681    2.1891765  0.020082547   0.10617384 
   44500   -956.82186    37.750748   -919.07111    1352.0949   -4605.9096    2.1892668   0.14212639  0.088815129 
   44600   -961.46766     38.96565   -922.50201    1395.6083   -4935.9889    2.1983882   0.21787944   0.09374055 
   44700   -956.64943    35.867202   -920.78222    1284.6331    3097.7566    2.2112991   0.06065591  0.093827932 
   44800   -955.72257    41.757694   -913.96488    1495.6092    5458.0964     2.212181   0.11416227   0.10236881 
   44900   -959.09865    37.740145    -921.3585    1351.7151     5858.872    2.2203406  0.067039671   0.08307896 
   45000   -960.05802    37.998956   -922.05907    1360.9848    -5667.535     2.193711  0.052111699  0.092037358 
   45100   -951.86119    33.956499   -917.90469    1216.1986   -10257.135    2.1685345   0.20894733   0.11166679 
   45200   -955.84887    40.273984   -915.57489    1442.4681   -8661.0997    2.1775068  0.044609048   0.09818472 
   45300   -958.61121    36.268213     -922.343    1298.9958    5620.7513    2.2232124   0.11986483  0.087668099 
   45400   -956.09193    35.331271   -920.76065     1265.438    12549.641    2.2355564  0.052136527  0.090162388 
   45500   -957.95805     38.68954   -919.26851     1385.719    4683.4236    2.2142948    0.1599372   0.10201539 
   45600   -952.49739    41.846617   -910.65078    1498.7941   -5669.7116    2.1775346    0.1924547   0.11469838 
   45700   -956.67006     38.04837   -918.62169    1362.7546   -5393.5282    2.1908569   0.18622503    0.1096532 
   45800   -959.31505    38.511889   -920.80316    1379.3562   -3119.2119    2.2003143  0.080174237   0.09423862 
   45900   -956.79438     34.68699   -922.10739    1242.3622    3268.1757    2.2133324   0.24351041  0.085539567 
   46000   -957.14125    32.724483   -924.41677    1172.0723    3560.2778     2.219052   0.03939894  0.090447022 
   46100   -965.39252    33.990195   -931.40232    1217.4055    1004.6924     2.227486   0.24405358  0.081628519 
   46200   -958.74826     34.63028   -924.11798     1240.331   -2882.2122    2.1990765  0.038096733  0.088466055 
   46300   -959.24796    37.251189   -921.99678    1334.2025    -6410.665    2.1929244  0.022674677  0.089931196 
   46400   -958.13325    37.729683   -920.40357    1351.3404   -1675.0032    2.2023413   0.36478004  0.091515171 
   46500   -959.71551    34.823478   -924.89204    1247.2507    2758.8159    2.2197692  0.056490086  0.087130879 
   46600   -960.02165    34.104736   -925.91691     1221.508    4445.3658    2.2226353   0.02819858  0.081770715 
   46700   -955.92925    34.746446    -921.1828    1244.4917    3164.8027    2.2085895   0.21929858  0.093727296 
   46800   -956.80118    35.797687   -921.00349    1282.1433   -6863.4248    2.1861916  0.076981753   0.08399999 
   46900   -960.01332       32.618   -927.39532    1168.2585   -9653.9022    2.1868533   0.10626542  0.084982132 
   47000   -958.92211     35.28298   -923.63913    1263.7084   -1715.7266    2.2017109  0.038979597  0.081526642 
   47100   -957.98988    38.040256   -919.94963     1362.464    9521.9771     2.228164  0.070132634  0.092242867 
   47200    -960.8331    38.540019   -922.29308    1380.3637    10125.073    2.2352663  0.076049106  0.081136451 
   47300   -960.01317    31.940492   -928.07268    1143.9926    3083.2917    2.2196337  0.063686517  0.092183672 
   47400   -958.26679    38.145425   -920.12136    1366.2308   -10952.978    2.1772806  0.037932951  0.097476513 
   47500   -954.04164    32.937848   -921.10379    1179.7143   -6431.7968     2.184509    0.1175323  0.093161993 
   47600   -957.48896    34.449259    -923.0397    1233.8475     2358.006    2.2099775   0.12872084  0.080042579 
   47700   -962.88878    34.774619   -928.11416    1245.5007    6547.7467    2.2346037  0.073835858  0.079287522 
   47800   -959.88876    34.816387   -925.07238    1246.9967    7806.7255    2.2283286  0.056281124  0.091447612 
   47900    -955.8702    33.875703    -921.9945    1213.3048    2503.9348    2.2075641  0.055919019  0.096165067 
   48000    -957.3062    35.753985   -921.55222    1280.5781   -5249.1934    2.1908611   0.18092125  0.087700134 
   48100   -957.23704    36.852302   -920.38474    1319.9158   -5544.0254    2.1889754  0.039402775  0.088764935 
   48200   -957.61707    34.582877   -923.03419    1238.6332    445.62482    2.2051196   0.28267664  0.091920594 
   48300   -963.24971     36.63297   -926.61674    1312.0601    3276.6149    2.2237707   0.14230435  0.094023674 
   48400   -959.11144    36.592428   -922.51901    1310.6081    4979.7086    2.2213865  0.033512002  0.098248596 
   48500   -958.55583     38.35834   -920.19749    1373.8566    1129.5532    2.2052723   0.12897308  0.085154093 
   48600   -959.62094    37.476121   -922.14482    1342.2588   -7049.1085    2.1931277  0.091145223  0.099367088 
   48700   -960.33506    33.403547   -926.93151    1196.3939   -4303.9913    2.2011444   0.12371093  0.090689688 
   48800    -958.0039    36.613694   -921.39021    1311.3698   -214.81043    2.2068176  0.086978091   0.10711641 
   48900   -958.38311     38.23441    -920.1487    1369.4179    5313.0727    2.2210054  0.080892819  0.092095999 
   49000   -960.41256    33.760882   -926.65168    1209.1924    7645.5524    2.2322149   0.12750159  0.086397878 
   49100   -959.22481    36.437341   -922.78747    1305.0534   -3755.1657    2.1990825   0.16137692  0.098684697 
   49200   -955.19784    34.896098   -920.30174    1249.8517   -17363.384    2.1595127  0.073878022   0.10667574 
   49300   -960.39607    38.122871    -922.2732     1365.423   -15242.587    2.1722846   0.12600489   0.10261745 
   49400   -959.68683    34.391034    -925.2958    1231.7621    5919.9828    2.2264599  0.063719506  0.083833744 
   49500   -957.92861    40.281714    -917.6469    1442.7449    12215.896    2.2349782   0.22092707  0.090545529 
   49600   -958.22728    38.750132   -919.47715    1387.8892    8565.6948    2.2252515   0.06704362  0.090065387 
   49700   -957.92049    35.345603   -922.57489    1265.9513   -2503.2287    2.2027683   0.22141465   0.09746878 
   49800   -957.03294    36.069658   -920.96328    1291.8843   -8440.2166     2.184911  0.060018838   0.10321415 
   49900   -953.17288    37.303888   -915.86899      1336.09   -7684.4395    2.1772557  0.032251413   0.11727176 
   50000   -957.12496    35.115132   -922.00983    1257.6967    1440.8226    2.2067107   0.18384249  0.091557137 
   50100   -961.14116    39.384302   -921.75686    1410.6029    5843.7523    2.2272518  0.055316074  0.086985076 
   50200   -954.99536     39.70795   -915.28741    1422.1948    7159.8297    2.2141186   0.01990472   0.10408807 
   50300   -958.43853    37.912586   -920.52595    1357.8914   -3876.5141    2.2018692   0.08297111  0.092484136 
   50400   -958.80354    35.978445    -922.8251    1288.6174   -9986.5126    2.1878784  0.059474415   0.11153393 
   50500   -955.23642    35.696081   -919.54034    1278.5042   -4327.0593    2.1897737   0.11629476   0.10506833 
   50600   -954.21575    39.331264   -914.88449    1408.7033     891.0257    2.2030996  0.059064487   0.09192056 
   50700   -958.09742    34.874692   -923.22273     1249.085    11105.804    2.2371306   0.03975495  0.092328661 
   50800   -958.39812    36.566356   -921.83177    1309.6743    5829.3179    2.2200424  0.057417736   0.08260447 
   50900   -956.19399    35.836835   -920.35716    1283.5455   -4719.6142    2.1927967   0.31760304  0.098960862 
   51000    -954.8535    38.551151   -916.30235    1380.7624   -7419.3939    2.1820836  0.032445356   0.11899731 
   51100   -950.12003     38.08647   -912.03356    1364.1192   -2698.8868    2.1835331   0.10139788   0.10999268 
   51200   -956.56428    36.721861   -919.84242    1315.2439    2969.3766    2.2115423   0.21811102  0.098403083 
   51300   -960.02479    38.899024   -921.12576     1393.222    3462.3145    2.2181717  0.057070871  0.093473231 
   51400   -960.01111    37.316525   -922.69459    1336.5426     787.3783    2.2125228   0.11187607   0.10106006 
   51500   -956.35756    30.534569   -925.82299    1093.6375     -2200.88     2.204796   0.24641386   0.11518836 
   51600   -962.46636    33.104645   -929.36171    1185.6883   -1646.9565    2.2119255   0.10474047  0.087902832 
   51700   -958.59497    34.937961     -923.657    1251.3511   -146.99459    2.2096034   0.29749284   0.10063737 
   51800   -957.11025    35.803365   -921.30688    1282.3467    2747.0195    2.2115038  0.047099094  0.082253353 
   51900   -956.80745    36.912638   -919.89481    1322.0768    2749.5656    2.2104919   0.11568875  0.096705092 
   52000   -959.24335    32.933478   -926.30987    1179.5578   -107.16056    2.2090231   0.10351735  0.091475346 
   52100   -959.31966    34.255779   -925.06388    1226.9178   -6336.4532      2.19545   0.22974499  0.089197212 
   52200   -959.56738     38.29913   -921.26825    1371.7359   -5141.7852     2.193682  0.087015246  0.090513578 
   52300   -955.66146    35.515666    -920.1458    1272.0423    4741.7251    2.2157154   0.16338421   0.10509656 
   52400   -962.25708    34.994988   -927.26209    1253.3936    13661.333    2.2500057   0.14377946  0.089890412 
   52500   -957.12783    34.932993   -922.19484    1251.1731    7970.9959    2.2252632  0.032611199  0.093071368 
   52600   -958.73941    37.995495   -920.74391    1360.8608   -9151.6867    2.1862413   0.30983192   0.10276585 
   52700   -957.23352     34.64499   -922.58853    1240.8579   -11546.139    2.1737579   0.45663698  0.093706925 
   52800   -960.22216    32.270147   -927.95201    1155.7996   -3348.3026    2.2036422  0.003820853  0.087426234 
   52900   -958.06691    37.247228   -920.81968    1334.0606    3721.0889    2.2150712   0.23856971   0.08665266 
   53000   -957.58828    36.927627   -920.66065    1322.6137    8550.1084     2.224607   0.07668285  0.087042493 
   53100   -958.76844    35.720752   -923.04769    1279.3878     3074.776    2.2168609   0.08420831  0.086983341 
   53200   -960.68047    34.523981   -926.15649    1236.5238   -3583.7285    2.2041992   0.17756041  0.081796732 
   53300    -963.2365    32.023607   -931.21289    1146.9695   -4137.5251     2.210646  0.030810338  0.080723248 
   53400   -959.88006    35.451817   -924.42824    1269.7555   -2401.1314    2.2040292    0.2022069  0.078063284 
   53500   -960.76427    38.661991   -922.10228    1384.7323   -1171.8393    2.2062408   0.19296303  0.088058393 
   53600   -958.07657     38.00499   -920.07158    1361.2009    1591.6037    2.2082941    0.0338016  0.094624669 
   53700   -956.86302    36.856803   -920.00622     1320.077    3221.9294     2.211208   0.10577485  0.093579039 
   53800   -959.64317    32.870346   -926.77282    1177.2966    2750.6734    2.2212073   0.17797466  0.097107092 
   53900   -957.04897     34.43138   -922.61759    1233.2072   -441.11075    2.2044813   0.14281047   0.10184516 
   54000    -954.4312     34.24095   -920.19025    1226.3866   -3309.0814    2.1900788  0.054644312   0.10168447 
   54100   -958.81306    36.826704   -921.98635     1318.999   -5784.4949    2.1904754   0.09746156  0.095272258 
   54200   -960.54812    33.974553   -926.57356    1216.8453    2671.0084    2.2193794  0.092748203  0.090003603 
   54300    -959.3579    39.038896     -920.319    1398.2317    8920.4885    2.2292394  0.082545392  0.090713843 
   54400   -954.11826    33.300285   -920.81797    1192.6954    9212.5831    2.2225633   0.23268893   0.10313483 
   54500   -961.48384     34.52801   -926.95583    1236.6681    -4552.985    2.2032205  0.053026406  0.095241945 
   54600   -956.59917    35.611846   -920.98732    1275.4872   -10940.913    2.1757087   0.13551049  0.093815878 
   54700   -957.05592     36.82844   -920.22748    1319.0612   -4537.7388    2.1912396  0.050507996  0.092780436 
   54800   -960.46484    37.716079   -922.74876    1350.8532      4621.49    2.2183537   0.13501933  0.088919432 
   54900   -960.10404    34.174063   -925.92998     1223.991    7886.0667    2.2323963   0.17370194  0.086148068 
   55000   -955.74952    37.979715    -917.7698    1360.2957    706.38715    2.2009353   0.27126634  0.098080658 
   55100   -954.11332    33.700885   -920.41243    1207.0435   -3541.4652    2.1933567   0.25022063   0.10892032 
   55200   -959.14065    35.980817   -923.15984    1288.7024   -3498.0152    2.1971525  0.067850572  0.089688406 
   55300   -956.63637    34.839386   -921.79698    1247.8204    1355.4981     2.207869  0.060524691   0.09802602 
   55400   -953.84678    37.275903   -916.57088    1335.0876     3176.815    2.2041314  0.087495008   0.10004319 
   55500   -957.53389    35.627277   -921.90661    1276.0399     1216.267    2.2088494  0.022237525   0.10556168 
   55600   -959.67226    37.348327   -922.32394    1337.6816   -475.85559    2.2053505  0.084273253  0.097033815 
   55700   -952.51246     37.49276    -915.0197    1342.8547   -4465.3681    2.1837842   0.10409041  0.099722479 
   55800   -954.70111    33.282123   -921.41898     1192.045    854.64742    2.2026803   0.23225087  0.099041215 
   55900   -957.84702    35.478793   -922.36822    1270.7217     5110.237    2.2171175  0.026500817   0.08179058 
   56000   -955.68371    37.068003    -918.6157    1327.6414    8583.3978    2.2205029  0.068372239  0.098652149 
   56100   -956.73523    39.125011   -917.61022     1401.316    560.86199    2.2007051    0.1793135   0.08337375 
   56200    -957.2712    33.266532   -924.00467    1191.4865   -7037.9906    2.1884819  0.048720361  0.085274023 
   56300   -954.95074    33.314273   -921.63647    1193.1964   -4128.2228    2.1870706  0.015582996  0.097129751 
   56400   -955.76767    37.268091   -918.49958    1334.8079    1126.9904    2.2030681  0.016463074  0.090287471 
   56500    -962.9344    37.123403     -925.811    1329.6257    7097.8996    2.2334447   0.21510608   0.08677309 
   56600   -957.51737    33.911202   -923.60616    1214.5763    6316.0529    2.2199859  0.060643616  0.082842016 
   56700   -955.39808    35.124584    -920.2735    1258.0352   -3035.7239    2.1941965   0.19709362  0.098723167 
   56800   -958.00195    36.343471   -921.65848    1301.6913   -8453.4876    2.1836383   0.17178687  0.097451409 
   56900   -960.15315    33.235909   -926.91724    1190.3897   -2850.8841    2.2056335   0.14363142  0.096935595 
   57000   -959.33313    38.968551   -920.36458    1395.7122    2619.4471    2.2146183   0.19384541  0.096397659 
   57100   -956.14296    35.494072   -920.64889    1271.2689    7388.3488    2.2209376   0.01019721  0.082939195 
   57200   -958.98662    32.324804   -926.66181    1157.7572    5299.2599    2.2206202   0.12622159  0.085063234 
   57300   -954.23055    33.281915   -920.94863    1192.0375   -2489.9043     2.193267   0.15500992  0.090766725 
   57400   -957.68521     37.41527   -920.26994    1340.0793   -7039.8996    2.1872885   0.13214259   0.09372829 
   57500    -958.1419    34.807268   -923.33463    1246.6701   -1140.6183    2.2029311  0.044339606  0.086478986 
   57600   -960.25665    35.644245   -924.61241    1276.6476    7509.9712    2.2272956  0.004932976  0.078873447 
   57700   -955.25421    38.140922   -917.11328    1366.0695    8718.3933    2.2181464   0.12214434  0.083505175 
   57800   -956.52536    35.556505   -920.96885     1273.505   -3492.9594    2.1942485  0.081547039  0.091649383 
   57900   -956.20464    32.542975   -923.66167    1165.5714   -14703.198    2.1680249  0.092205755   0.10369478 
   58000   -955.38604    37.441711   -917.94433    1341.0263   -10104.835     2.172767    0.0956358   0.10759868 
   58100   -958.88031     40.71128   -918.16903    1458.1304     3535.768    2.2138764  0.035346938  0.096036392 
   58200   -957.87062     35.96851   -921.90211    1288.2616    12117.456    2.2338858  0.083816646  0.095948492 
   58300   -961.05092    39.516678   -921.53424    1415.3441    2649.2038    2.2189491   0.14820368  0.089901528 
   58400   -951.06066    36.523721   -914.53694    1308.1472   -2091.1337    2.1854452   0.18223366  0.099490666 
   58500   -955.81449    33.672264   -922.14223    1206.0184   -2314.4303    2.1958816   0.15396634  0.095163126 
   58600   -957.47809    35.201076   -922.27701    1260.7749   -3606.8886    2.1992474  0.097159404  0.099014603 
   58700   -958.15274    39.291016   -918.86172    1407.2617   -249.04218    2.2053201  0.028145977  0.094881196 
   58800   -953.40677    38.897755   -914.50902    1393.1765    3751.2641    2.2052816   0.35754789   0.10183642 
   58900   -956.37969    33.453933   -922.92576    1198.1986    7128.9754    2.2256073  0.048332813  0.086605017 
   59000   -958.39276    36.463437   -921.92933    1305.9881     481.7278    2.2083071   0.16618199  0.096940908 
   59100   -956.40222    35.601912   -920.80031    1275.1314   -5527.1896    2.1889742  0.080814431   0.10972126 
   59200   -953.31514    36.281099   -917.03404    1299.4574    -5992.677    2.1815758   0.15635698   0.10512543 
   59300   -952.05603    37.842491   -914.21353    1355.3808   -289.16727     2.190784  0.054835951   0.10655891 
   59400   -958.47568    38.636845   -919.83883    1383.8317    7715.1165    2.2224439  0.064980025  0.089440562 
   59500    -958.5783    37.398854   -921.17944    1339.4913    11698.144    2.2367478   0.02482297  0.091637748 
   59600   -959.74517    36.207148   -923.53802    1296.8087    2119.8314    2.2173594   0.26557648   0.10063512 
   59700   -952.46584    37.569061   -914.89678    1345.5875   -11576.727    2.1647719  0.051871313   0.10516782 
   59800    -954.6344    36.511272   -918.12313    1307.7014   -11793.814    2.1693373   0.12857885   0.10529037 
   59900   -956.73819     34.98732   -921.75088    1253.1189   -817.70396    2.2067751   0.20504216   0.10258598 
   60000   -961.53298    39.564548   -921.96843    1417.0586    8359.1312    2.2331229   0.13891002  0.086528912 
   60100   -953.74336    39.171539   -914.57182    1402.9825    8707.0186    2.2155577  0.060235177  0.097522547 
   60200   -956.35158    36.735204   -919.61638    1315.7218    763.91395    2.2058248  0.096565697   0.10100143 
   60300   -957.04948    34.313841   -922.73564    1228.9973   -4541.8754     2.195881  0.088233397  0.096749335 
   60400   -957.52111    37.444466   -920.07665     1341.125   -6691.1603    2.1935322   0.12496569  0.093949817 
   60500   -953.52424    38.410189   -915.11405    1375.7137    -1907.223    2.1936794  0.055438491    0.1044604 
   60600   -960.01441    37.321852   -922.69256    1336.7334    3373.3318    2.2194154  0.083365492  0.089022943 
   60700   -959.75095    38.314305   -921.43665    1372.2794    4091.1093    2.2194162  0.097876631  0.099366722 
   60800   -953.31009    36.488416   -916.82167    1306.8827    781.04314    2.1979319  0.097581105   0.10575969 
   60900   -956.05698     35.34652   -920.71046    1265.9842   -6118.0828    2.1834416   0.12997754  0.083632801 
   61000   -954.62729    31.416571   -923.21072    1125.2277   -4642.1671     2.187683   0.13559929  0.096926299 
   61100    -955.6299    35.390983   -920.23892    1267.5767    2752.3547    2.2065621   0.16779839  0.099649524 
   61200   -958.33858    39.398807   -918.93978    1411.1224    8292.8017    2.2242055   0.17757867  0.085601384 
   61300   -960.66148    34.155588    -926.5059    1223.3293     10111.69     2.234615  0.057808521  0.081617606 
   61400   -959.45352    37.245998   -922.20752    1334.0166   -1731.6491    2.2024531   0.23355604  0.085765964 
   61500   -955.81136    35.568107   -920.24325    1273.9206   -5317.5669    2.1874734  0.063100964  0.092778511 
   61600   -959.78289    34.885682   -924.89721    1249.4786   -4365.9952    2.1980277   0.04563963  0.087203938 
   61700   -960.34978    35.193548   -925.15623    1260.5052     657.5012    2.2108948  0.029720712  0.090458543 
   61800   -954.75876    34.870116   -919.88865    1248.9211    5570.8202    2.2098163   0.15497051   0.08980689 
   61900    -959.1016     36.90223   -922.19937     1321.704    1429.1983    2.2096765  0.040029245  0.079544144 
   62000   -960.51915    33.170053    -927.3491     1188.031   -214.73769    2.2118246  0.067397813  0.087619649 
   62100   -957.25259     37.51768   -919.73491    1343.7472   -5788.3557    2.1900032   0.27584688  0.099717941 
   62200   -957.83113    36.996006   -920.83513    1325.0628   -3160.2068    2.1999998  0.073425999  0.098643078 
   62300   -958.10291    34.648967   -923.45394    1241.0004    5250.9488    2.2199327  0.097407518   0.10283339 
   62400    -958.6717    32.614023   -926.05768     1168.116    6783.0166     2.230015  0.085359037  0.087394064 
   62500   -956.00304    38.311174   -917.69186    1372.1673   -1757.8852    2.1943571   0.12772524  0.089217138 
   62600   -957.42932    37.020635   -920.40868    1325.9449   -8676.7231    2.1826744  0.037274712  0.091766808 
   62700   -959.31516    36.346141   -922.96902     1301.787   -8896.7319    2.1884387  0.093329613  0.094600447 
   62800   -959.27659    37.954831   -921.32176    1359.4044      2898.56    2.2154142  0.040624339   0.10003728 
   62900   -957.74283    42.176295   -915.56654    1510.6019    9892.8789     2.226397   0.12206522  0.097553731 
   63000   -956.68566    35.761936   -920.92373    1280.8628     5713.676    2.2169468  0.069010811  0.093679748 
   63100    -957.5686    34.813615   -922.75498    1246.8974    -7692.641    2.1855578   0.25714161  0.088840874 
   63200   -953.24245    36.735267   -916.50718    1315.7241   -12100.499    2.1644254   0.19394455  0.099834854 
   63300   -957.15274    38.349811   -918.80293    1373.5511   -4354.4477    2.1910657  0.019285039    0.1042423 
   63400   -959.23506    37.152219   -922.08284    1330.6578    5683.8778    2.2191677   0.19320673  0.083358038 
   63500   -959.81595    38.954422   -920.86153    1395.2061    4280.0626    2.2178718  0.041385566    0.0908085 
   63600   -953.33047    38.795892   -914.53458    1389.5282    1090.0477    2.1956232  0.048027031   0.10209699 
   63700    -957.1589    36.606989   -920.55191    1311.1296   -1766.2221    2.1968177   0.12653464  0.092453974 
   63800   -955.86002    33.770128   -922.08989    1209.5235   -3735.2503    2.1922693    0.2623679  0.099062426 
   63900   -957.94098     36.95011   -920.99087    1323.4189   -2899.4243    2.1982129  0.082489809  0.087910779 
   64000   -956.47048    41.062859   -915.40762    1470.7227    2437.7027    2.2035833  0.051501824  0.076587195 
   64100   -953.64125    36.531952    -917.1093     1308.442    6402.0325    2.2117241   0.22606682  0.090046742 
   64200   -956.95897    35.597375    -921.3616    1274.9689    37.660529    2.2033658   0.28837563   0.08854664 
   64300    -957.5883    35.624297     -921.964    1275.9331   -3924.8884     2.194384  0.062004047  0.095170869 
   64400   -955.13119    35.665286   -919.46591    1277.4012   -2361.8458    2.1919481   0.15734709    0.0942871 
   64500   -956.50024    41.832219   -914.66802    1498.2784   -2732.0002    2.1939872   0.39147202  0.088807094 
   64600   -960.22717    39.229035   -920.99813    1405.0418    3908.9095    2.2166941  0.077992115  0.082012439 
   64700   -960.07973    38.296346   -921.78339    1371.6362    5429.0195    2.2223687  0.068656037  0.095349738 
   64800   -955.26808    34.714981    -920.5531    1243.3647    1193.3947    2.2048966  0.081329243  0.096463781 
   64900   -951.49812    37.537696   -913.96043    1344.4642   -11294.949      2.16266  0.058919583   0.11298079 
   65000   -956.79962    35.074198   -921.72542    1256.2306   -9764.9705    2.1791758   0.13956316  0.094079139 
   65100    -961.7438    39.819942   -921.92386    1426.2059    1912.3805     2.214839   0.15815036   0.08399373 
   65200   -956.54567     37.60745   -918.93822    1346.9625    12201.326    2.2312444  0.037872961  0.087531161 
   65300   -956.33724    41.759272   -914.57797    1495.6657    4655.9409    2.2091731   0.04308754  0.085735888 
   65400    -955.6792    33.536539   -922.14266    1201.1572   -916.94132    2.1994966  0.012487421  0.094380052 
   65500   -959.31791    37.407631   -921.91028    1339.8057   -8044.8778    2.1901037   0.15529275  0.085470612 
   65600    -953.2897    34.067089   -919.22261    1220.1596   -1468.5176    2.1939694   0.12933203   0.10161277 
   65700   -951.26436    38.621619   -912.64274    1383.2863    2861.7552    2.1937836  0.085820143   0.08971038 
   65800   -957.75436    36.719781   -921.03458    1315.1694    7146.0415    2.2207248   0.14920156  0.081480242 
   65900   -959.87947     38.32848   -921.55099    1372.7872    2769.1967    2.2145775  0.040381032  0.081279894 
   66000   -958.34829    36.768509   -921.57978    1316.9146   -2257.7583    2.1989796  0.052780707   0.10023284 
   66100   -953.34721    39.249356   -914.09786    1405.7696   -3324.7805    2.1843915   0.16555821   0.10820978 
   66200   -952.99613    35.813551   -917.18258    1282.7115    2704.8109    2.2006592  0.074955035   0.10397178 
   66300   -955.66814    34.596563   -921.07158    1239.1234    3273.8125    2.2112254  0.044426353  0.099110917 
   66400    -959.8305    37.450218   -922.38028     1341.331    466.23879    2.2125598    0.1960965  0.092325313 
   66500    -955.6551    36.440709   -919.21439    1305.1741    1581.2775    2.2038182   0.08732311   0.10383319 
   66600   -955.57992    39.253914   -916.32601    1405.9329   -1481.8277    2.1930482  0.040754399  0.096211231 
   66700   -956.91324    35.122929   -921.79031    1257.9759   -2947.3138    2.1975372   0.25493365  0.097106373 
   66800   -957.46053    35.355851   -922.10468    1266.3184   -469.90823    2.2049366   0.13504849   0.10122939 
   66900   -955.46214    40.416604   -915.04553    1447.5762    3637.1775    2.2047904  0.010383618  0.081153956 
   67000    -958.8226     38.99894   -919.82366    1396.8006    6246.4681    2.2223171   0.13105966  0.086682414 
   67100   -959.55027    37.208006   -922.34226    1332.6558    -2188.584    2.2012025  0.019002781  0.085456721 
   67200   -954.94021    34.152937   -920.78727    1223.2343   -15573.453    2.1615075   0.73931534   0.10439695 
   67300   -953.02662    37.681966   -915.34465    1349.6314   -13474.603    2.1597504 0.0018282993   0.10741474 
   67400   -958.37837    34.313416   -924.06495    1228.9821    7188.3312    2.2262432   0.13385343  0.093242283 
   67500   -961.08981    39.190203   -921.89961     1403.651    13257.267    2.2404867  0.011331592   0.08092938 
   67600   -959.73012    40.077722   -919.65239    1435.4386    4873.4196     2.218507  0.081044078  0.091132569 
   67700   -955.82363    36.852053   -918.97158    1319.9069   -8099.6392    2.1805207   0.29670586   0.10077986 
   67800   -960.13696    33.891754   -926.24521    1213.8797   -10944.332    2.1872258  0.028267207  0.088642821 
   67900   -957.97599    35.510785    -922.4652    1271.8675   -2277.2206    2.2017216   0.13995276  0.093238621 
   68000   -957.58593    38.022049   -919.56388    1361.8119    5825.5719    2.2193744  0.030030276  0.083891225 
   68100   -960.04906    35.246071   -924.80299    1262.3864    7532.1259    2.2314228  0.039592624  0.088389486 
   68200   -960.54071    35.407181   -925.13353    1268.1568    952.15907    2.2134985   0.12155926  0.080800264 
   68300   -956.55111    35.964557   -920.58655      1288.12   -5729.3675    2.1909371   0.11405248   0.09344237 
   68400   -958.61494    37.067332    -921.5476    1327.6174   -6810.6284    2.1891058   0.10982043  0.095673282 
   68500   -960.95427    33.056963    -927.8973    1183.9805    554.55428    2.2136147   0.23993932  0.080730326 
   68600   -958.58788    37.626709   -920.96117    1347.6523    3183.0731    2.2149459   0.05918047  0.086453123 
   68700   -956.26253     35.80928   -920.45325    1282.5586    8252.9626    2.2232275  0.078391389  0.089900247 
   68800   -959.08661    34.632023   -924.45458    1240.3935    2077.4086    2.2164332   0.15799751  0.099059497 
   68900   -960.70717    34.655105   -926.05207    1241.2202   -6179.4138    2.1984287  0.027593801  0.092686924 
   69000   -956.49275    37.450566   -919.04218    1341.3435   -10969.782     2.173976  0.093338148   0.10294234 
   69100   -956.37673    34.716026   -921.66071    1243.4022   -5104.4216    2.1933308   0.30502733   0.11008614 
   69200   -960.44758    37.915224   -922.53236    1357.9858    7326.6973    2.2298372   0.15090488  0.084577251 
   69300   -954.75614    38.859725   -915.89641    1391.8144    16593.226    2.2375893  0.057014503  0.093890526 
   69400    -955.9676    37.940453   -918.02715    1358.8894    3841.1851       2.2159  0.060554563    0.0987333 
   69500   -957.62637    34.891924   -922.73444    1249.7022   -9061.3614    2.1836844   0.17188169   0.09757705 
   69600   -956.52446     35.47516    -921.0493    1270.5916   -8569.6128    2.1825495  0.071159089   0.10039395 
   69700   -953.27421    38.433615    -914.8406    1376.5527   -1987.7172    2.1901013   0.27397898  0.099675155 
   69800   -957.69721    34.931336   -922.76587    1251.1138    7082.5152    2.2215211  0.026134509  0.073873819 
   69900   -956.27087    34.187858   -922.08302    1224.4851    5154.6515    2.2142838   0.25835104  0.085916938 
   70000   -957.94322    38.730499   -919.21272     1387.186   -3105.3806    2.1955393   0.13219176   0.09095701 
   70100   -955.20591    37.147012    -918.0589    1330.4712   -7232.8851    2.1813597  0.089041482  0.095311702 
   70200   -959.45893    34.347434    -925.1115    1230.2005   -821.51439    2.2046779  0.036188305  0.087168063 
   70300   -957.51817    35.827913   -921.69025    1283.2259     6030.972    2.2195375   0.15307247   0.09667927 
[...]
  186800    -957.8894    35.116406   -922.77299    1257.7423    1595.2161    2.2095975   0.36133246   0.10290316 
  186900   -953.06355    33.737379   -919.32617    1208.3506   -600.65893    2.1966954   0.19755026  0.093188001 
  187000   -955.32374    38.510622   -916.81312    1379.3108   -6746.8349    2.1844555   0.10150805  0.095397261 
  187100   -958.84745    36.708027   -922.13942    1314.7484   -7153.9434    2.1904507  0.057653651  0.089628595 
  187200     -957.035    35.414207   -921.62079    1268.4085    7578.4471    2.2222519  0.069135191   0.09612077 
  187300   -956.47008    41.930427   -914.53965    1501.7958    16233.521    2.2357298  0.036775558  0.094973873 
  187400   -956.40684     36.55622   -919.85062    1309.3112    7620.8283    2.2214973  0.065444973  0.093859376 
  187500   -959.19904    36.172138    -923.0269    1295.5548   -8812.3585     2.185044   0.29498666  0.092584692 
  187600   -954.63839    35.086924   -919.55147    1256.6864    -10679.38    2.1691075  0.049860942   0.10607662 
  187700    -954.7308    38.995342   -915.73546    1396.6717    -6829.158    2.1805813   0.20846855   0.11023274 
  187800   -960.03214    36.217264   -923.81487     1297.171    9140.5197    2.2285115  0.029053462  0.080381953 
  187900    -959.8134    38.679672   -921.13373    1385.3656    9081.2886     2.230422   0.10199269  0.079183405 
  188000   -957.75256    38.898844   -918.85371    1393.2155     1877.188    2.2065659  0.058363282  0.081695802 
  188100   -959.88134    34.785372   -925.09596    1245.8859   -7810.6566    2.1898707  0.066391569  0.087835206 
  188200   -956.97022    32.867969   -924.10225    1177.2114   -9557.0649    2.1829223   0.12872901   0.10243663 
  188300   -955.76079    35.486682   -920.27411    1271.0042   -1475.1311     2.200171  0.095679743   0.10184467 
  188400    -959.1493    36.895695    -922.2536      1321.47    5931.5278    2.2242902   0.18333501  0.091685308 
  188500   -963.21687    36.552716   -926.66415    1309.1857    7448.5916    2.2365327  0.027587201  0.080415554 
  188600   -957.05228    37.250961   -919.80132    1334.1943    1029.5747     2.205688  0.066087723  0.094754765 
  188700   -959.10582    37.404843   -921.70098    1339.7058   -7940.1386    2.1899876  0.060693433  0.089289495 
  188800   -961.68797    35.118532   -926.56943    1257.8185   -8217.1145     2.197315   0.21690222  0.088960749 
  188900   -959.67193    39.091982   -920.57994     1400.133   -2198.8382    2.2028096  0.095062622  0.098882222 
  189000   -957.98644    38.144451   -919.84198    1366.1959    6480.0596    2.2202683 0.0027820088  0.086936271 
  189100   -961.25823    37.832959   -923.42527    1355.0394    3442.3284    2.2207575   0.12731485  0.082587849 
  189200    -956.1277    35.048859   -921.07884     1255.323    1010.9519    2.2051698   0.03557961  0.081695767 
  189300   -955.26417    37.848833   -917.41533    1355.6079    -5428.546    2.1872225   0.07947923  0.097965226 
  189400   -959.79952    36.978108   -922.82141    1324.4217   -6077.1161    2.1955409   0.12471339  0.097241616 
  189500   -955.57501    33.929094   -921.64592    1215.2171    2434.6732    2.2059348  0.064013036  0.093621368 
  189600   -957.10026    41.663111   -915.43715    1492.2216   -961.99668    2.2013914   0.10498604  0.099599114 
  189700   -960.43041    37.785425   -922.64498    1353.3369     2500.137    2.2154855  0.049526743  0.076041786 
  189800   -958.85491    36.718311    -922.1366    1315.1167   -855.98272    2.2077544  0.075833179  0.090450955 
  189900   -955.44603    38.738105   -916.70793    1387.4584   -2822.4095    2.1940882  0.055792492  0.097009909 
  190000   -958.51198    35.655071   -922.85691    1277.0353   -2624.2355    2.2014954   0.15146528  0.095483657 
  190100   -958.37259    35.202467   -923.17012    1260.8247   -371.94426     2.204122  0.077902302  0.090408567 
  190200   -956.58745    37.119762   -919.46769    1329.4953    233.92085    2.2033574   0.42239838  0.092749263 
  190300   -958.55038    37.959037   -920.59134    1359.5551    567.73246    2.2036238   0.01303136  0.093217911 
  190400   -960.01285     34.50554   -925.50731    1235.8633    2604.3948    2.2147086   0.11430059  0.086090823 
  190500   -958.55326    37.911283   -920.64198    1357.8447    1223.9314    2.2074072   0.19214316  0.094582418 
  190600   -958.61605    38.085377   -920.53068    1364.0801   -826.23841    2.2033307   0.13198411  0.099371043 
  190700   -960.45234    33.149003   -927.30333    1187.2771    -1006.602    2.2102534  0.046219317  0.094737028 
  190800   -957.02218    35.955915   -921.06626    1287.8105   -4427.6926    2.1918115 0.00097667728   0.10043534 
  190900   -956.08534    35.692841    -920.3925    1278.3881    -2941.584    2.1945717   0.22830977  0.094305799 
  191000   -960.41011    34.822859   -925.58725    1247.2285    3441.5577    2.2198797   0.13212447  0.090062924 
  191100   -959.89344    37.229252   -922.66419    1333.4168    7243.1578    2.2265614  0.046176848  0.081408157 
  191200   -957.54282    38.086971   -919.45585    1364.1372    4103.2926    2.2106624   0.11358324   0.10277247 
  191300   -957.04974    33.533811   -923.51593    1201.0595    -3785.594    2.1935361   0.14033968  0.096502369 
  191400    -958.4027    34.812411   -923.59029    1246.8543   -8489.9327    2.1852506   0.10864665   0.10380526 
  191500   -952.30071    34.885136   -917.41557    1249.4591   -2387.4385    2.1875549  0.080080481   0.10465082 
  191600   -955.66515    33.790426   -921.87472    1210.2505    5026.2194    2.2150852    0.2234295  0.097101562 
  191700   -959.55957    36.811482   -922.74809    1318.4538    7838.0858    2.2285925   0.14900776  0.089060858 
  191800   -955.67042     40.45356   -915.21686    1448.8998    2523.4133    2.2042231   0.11615672   0.10316816 
  191900   -958.67231    37.527041   -921.14527    1344.0825   -3578.3299    2.1964327   0.11743896  0.093938959 
  192000   -958.45894     35.52528   -922.93366    1272.3867   -6910.9969    2.1895625   0.01406098  0.085590342 
  192100   -955.64479    38.229548   -917.41525    1369.2438   -4045.2404     2.190439   0.35111698  0.099237375 
  192200   -958.74112    39.521782   -919.21934    1415.5269     2930.493    2.2136378 0.0068840158  0.086476955 
  192300   -957.38947    34.677388   -922.71208    1242.0183    8941.0036    2.2289081  0.064467203   0.08960908 
  192400     -959.422    39.130252   -920.29175    1401.5037    4192.3473    2.2156649   0.16629232  0.085669558 
  192500   -955.21576    36.989936   -918.22582    1324.8454   -6334.0834    2.1842838   0.22760408   0.10467884 
  192600    -957.9042    32.056299    -925.8479    1148.1404   -10500.941    2.1841052  0.084027139  0.091176841 
  192700   -957.22869    34.230766   -922.99793    1226.0219   -4901.4558    2.1954166   0.20235869   0.10326232 
  192800   -955.02509    35.699432   -919.32565    1278.6242     10612.99    2.2272024  0.078938684   0.11193497 
  192900   -962.05494    37.890264   -924.16468    1357.0918    12128.413    2.2457431   0.29236774  0.092922618 
  193000   -960.34878    35.007096   -925.34168    1253.8272    4606.4769    2.2212445   0.10375705  0.084238263 
  193100   -955.59735    35.199962   -920.39739     1260.735    -6921.541    2.1855722  0.084593095  0.098440604 
  193200   -957.26542    35.417471   -921.84795    1268.5254   -9115.7103     2.183634   0.12538095   0.09817945 
  193300   -960.82523    33.406682   -927.41854    1196.5062   -913.48875    2.2124754   0.25906466  0.097324318 
  193400   -957.28113    37.036432    -920.2447    1326.5107    2358.3397    2.2135373   0.13348474  0.099584876 
  193500    -961.4842    40.767835   -920.71636     1460.156    3239.8434    2.2193644  0.039370956  0.094255598 
  193600   -959.15176    35.052129   -924.09963    1255.4402     2937.577    2.2159839   0.22599725  0.088843987 
  193700   -957.92789    35.017701   -922.91019    1254.2071    -817.8343    2.2045575   0.13076802  0.095824035 
  193800   -953.54354    35.533202   -918.01033    1272.6704   -2472.3899    2.1909713   0.12247266   0.11216173 
  193900   -957.35769    35.282747   -922.07494       1263.7   -3698.8622    2.1976508   0.13163689   0.10590488 
  194000   -957.96203    34.886252   -923.07578     1249.499    1131.6907    2.2111498   0.10163239   0.10224614 
  194100   -957.43097    42.125904   -915.30506    1508.7971    2063.1357     2.207677   0.11746019   0.11761145 
  194200   -959.51858    38.924367   -920.59421    1394.1297    6877.0815    2.2228205    0.1190861  0.093529393 
  194300   -959.27306    36.538996   -922.73407    1308.6943    1927.7345    2.2132967  0.046279783  0.092507458 
  194400   -954.92261    37.083572   -917.83904    1328.1991   -6626.6553    2.1816696    0.4325469   0.10227714 
  194500    -953.2769    34.983415   -918.29348    1252.9791   -11615.036     2.169091   0.21121963  0.093744596 
  194600   -958.82341    35.261409     -923.562    1262.9358   -4203.3648    2.1990177   0.04942768   0.10401451 
  194700    -956.5528    36.993841   -919.55896    1324.9852    14513.021    2.2385579  0.035380155  0.086276468 
  194800   -957.05677     40.28677      -916.77     1442.926    14744.577    2.2383055  0.034340131  0.084723255 
  194900   -961.21941    36.479261   -924.74015    1306.5548    2338.3479    2.2179629   0.06444606  0.080945719 
  195000   -960.49657     38.25064   -922.24593    1369.9992   -8498.6409    2.1879699  0.058333821  0.093128616 
  195100   -954.33252     34.86722    -919.4653    1248.8174   -6257.4978    2.1850297   0.12046481   0.10568069 
  195200   -959.23505    33.107223   -926.12783    1185.7807   -918.87901    2.2090599  0.063871355   0.08795254 
  195300   -958.31987    34.595772   -923.72409    1239.0951    3289.6989    2.2154957   0.26507019  0.093812808 
  195400   -956.87503     37.33586   -919.53917    1337.2351    4874.6994    2.2139887   0.28174396  0.091127262 
  195500    -959.4927    35.783528   -923.70917    1281.6362    551.56968    2.2112608   0.32456928   0.10215768 
  195600   -960.61386    34.362982   -926.25088    1230.7574   -3420.0263    2.2042503   0.15655811  0.085011803 
  195700   -956.50364    36.792997   -919.71064    1317.7917   -5873.9759    2.1871092  0.083054499  0.093302364 
  195800   -958.49122    36.339883   -922.15134    1301.5628   -2907.0375    2.2001284  0.040983985  0.094881637 
  195900   -959.20799    33.768491    -925.4395    1209.4649     6498.205    2.2241417  0.012541603  0.097069644 
  196000   -956.15914    38.546855   -917.61228    1380.6086    5183.3885    2.2140991  0.061383628     0.104405 
  196100   -959.17347     38.74341   -920.43006    1387.6485    2228.7897    2.2111982  0.010620682  0.088525216 
  196200   -958.66885    34.858189   -923.81066    1248.4939   -4551.8381    2.1978949  0.031995048  0.092274173 
  196300   -955.59014    37.903574   -917.68657    1357.5686   -8858.8556     2.177583  0.085216221   0.10451592 
  196400   -957.23536     38.58459   -918.65077    1381.9601   -3079.5791    2.1952773   0.03733902   0.10828542 
  196500   -958.48703    36.028399   -922.45863    1290.4066    8812.0473    2.2304807  0.022664939   0.10417815 
  196600    -959.1035    38.302962   -920.80053    1371.8732    13393.888    2.2404106  0.087410497  0.085793761 
  196700    -953.4733    38.402957   -915.07034    1375.4547    2271.9551    2.2017825    0.3208686   0.10316949 
  196800   -958.19849    35.777551   -922.42094    1281.4221   -7329.1081    2.1862743  0.090178062   0.10082549 
  196900   -956.07165    34.046674   -922.02498    1219.4284    -8031.207    2.1831382   0.30537172   0.10410653 
  197000   -955.85795    37.722188   -918.13576     1351.072   -2419.8658    2.1986025  0.034498306   0.11250693 
  197100   -953.90265    33.689251    -920.2134    1206.6268    6241.0166    2.2157996  0.044114033   0.10509851 
  197200   -959.14854    35.098904   -924.04964    1257.1155    4628.6174     2.220608   0.07758146  0.096561776 
  197300   -957.06243    36.144108   -920.91832    1294.5509    2631.4608    2.2090722  0.012829051  0.092652027 
  197400   -958.23894     38.95949   -919.27945    1395.3876    -3145.677    2.1977823    0.1055067   0.09064404 
  197500   -960.66664    33.632416   -927.03423    1204.5912   -412.15273    2.2127295  0.083364296  0.082692885 
  197600   -958.76394    36.094935   -922.66901    1292.7897   -1609.1207    2.2047494   0.12004636   0.10018264 
  197700    -954.7911    34.843512   -919.94759    1247.9682    1503.4112    2.2049922   0.28068857   0.10713534 
  197800   -958.77904    33.908685   -924.87036    1214.4861    1847.9461    2.2152924    0.1404513  0.095544652 
  197900   -960.79582    35.742461   -925.05336    1280.1653    571.04217    2.2144243   0.10848261  0.089235711 
  198000   -956.59008    36.666903   -919.92318    1313.2755   -152.16476    2.2039739  0.018738048   0.10249418 
  198100   -958.36912    35.836186   -922.53294    1283.5222   -2321.5777     2.201377   0.11571541  0.095531753 
  198200   -961.66533    34.483263   -927.18206    1235.0654   -1497.3933    2.2123154  0.048477137  0.087480517 
  198300    -957.5228    37.825025   -919.69778    1354.7552    -702.4288    2.2061778   0.10845594   0.10329293 
  198400   -957.76946    37.301462     -920.468    1336.0031    5950.8873    2.2218798  0.058471499  0.094363569 
  198500   -959.24745    36.028974   -923.21847    1290.4272    4572.8905    2.2225826   0.11711985  0.095800977 
  198600   -956.48857     35.36781   -921.12076    1266.7467   -712.08062    2.2037289  0.070527705   0.09474498 
  198700   -952.01817    35.087377   -916.93079    1256.7026   -5807.5188    2.1786457  0.083736126   0.10046573 
  198800   -956.86208    34.869884    -921.9922    1248.9128   -8005.0541     2.186632   0.18283016  0.091256089 
  198900   -961.77109    39.457369   -922.31372    1413.2198   -421.02181    2.2099643   0.16130364  0.094292147 
  199000   -956.16293    41.043881   -915.11905     1470.043    8162.6136    2.2201889     0.082786   0.10160137 
  199100   -956.29984    36.023899   -920.27594    1290.2454    9724.9229    2.2276908  0.071989772  0.094460418 
  199200   -959.40999    36.488863   -922.92113    1306.8987   -2289.6719    2.2035497   0.14278118  0.095680508 
  199300   -955.41147    36.304362   -919.10711    1300.2906   -7309.5143    2.1796039  0.017737439   0.10768194 
  199400   -952.71187     35.96689   -916.74498    1288.2036   -5552.5853     2.180684  0.059859224   0.10319295 
  199500   -959.29208    35.454844   -923.83724    1269.8639    4132.0048    2.2166487  0.054494675   0.08879981 
  199600   -957.72872    37.197946   -920.53078    1332.2955    8622.2033    2.2233078  0.033995866  0.084657523 
  199700   -954.69829      36.3536   -918.34469    1302.0541    4958.7304    2.2111746  0.086427335  0.085082521 
  199800   -959.80061    33.770181   -926.03043    1209.5254   -424.91861    2.2097881  0.092098064  0.092208534 
  199900   -958.19416    35.730107   -922.46406    1279.7228     -6477.39    2.1945181   0.10183829   0.10164098 
  200000   -958.14276    38.458754     -919.684    1377.4531   -5717.1823    2.1900926  0.069866838   0.10022828 
  200100   -961.39362    35.843655   -925.54997    1283.7897    213.37411    2.2123525  0.010237287  0.075805592 
  200200   -960.64319    36.527626   -924.11556    1308.2871    3554.1656    2.2188676  0.078095139  0.090482671 
  200300   -955.04353    35.396043   -919.64749    1267.7579    5135.9854     2.209806  0.043248338   0.10107661 
  200400   -957.51961    34.330562   -923.18905    1229.5962   -1342.8197    2.2036996   0.10592799   0.10254708 
  200500   -958.15055    31.483185   -926.66736    1127.6135   -1030.5538    2.2062856  0.063838788  0.088983386 
  200600     -956.051    36.677096    -919.3739    1313.6406   -2127.4431    2.1935429  0.078655002   0.08918376 
  200700   -957.60763    35.919655   -921.68797    1286.5118   -203.57455    2.2041419    0.1557049  0.085108175 
  200800   -960.71368    35.455627   -925.25805     1269.892    2528.3408    2.2180717  0.074719431  0.081495449 
  200900   -954.97781     37.35271    -917.6251    1337.8386    2665.4273    2.2049816   0.14115523  0.090076589 
  201000    -955.6747    35.706671   -919.96803    1278.8835    4112.7052    2.2109097   0.02790328  0.085646196 
  201100   -962.30211    38.680932   -923.62118    1385.4107   -2890.7874     2.206312  0.062731501  0.084991926 
  201200   -951.78886    33.340867   -918.44799     1194.149   -4623.6503    2.1818013   0.11298428   0.10118818 
  201300   -954.45027     36.29202   -918.15825    1299.8485   -3876.8306    2.1851314  0.029678178  0.099545584 
  201400    -959.8769    36.968599    -922.9083    1324.0811    655.91653    2.2109879   0.12474801  0.089251807 
  201500   -957.90143    37.048308   -920.85312     1326.936    8644.5739     2.227053 0.0053817639  0.096411754 
  201600   -953.75248    38.729514   -915.02297    1387.1507    6851.1509    2.2109361     0.142225  0.094550223 
  201700    -959.8762    37.344301    -922.5319    1337.5374   -3258.2373    2.2011784   0.02317071  0.088547052 
  201800    -960.2209    38.195128   -922.02577     1368.011   -9419.7214    2.1830191   0.03548039  0.083767012 
  201900   -954.75144    37.481164   -917.27028    1342.4394   -6459.6905    2.1816847   0.14292864   0.10542013 
  202000   -957.78111    33.459987   -924.32112    1198.4154    2682.0254    2.2162476  0.053050773  0.098055937 
  202100   -959.92513    36.689377   -923.23575    1314.0804    7358.4125    2.2259169  0.087242655  0.084834366 
  202200   -955.67522    35.840343   -919.83488    1283.6711    4330.2274    2.2138723  0.099208265  0.096639709 
  202300   -956.94975    35.734473   -921.21527    1279.8792   -3623.4786    2.1958429  0.046314886  0.086888663 
  202400   -960.61706    34.222569   -926.39449    1225.7283    -6452.989    2.1957684    0.2243081  0.095617904 
  202500   -957.68841    36.731856   -920.95656    1315.6019   -2313.1287    2.1987115  0.033675312   0.10833002 
  202600   -959.67478    39.305019   -920.36976    1407.7633    3014.2907    2.2177843   0.11382322   0.10606301 
  202700   -962.48744    35.904163   -926.58328    1285.9569    9025.7244    2.2374186   0.10580476  0.087954041 
  202800   -956.63601      36.2954   -920.34061    1299.9696    2060.9089    2.2055093    0.2121559  0.094474196 
  202900   -955.49699    35.141373   -920.35561    1258.6365   -6717.6721    2.1812038   0.22166604   0.10515151 
  203000   -957.61834    33.293922   -924.32442    1192.4675    -10306.76    2.1800015   0.15707367  0.093387188 
  203100   -959.33051    36.768026   -922.56249    1316.8974   -796.96389    2.2051681  0.055298429  0.090726404 
  203200   -955.53526    38.016351   -917.51891    1361.6078    15595.774    2.2392088   0.11104112  0.099679047 
Loop time of 146.374 on 1 procs for 200000 steps with 217 atoms

Performance: 354.160 ns/day, 0.068 hours/ns, 1366.359 timesteps/s
100.0% CPU use with 1 MPI tasks x no OpenMP threads

MPI task timing breakdown:
Section |  min time  |  avg time  |  max time  |%varavg| %total
---------------------------------------------------------------
Pair    | 143.22     | 143.22     | 143.22     |   0.0 | 97.85
Neigh   | 0.1042     | 0.1042     | 0.1042     |   0.0 |  0.07
Comm    | 0.83951    | 0.83951    | 0.83951    |   0.0 |  0.57
Output  | 0.070633   | 0.070633   | 0.070633   |   0.0 |  0.05
Modify  | 1.8366     | 1.8366     | 1.8366     |   0.0 |  1.25
Other   |            | 0.3019     |            |       |  0.21

Nlocal:    217 ave 217 max 217 min
Histogram: 1 0 0 0 0 0 0 0 0 0
Nghost:    957 ave 957 max 957 min
Histogram: 1 0 0 0 0 0 0 0 0 0
Neighs:    4217 ave 4217 max 4217 min
Histogram: 1 0 0 0 0 0 0 0 0 0
FullNghs:  8434 ave 8434 max 8434 min
Histogram: 1 0 0 0 0 0 0 0 0 0

Total # of neighbors = 8434
Ave neighs/atom = 38.8664
Neighbor list builds = 175
Dangerous builds = 0
Total wall time: 0:02:28
