LAMMPS (3 Mar 2020)

# ---------- 1. Initialize simulation ----------
units metal
atom_style atomic
dimension 3
boundary p p p
read_data /home/modeler/RemLabs/Project/test_equil_nvt_day2/n3_T1600_timestep3.000000e-03_eqsteps3200_time600/20201205-020148/lammps.data
  orthogonal box = (0 0 0) to (17.469 17.469 17.469)
  1 by 1 by 1 MPI processor grid
  reading atoms ...
  217 atoms
  read_data CPU = 0.00111347 secs

pair_style meam/c
pair_coeff * * library.meam Li Si LiSi.meam Li Si
Reading potential file library.meam with DATE: 2012-06-29
Reading potential file LiSi.meam with DATE: 2020-11-07

group Li type 1
1 atoms in group Li
group Si type 2
216 atoms in group Si

velocity all create 1600 3320 dist gaussian

# ---------- 2. Specify equilibration ensemble  ----------
# fix 1 all npt temp 1600 1600 0.15 tchain 2 iso 1.0 1.0 1.0 pchain 2
fix 1 all nvt temp 1600 1600 0.15

# ---------- 3. Run equilibration -------------
timestep 0.003
run 3200
Neighbor list info ...
  update every 1 steps, delay 10 steps, check yes
  max neighbors/atom: 2000, page size: 100000
  master list distance cutoff = 6
  ghost atom cutoff = 6
  binsize = 3, bins = 6 6 6
  2 neighbor lists, perpetual/occasional/extra = 2 0 0
  (1) pair meam/c, perpetual
      attributes: full, newton on
      pair build: full/bin/atomonly
      stencil: full/bin/3d
      bin: standard
  (2) pair meam/c, perpetual, half/full from (1)
      attributes: half, newton on
      pair build: halffull/newton
      stencil: none
      bin: none
Per MPI rank memory allocation (min/avg/max) = 8.895 | 8.895 | 8.895 Mbytes
Step Temp E_pair E_mol TotEng Press 
       0         1600   -951.06911            0    -906.3968   -115301.13 
    3200    1462.8245   -909.16934            0     -868.327   -74519.786 
Loop time of 1.89596 on 1 procs for 3200 steps with 217 atoms

Performance: 437.478 ns/day, 0.055 hours/ns, 1687.801 timesteps/s
100.0% CPU use with 1 MPI tasks x no OpenMP threads

MPI task timing breakdown:
Section |  min time  |  avg time  |  max time  |%varavg| %total
---------------------------------------------------------------
Pair    | 1.7991     | 1.7991     | 1.7991     |   0.0 | 94.89
Neigh   | 0.060009   | 0.060009   | 0.060009   |   0.0 |  3.17
Comm    | 0.016918   | 0.016918   | 0.016918   |   0.0 |  0.89
Output  | 3.5009e-05 | 3.5009e-05 | 3.5009e-05 |   0.0 |  0.00
Modify  | 0.015134   | 0.015134   | 0.015134   |   0.0 |  0.80
Other   |            | 0.004724   |            |       |  0.25

Nlocal:    217 ave 217 max 217 min
Histogram: 1 0 0 0 0 0 0 0 0 0
Nghost:    894 ave 894 max 894 min
Histogram: 1 0 0 0 0 0 0 0 0 0
Neighs:    3605 ave 3605 max 3605 min
Histogram: 1 0 0 0 0 0 0 0 0 0
FullNghs:  7210 ave 7210 max 7210 min
Histogram: 1 0 0 0 0 0 0 0 0 0

Total # of neighbors = 7210
Ave neighs/atom = 33.2258
Neighbor list builds = 104
Dangerous builds = 4

# ---------- 4. Describe computed properties----------
compute msdli Li msd
compute msdsi Si msd
thermo_style custom step pe ke etotal temp press density c_msdli[4] c_msdsi[4]
thermo 100

# ---------- 3. Run production -------------
timestep 0.003
run 200000
Per MPI rank memory allocation (min/avg/max) = 9.645 | 9.645 | 9.645 Mbytes
Step PotEng KinEng TotEng Temp Press Density c_msdli[4] c_msdsi[4] 
    3200   -909.16934    40.842341     -868.327    1462.8245   -74519.786    1.8918427            0            0 
    3300   -906.71157    43.508384   -863.20319    1558.3125   -68264.865    1.8918427   0.12480978   0.18163571 
    3400     -905.518    44.734746   -860.78326    1602.2364   -69072.655    1.8918427   0.20396978   0.16526263 
    3500   -908.75889    41.081011   -867.67788    1471.3728   -73917.667    1.8918427  0.057465795   0.16436032 
    3600   -910.07576    45.815423   -864.26034    1640.9423   -73044.549    1.8918427  0.085349488     0.163888 
    3700   -909.80529     46.54799    -863.2573    1667.1802   -74103.769    1.8918427  0.081582618    0.1559015 
    3800   -908.69976    45.476923   -863.22284    1628.8185   -72114.891    1.8918427  0.011721224   0.15651958 
    3900   -910.64939    45.458647   -865.19074    1628.1639   -73662.357    1.8918427  0.076840885    0.1513289 
    4000   -909.59866    46.282568   -863.31609    1657.6737   -73525.992    1.8918427  0.040450005   0.15073335 
    4100   -904.01516    45.442189   -858.57298    1627.5744   -68510.452    1.8918427 0.0036048963   0.16119652 
    4200    -910.1773    42.496094    -867.6812     1522.056   -74394.601    1.8918427  0.043681355   0.15453162 
    4300   -908.22079    46.380577   -861.84021    1661.1841   -71764.143    1.8918427 0.0083827297   0.21422842 
    4400   -909.67087    46.260477    -863.4104    1656.8825   -74914.555    1.8918427   0.35549736   0.19447914 
    4500   -911.17911    43.407842   -867.77127    1554.7115   -75988.722    1.8918427   0.29859431   0.17011499 
    4600   -909.25627    48.283437   -860.97284    1729.3376   -71157.065    1.8918427  0.043832929   0.14656946 
    4700   -909.68687    42.614482   -867.07238    1526.2962   -73542.295    1.8918427  0.053136521   0.18410526 
    4800   -911.94798    43.274071   -868.67391    1549.9203   -74688.616    1.8918427  0.024445075   0.16210876 
    4900    -908.2513    45.375327   -862.87597    1625.1796   -70422.012    1.8918427   0.25846237   0.14404291 
    5000   -911.03191    47.415447   -863.61646    1698.2494   -71924.642    1.8918427  0.050108626   0.15492253 
    5100   -910.44617    40.838665    -869.6075    1462.6929   -73441.313    1.8918427  0.075473267   0.16058845 
    5200   -906.80562    45.036008   -861.76961    1613.0265   -69683.016    1.8918427   0.12818625    0.1778369 
    5300   -906.67517    42.637348   -864.03782    1527.1152   -69538.198    1.8918427   0.11627261   0.15710572 
    5400    -912.5189    40.334561   -872.18434    1444.6377   -77375.579    1.8918427   0.15284556   0.13751108 
    5500   -907.05813    44.985647   -862.07249    1611.2227   -71276.453    1.8918427   0.16822947   0.14332609 
    5600   -905.45841    42.304426   -863.15398    1515.1911   -68647.289    1.8918427  0.024685119   0.17168806 
    5700   -907.71429    39.461905   -868.25239    1413.3823   -71793.659    1.8918427   0.35727433   0.19232757 
    5800   -906.82696     46.33128   -860.49568    1659.4184    -71938.66    1.8918427  0.014004415   0.18478011 
    5900   -906.90522    44.117961   -862.78726    1580.1454   -71706.228    1.8918427  0.022885295   0.17037025 
    6000   -909.69605    42.549602   -867.14645    1523.9724   -74218.209    1.8918427   0.24608324   0.18105283 
    6100    -906.2611    42.612592   -863.64851    1526.2285   -69671.567    1.8918427   0.20242915   0.17721688 
    6200   -904.06273    44.327383   -859.73534    1587.6461   -67938.174    1.8918427    0.1136611   0.16177623 
    6300    -910.6679    41.914608    -868.7533    1501.2293   -75024.723    1.8918427   0.16870125    0.1539664 
    6400   -909.17215    46.666399   -862.50575    1671.4212   -72911.099    1.8918427   0.12145754   0.15997037 
    6500   -909.28542    46.696656   -862.58876    1672.5049   -72113.494    1.8918427    0.2617587   0.17920604 
    6600   -908.94689    44.013729   -864.93316    1576.4121   -71824.673    1.8918427  0.089931163    0.1560464 
    6700   -910.08942    43.675536   -866.41389    1564.2993   -75423.117    1.8918427   0.16948064     0.156185 
    6800   -907.50529    46.941017   -860.56427     1681.257   -70638.316    1.8918427   0.31280468   0.18005356 
    6900    -912.4924    48.541833   -863.95057    1738.5924   -74934.592    1.8918427   0.18050261   0.15935423 
    7000   -910.48103    43.395667   -867.08537    1554.2754   -74289.495    1.8918427   0.26049586   0.15430618 
    7100   -905.65344    43.274599   -862.37884    1549.9392   -69227.284    1.8918427   0.14223534   0.17690643 
    7200   -906.19115    42.901879   -863.28927    1536.5897   -68933.596    1.8918427   0.23033201   0.15348886 
    7300   -905.49345    40.322787   -865.17066     1444.216   -70698.116    1.8918427  0.039523257   0.16223605 
    7400   -910.45121    41.218139   -869.23308    1476.2843   -75177.725    1.8918427  0.051154319   0.15037413 
    7500   -907.77358    46.811759   -860.96182    1676.6274   -71652.545    1.8918427  0.037835138    0.1718176 
    7600   -906.69645    42.474724   -864.22173    1521.2906   -73121.976    1.8918427   0.31427718   0.14242044 
    7700   -911.54607    41.530309   -870.01576     1487.465   -75969.819    1.8918427  0.023386374   0.16207327 
    7800   -909.02335    45.045659   -863.97769    1613.3722   -72696.691    1.8918427   0.71326159   0.16669423 
    7900   -905.56309    45.708041   -859.85505    1637.0963    -70193.16    1.8918427   0.27063203    0.2082324 
    8000   -911.31169    42.503322   -868.80836    1522.3148   -75314.576    1.8918427    1.4415511   0.18229233 
    8100   -908.17908    44.890247   -863.28883    1607.8058   -73286.736    1.8918427   0.42209003   0.19778375 
    8200   -908.17542    45.802722    -862.3727    1640.4874   -73525.758    1.8918427   0.05263445   0.15583321 
    8300   -906.36416    40.661822   -865.70234     1456.359   -72369.299    1.8918427   0.30412961   0.17491465 
    8400   -911.56859     41.66831   -869.90028    1492.4077    -75180.06    1.8918427  0.063579438   0.15739669 
    8500   -907.24173    44.556494   -862.68523     1595.852   -71908.637    1.8918427   0.15530663   0.16329832 
    8600   -907.20219    43.994428   -863.20776    1575.7209   -72497.186    1.8918427  0.057819659   0.16443112 
    8700   -912.94533    42.929637   -870.01569    1537.5839   -75832.687    1.8918427   0.21802032   0.18373785 
    8800   -906.89952    45.365121    -861.5344    1624.8141   -71184.601    1.8918427   0.11782794   0.17810535 
    8900   -907.62181    43.570398   -864.05142    1560.5336   -72148.504    1.8918427   0.32909277   0.16977833 
    9000   -911.77607    41.620391   -870.15568    1490.6915   -75524.924    1.8918427   0.64939721   0.14493467 
    9100    -908.0733    46.503507    -861.5698     1665.587   -73150.335    1.8918427   0.47901961   0.17731532 
    9200   -907.69746    46.445311   -861.25215    1663.5026   -73194.848    1.8918427   0.92344474    0.1896725 
    9300   -909.85927    41.577061    -868.2822    1489.1396   -75409.917    1.8918427    3.8727803   0.19089044 
    9400   -905.99379     48.26966   -857.72413    1728.8442   -69742.048    1.8918427    11.804352   0.19124305 
    9500   -909.24495    45.558499   -863.68645    1631.7402   -73755.711    1.8918427    14.648072   0.19954149 
    9600   -908.04749     43.53431   -864.51318    1559.2411   -73270.427    1.8918427    15.919807    0.2026005 
    9700   -905.71567     49.48278   -856.23289    1772.2937    -72999.21    1.8918427    14.195708   0.19658154 
    9800   -909.78659    46.783985    -863.0026    1675.6327   -75650.005    1.8918427    13.597908   0.18507211 
    9900   -904.57443    42.215103   -862.35932    1511.9919   -73878.569    1.8918427    11.323978   0.21361418 
   10000   -900.69978    48.381684   -852.31809    1732.8565   -67426.284    1.8918427    15.418104   0.24276844 
   10100   -905.80807    45.458682   -860.34939    1628.1651   -70533.808    1.8918427    19.594651   0.21095211 
   10200   -906.77694    43.201986   -863.57495    1547.3385   -74538.804    1.8918427     15.22772   0.21989859 
   10300   -904.57072    48.760835   -855.80989    1746.4363   -71127.906    1.8918427    20.814834   0.22551719 
   10400   -902.94282    41.907652   -861.03516    1500.9801   -71025.403    1.8918427    23.838195   0.22475169 
   10500   -908.86967    46.561356   -862.30831    1667.6589   -72594.525    1.8918427    14.929472   0.22331094 
   10600   -903.25943    46.189296   -857.07013    1654.3331   -69281.862    1.8918427    15.132814   0.21173541 
   10700   -898.87548    45.343971   -853.53151    1624.0566   -68534.301    1.8918427    16.016036   0.23027331 
   10800   -905.80541    43.589405   -862.21601    1561.2144   -72720.424    1.8918427    19.326667   0.21583705 
   10900   -903.36201    42.811698   -860.55031    1533.3598   -71941.267    1.8918427    20.070728   0.22091826 
   11000   -905.19818    50.224582    -854.9736    1798.8624   -69667.193    1.8918427    19.766939   0.21878224 
   11100   -907.50834    42.712815   -864.79553    1529.8181       -72713    1.8918427    10.597551   0.20603393 
   11200   -904.53498    43.209199   -861.32578    1547.5968   -70964.977    1.8918427    10.743261   0.18958803 
   11300   -906.33167    49.903231   -856.42843    1787.3528    -69150.02    1.8918427     9.874133    0.2308681 
   11400   -909.11348    42.971068   -866.14241    1539.0678   -73909.377    1.8918427    14.387948    0.2030706 
   11500     -904.686    44.827598    -859.8584     1605.562   -67124.287    1.8918427    18.449388   0.20034762 
   11600   -906.83503     44.60592   -862.22911    1597.6223    -72220.76    1.8918427    17.789396   0.18381348 
   11700   -905.53506    39.863223   -865.67184    1427.7561   -69963.058    1.8918427    7.9319802   0.20037367 
   11800   -903.97929    44.387829   -859.59146     1589.811   -68037.307    1.8918427    11.714132   0.22186241 
   11900   -912.51022    44.521624    -867.9886    1594.6031   -75948.542    1.8918427     12.77086   0.18065957 
   12000   -910.15153    44.425299   -865.72623    1591.1531   -75424.124    1.8918427    12.265545   0.18463774 
   12100   -906.41152    46.173344   -860.23818    1653.7617   -71685.659    1.8918427    11.528931   0.21592595 
   12200   -906.89635    41.958132   -864.93821    1502.7881   -73936.821    1.8918427    15.506098   0.19380774 
   12300   -909.74708    44.292793   -865.45429    1586.4072   -74451.385    1.8918427    11.693609   0.17974001 
   12400   -905.73111     45.37027   -860.36084    1624.9985   -72628.492    1.8918427    12.857542    0.2012836 
   12500   -906.86209    43.260821   -863.60127    1549.4457   -72829.765    1.8918427    13.545103   0.19355843 
   12600   -910.53968    39.147918   -871.39176    1402.1365   -75338.274    1.8918427    5.9117582   0.19667602 
   12700   -909.15925    45.426823   -863.73243    1627.0241   -73135.775    1.8918427    5.3968457   0.19686529 
   12800   -906.76933    45.512795   -861.25653    1630.1033   -72738.268    1.8918427    6.0837351   0.21736666 
   12900    -907.4337    42.006081   -865.42762    1504.5055   -71444.099    1.8918427    5.3077393    0.1866232 
   13000   -909.71204    43.873601   -865.83844    1571.3933   -76075.592    1.8918427    6.1284781   0.16930388 
   13100   -903.49891     44.21846   -859.28045    1583.7449   -68640.688    1.8918427    5.6673457   0.18484371 
   13200    -908.4736    44.009024   -864.46457    1576.2436   -72821.822    1.8918427    6.2438034    0.1893193 
   13300   -910.28289    40.424017   -869.85887    1447.8417   -75790.485    1.8918427    5.4790139    0.1858162 
   13400   -907.05017    43.755815   -863.29435    1567.1746   -69868.253    1.8918427    4.8443381    0.1708459 
   13500   -908.39427    47.007482   -861.38679    1683.6375   -72350.382    1.8918427    5.0007727   0.17527224 
   13600   -912.34386    42.683057    -869.6608    1528.7523   -76993.872    1.8918427    5.2392368   0.15763779 
   13700   -907.26093    44.831709   -862.42922    1605.7092   -72709.413    1.8918427    6.7496563   0.20170294 
   13800    -909.6971    46.700199    -862.9969    1672.6318   -73035.586    1.8918427    6.2230716   0.16900355 
   13900   -908.31958    41.864858   -866.45472    1499.4474   -73156.048    1.8918427    6.1505019   0.18333971 
   14000   -906.49582    45.046105   -861.44971    1613.3881   -72313.915    1.8918427    5.9602479   0.19243148 
   14100   -903.60598    42.771624   -860.83436    1531.9244   -68072.461    1.8918427    8.7620124    0.2067858 
   14200    -906.9478    40.009943   -866.93785     1433.011    -71974.75    1.8918427    7.2348443   0.18277418 
   14300   -908.24869    46.745148   -861.50354    1674.2417   -72425.971    1.8918427    5.0019008   0.17775493 
   14400   -905.36115    46.086509   -859.27464    1650.6516   -70786.866    1.8918427    5.4821654   0.17721965 
   14500   -914.15046    46.609037   -867.54142    1669.3667   -76722.438    1.8918427    5.2079372   0.16345405 
   14600   -908.94639    47.964605   -860.98179    1717.9182   -72565.491    1.8918427    5.5980318   0.18731168 
   14700   -906.72038    45.559882    -861.1605    1631.7898   -72658.417    1.8918427    6.0200754   0.21602674 
   14800    -909.7898    46.226403    -863.5634    1655.6621    -74368.49    1.8918427    8.0456767   0.18680092 
   14900   -910.84308    47.165245   -863.67783     1689.288   -74870.033    1.8918427    6.3997555   0.18765554 
   15000   -908.55922    50.744706   -857.81451    1817.4913   -73315.042    1.8918427    5.7931058   0.18174689 
   15100   -909.57391    43.931438   -865.64247    1573.4648     -74292.9    1.8918427    5.0838152   0.18574695 
   15200   -907.38124    43.619902   -863.76134    1562.3067   -72812.396    1.8918427    8.4851165   0.18100475 
   15300   -908.90402    47.650779   -861.25324    1706.6781   -72366.426    1.8918427    16.475261   0.19871818 
   15400   -908.43292    44.235097   -864.19783    1584.3408   -72336.165    1.8918427    12.271678   0.19824566 
   15500   -912.92336     42.15554   -870.76782    1509.8586   -77609.443    1.8918427    13.441683   0.20189486 
   15600   -909.46649    47.695324   -861.77116    1708.2735    -70967.65    1.8918427    16.159203   0.19202436 
   15700   -909.30025     47.10973   -862.19052    1687.2997   -72911.085    1.8918427    13.368228   0.19583404 
   15800   -911.45316    42.549623   -868.90353    1523.9732   -75565.551    1.8918427     14.35039   0.19600381 
   15900   -906.22206    47.409504   -858.81256    1698.0365   -69478.353    1.8918427    15.016977   0.20711277 
   16000   -908.79651    44.141345   -864.65517    1580.9829   -74314.386    1.8918427     11.87231   0.20210368 
   16100   -908.69007     43.42707     -865.263    1555.4002    -72431.34    1.8918427     15.11331   0.18004939 
   16200   -904.16955    46.467568   -857.70199    1664.2998   -65573.736    1.8918427    17.025631   0.17867013 
   16300   -910.95937    45.655207   -865.30416     1635.204   -73001.864    1.8918427    12.615791   0.19649768 
   16400   -908.41998    46.702161   -861.71782     1672.702   -72946.466    1.8918427    9.9222898   0.20199722 
   16500   -901.67537    44.830815   -856.84456    1605.6772   -65465.058    1.8918427    15.949726   0.21522494 
   16600   -907.18911    43.870373   -863.31874    1571.2777   -72003.908    1.8918427    12.971213   0.20219361 
   16700   -908.59131    43.701529   -864.88978    1565.2303   -72936.791    1.8918427    17.371972   0.21018541 
   16800    -906.2998    49.638207   -856.66159    1777.8606   -69686.727    1.8918427    17.722528   0.19821942 
   16900   -907.41324    42.244349   -865.16889    1513.0394    -71322.64    1.8918427    17.502737   0.18651089 
   17000   -904.84952    41.436014    -863.4135    1484.0877   -68403.309    1.8918427    16.500819   0.19300585 
   17100   -901.22729     47.01393   -854.21336    1683.8685   -67683.285    1.8918427    17.892334   0.22037085 
   17200   -906.40559     43.11051   -863.29508    1544.0621   -72336.961    1.8918427    24.596906   0.20768513 
   17300   -906.14448    43.169074    -862.9754    1546.1597   -73204.843    1.8918427    25.706253   0.21505716 
   17400   -905.57887    45.216858   -860.36202    1619.5039   -69640.009    1.8918427    21.686371   0.17646615 
   17500   -910.68802    44.349938   -866.33808    1588.4539   -75969.603    1.8918427    22.955961   0.16406523 
   17600   -908.35528    43.732317   -864.62297     1566.333   -72536.437    1.8918427    20.736821   0.16529235 
   17700   -905.55166    45.932544   -859.61912    1645.1372    -70309.03    1.8918427    21.031842   0.19201996 
   17800    -910.0506     44.15315   -865.89745    1581.4057   -73669.215    1.8918427    25.750116    0.1837182 
   17900   -906.79499     46.88579    -859.9092     1679.279   -71326.252    1.8918427    22.554665   0.18915391 
   18000   -906.70617    47.198027   -859.50814    1690.4622     -71990.7    1.8918427    27.789491   0.17557426 
   18100   -911.24819    46.008341   -865.23985    1647.8519   -75244.723    1.8918427    21.412625   0.17453458 
   18200   -904.79588    45.590822   -859.20506    1632.8979   -67626.307    1.8918427    20.259835   0.17434132 
   18300   -909.40308    49.870405   -859.53268    1786.1771   -73673.648    1.8918427    21.209631   0.17545141 
   18400   -903.56744    39.558229   -864.00921    1416.8323    -69066.63    1.8918427    20.007431   0.17466379 
   18500   -911.18297    46.434651   -864.74832    1663.1208   -76062.306    1.8918427    21.097728    0.2000797 
   18600   -904.15313    44.390027    -859.7631    1589.8898   -69426.855    1.8918427      22.4059   0.21495207 
   18700   -908.34977    43.064341   -865.28543    1542.4085   -73402.657    1.8918427    22.294485    0.1828553 
   18800   -909.48786    43.593343   -865.89451    1561.3555   -73187.885    1.8918427    24.698136   0.17070771 
   18900   -908.08604    45.776185   -862.30986     1639.537   -72098.929    1.8918427    18.522993   0.16606724 
   19000   -905.99344    42.470372   -863.52307    1521.1347   -68573.591    1.8918427    18.532274    0.1928639 
   19100   -912.09759    47.159038   -864.93855    1689.0657   -76797.719    1.8918427    14.279446   0.17989049 
   19200   -903.53481    44.168412    -859.3664    1581.9524   -67313.961    1.8918427      10.9308   0.18956567 
   19300   -904.60986    42.336072   -862.27379    1516.3246   -70132.369    1.8918427    10.547913   0.22101967 
   19400   -909.17784    42.800823   -866.37702    1532.9703    -74140.78    1.8918427    12.904262   0.22309208 
   19500   -904.95151    44.433934   -860.51758    1591.4624   -67788.083    1.8918427    17.850598   0.22304348 
   19600   -907.94725    45.634505   -862.31275    1634.4625   -69687.595    1.8918427    21.824778   0.18322804 
   19700   -907.92932    43.631615   -864.29771    1562.7262   -71855.678    1.8918427    23.332086   0.18217484 
   19800   -908.83399    39.746875   -869.08712    1423.5889   -72635.102    1.8918427    31.871439   0.19680528 
   19900    -906.8196    45.945798    -860.8738    1645.6119   -70009.768    1.8918427    21.429863   0.19559423 
   20000   -907.61744    45.040813   -862.57663    1613.1986   -73318.676    1.8918427    20.361594   0.19206411 
   20100   -910.18096     39.68822   -870.49274    1421.4881   -75288.943    1.8918427    23.366007   0.18137286 
   20200   -907.27442    43.676994   -863.59743    1564.3515   -72098.864    1.8918427    26.300577   0.19585209 
   20300   -907.33887    45.992551   -861.34632    1647.2864   -72601.441    1.8918427    25.167206   0.20545615 
   20400   -909.72187    46.380029   -863.34184    1661.1645   -74638.642    1.8918427    20.848402   0.21538219 
   20500   -908.43816    39.999751   -868.43841     1432.646   -75905.346    1.8918427    19.386583   0.19987611 
   20600   -905.83422    46.792801   -859.04142    1675.9485   -69421.963    1.8918427    22.953103   0.18505349 
   20700   -909.55523    44.323862   -865.23137      1587.52   -75929.436    1.8918427    19.991266   0.19284354 
   20800    -911.9253    47.738039   -864.18726    1709.8034   -74715.562    1.8918427    18.306244   0.16074523 
   20900   -908.95555     50.62375    -858.3318    1813.1591   -70325.869    1.8918427    19.918898   0.17606365 
   21000   -909.52147    43.508586   -866.01288    1558.3198   -74389.668    1.8918427    22.878649   0.17868009 
   21100   -903.63133    42.709138   -860.92219    1529.6864   -70257.448    1.8918427    24.478524    0.1846514 
   21200   -906.93496    47.869857    -859.0651    1714.5247   -69810.339    1.8918427    21.839165   0.16519714 
   21300   -907.28472    43.450232   -863.83449    1556.2297   -71624.805    1.8918427    19.918809   0.18584611 
   21400   -908.03006    42.917546   -865.11251    1537.1509   -72987.391    1.8918427    21.490303   0.19624985 
   21500   -907.90554    48.047246   -859.85829    1720.8781   -70323.752    1.8918427    23.218693   0.17736121 
   21600   -911.28953    46.819017   -864.47051    1676.8874   -74596.184    1.8918427    22.206656   0.14389285 
   21700   -907.67865     40.86336   -866.81529    1463.5774   -72478.882    1.8918427    26.049523   0.15915374 
   21800     -908.874    45.919479   -862.95452    1644.6692   -72029.637    1.8918427    22.301016   0.17203042 
   21900   -909.21129    45.906135   -863.30516    1644.1913   -74835.679    1.8918427     26.08074   0.18987481 
   22000   -912.18353    42.921368   -869.26216    1537.2877   -77330.102    1.8918427    23.699074   0.17820449 
   22100   -907.48898    44.690083    -862.7989    1600.6367   -70893.869    1.8918427    22.066736   0.19147054 
   22200    -906.4019    44.459785   -861.94211    1592.3883   -69453.053    1.8918427    18.243893    0.1816414 
   22300   -910.58667    40.093699   -870.49297    1436.0109   -77404.941    1.8918427     23.82407   0.18275181 
   22400   -910.76797    46.973153   -863.79482     1682.408   -74881.592    1.8918427     22.81259   0.20167206 
   22500   -908.40594    47.228531   -861.17741    1691.5547   -71431.318    1.8918427    30.173043   0.18291301 
   22600   -910.50074    43.312757   -867.18799    1551.3059   -75537.225    1.8918427    24.072947   0.19708925 
   22700   -906.31159    46.374438   -859.93715    1660.9642   -73061.668    1.8918427    23.617067   0.18942516 
   22800   -904.45545    42.767507   -861.68794     1531.777    -69455.56    1.8918427    29.275459   0.20457106 
   22900   -913.17596    48.111938   -865.06402    1723.1951     -76582.6    1.8918427    27.061261   0.19025893 
   23000   -904.52156    41.227315   -863.29425    1476.6129    -71576.86    1.8918427    22.401425   0.19500204 
   23100   -909.03751    49.064977   -859.97253    1757.3295   -72396.621    1.8918427     21.04637   0.17318785 
   23200   -903.56978    42.075669   -861.49411    1506.9979   -68755.644    1.8918427    38.544557   0.21169759 
   23300   -906.34096    39.812139   -866.52883    1425.9264   -70546.894    1.8918427    50.550584   0.20055845 
   23400   -904.03739    46.277317   -857.76007    1657.4857   -69296.054    1.8918427    58.842776   0.19669043 
   23500   -910.01113    47.507341   -862.50379    1701.5407   -72386.396    1.8918427    55.210231   0.16136865 
   23600   -910.80587    44.765851   -866.04001    1603.3504   -75575.832    1.8918427    58.270147   0.16937819 
   23700   -905.82441    48.888052   -856.93635    1750.9927   -69900.058    1.8918427    56.022032   0.17160726 
   23800   -910.43154    46.364789   -864.06675    1660.6186    -74522.64    1.8918427    53.861664   0.17790566 
   23900    -907.8682    43.272311   -864.59588    1549.8572   -72610.333    1.8918427    56.215712   0.17837816 
   24000   -905.00673     50.36419   -854.64254    1803.8626   -68492.116    1.8918427    56.480571   0.17833858 
   24100   -904.17592    44.949704   -859.22622    1609.9354   -68398.786    1.8918427    56.774243    0.1970575 
   24200   -908.32965    43.506361   -864.82328    1558.2401   -73322.113    1.8918427     60.77427   0.18227264 
   24300   -905.28472    41.964898   -863.31982    1503.0305     -70643.3    1.8918427     56.58439   0.18710744 
   24400   -906.38681    48.016386   -858.37042    1719.7728       -69834    1.8918427    56.250827   0.17791188 
   24500   -909.74441     44.62918   -865.11523    1598.4554   -76467.729    1.8918427    56.041507   0.19697646 
   24600   -908.90174    46.047453   -862.85429    1649.2528    -74969.93    1.8918427    58.828113    0.1975894 
   24700   -906.63324    52.296667   -854.33658    1873.0769   -71529.538    1.8918427    59.785773   0.18349581 
   24800   -910.73483    47.643918   -863.09091    1706.4324   -76181.697    1.8918427    52.357559   0.16086621 
   24900   -913.55524    48.808448   -864.74679    1748.1416   -76397.238    1.8918427    51.476217   0.15635848 
   25000   -905.31543    47.204119   -858.11131    1690.6804   -71914.784    1.8918427    57.335243   0.19931501 
   25100   -907.16431    42.650007    -864.5143    1527.5686   -72042.562    1.8918427    56.551959   0.18234747 
   25200    -910.0361    45.085321   -864.95078    1614.7927   -73961.562    1.8918427    56.718885   0.16972086 
   25300   -905.05626    46.852272   -858.20398    1678.0785    -68846.13    1.8918427    51.214034   0.17834801 
   25400    -909.9229    42.165437   -867.75746     1510.213   -76340.917    1.8918427     54.01928   0.18648932 
   25500   -906.29801    43.164019   -863.13399    1545.9786   -72675.594    1.8918427    58.459926   0.18040001 
   25600   -905.67036    44.746652   -860.92371    1602.6628   -70418.236    1.8918427    52.741395    0.1819227 
   25700   -914.46493    43.228343   -871.23659    1548.2825   -79273.068    1.8918427    55.646881   0.15178468 
   25800   -910.25951    44.952362   -865.30715    1610.0306   -74644.701    1.8918427    60.051142   0.18196344 
   25900   -906.34294    45.634683   -860.70825    1634.4688   -71867.127    1.8918427    59.005484   0.19210701 
   26000   -912.32189    42.878796   -869.44309     1535.763   -75587.128    1.8918427    56.667669   0.18294674 
   26100    -909.4264     43.97212   -865.45428    1574.9219   -75409.179    1.8918427    58.132288   0.21021912 
   26200   -902.62886    40.933187   -861.69568    1466.0783   -67429.127    1.8918427    59.010647   0.21842211 
   26300   -903.54638    40.831866   -862.71451    1462.4494   -70433.065    1.8918427     66.47133   0.23171862 
   26400   -913.67708    45.704142   -867.97294    1636.9566   -77165.404    1.8918427    70.549125   0.19207125 
   26500   -905.12815    45.622119   -859.50603    1634.0188    -71757.27    1.8918427    60.568118   0.20033964 
   26600   -907.44373     45.40858   -862.03515    1626.3707   -71236.499    1.8918427    44.628663   0.18351646 
   26700   -907.24058     39.75328    -867.4873    1423.8183   -74047.383    1.8918427    33.560394   0.20609209 
   26800   -912.36334    41.019491   -871.34385    1469.1694   -79880.708    1.8918427    30.322569   0.18302446 
   26900   -906.79593    44.100517   -862.69542    1579.5206   -75007.829    1.8918427    33.388305   0.18109899 
   27000   -905.73302    44.631505   -861.10152    1598.5387   -69029.347    1.8918427    34.826826   0.17376791 
   27100   -909.05082    40.086987   -868.96383    1435.7705   -75867.799    1.8918427    34.466459   0.21563528 
   27200   -905.55052    44.474682   -861.07584    1592.9218   -69235.407    1.8918427    51.204534   0.22637018 
   27300   -907.90672    44.794051   -863.11267    1604.3605   -73231.302    1.8918427    33.644521   0.15180382 
   27400   -907.05708    38.838138   -868.21894    1391.0413   -71926.972    1.8918427    31.684794   0.18007538 
   27500   -905.46692    46.123229   -859.34369    1651.9668   -70286.194    1.8918427    33.459377   0.18481608 
   27600   -910.38487    46.378162   -864.00671    1661.0976   -74255.258    1.8918427    33.651218   0.18598762 
   27700   -909.56913    42.960437    -866.6087     1538.687     -71199.3    1.8918427    34.465727   0.17078996 
   27800   -908.18353    44.128661   -864.05487    1580.5286   -72522.694    1.8918427    33.236014   0.17040625 
   27900   -908.03364    46.378862   -861.65478    1661.1226   -71083.502    1.8918427    31.262405   0.16274725 
   28000   -907.81414    47.045848   -860.76829    1685.0117   -72405.862    1.8918427    36.712498   0.18750875 
   28100   -909.94331    43.140007   -866.80331    1545.1186   -73426.808    1.8918427    36.435518   0.18020365 
   28200    -903.1915    45.414445   -857.77705    1626.5807   -67726.924    1.8918427    34.355205   0.19736644 
   28300   -904.76412    42.653474   -862.11064    1527.6928   -67136.708    1.8918427    74.522061   0.18178673 
   28400   -906.21749    41.450195    -864.7673    1484.5957   -71147.412    1.8918427     56.40989   0.18343272 
   28500   -902.35463    48.193921   -854.16071    1726.1315   -67977.324    1.8918427    61.261572   0.20906938 
   28600   -904.69683     42.18603    -862.5108    1510.9506   -69092.389    1.8918427    67.976544   0.23602627 
   28700   -912.34278    47.743038   -864.59975    1709.9825    -75201.49    1.8918427    55.826271    0.1911355 
   28800   -905.32876    45.416266   -859.91249     1626.646   -67738.603    1.8918427     59.44724     0.195853 
   28900   -910.79807    48.682285   -862.11579    1743.6229   -74666.893    1.8918427    62.029354   0.18229789 
   29000    -910.2495    43.983188   -866.26631    1575.3183   -74696.649    1.8918427    68.176086    0.2037852 
   29100   -908.55604    46.897837    -861.6582    1679.7105    -72782.73    1.8918427    62.187095   0.21538366 
   29200   -904.49132    42.277285   -862.21403     1514.219   -69504.996    1.8918427    34.408898   0.18381412 
   29300   -905.78109    42.291149   -863.48994    1514.7156   -72541.601    1.8918427    54.867065    0.1966711 
   29400    -909.4837      45.1234    -864.3603    1616.1565   -72994.401    1.8918427    86.635068   0.19259219 
   29500   -910.47546      48.1212   -862.35426    1723.5269   -74394.878    1.8918427    79.298638   0.17645275 
   29600   -905.47347    45.399845   -860.07362    1626.0578    -69100.01    1.8918427    85.404561   0.21166489 
   29700   -912.83801    44.846318   -867.99169    1606.2325    -77539.67    1.8918427    83.108303   0.14922915 
   29800   -904.37099    42.939177   -861.43182    1537.9256    -67395.15    1.8918427    85.721694   0.18927035 
   29900   -904.41254    43.948899   -860.46364    1574.0902   -70063.576    1.8918427    110.44863    0.2020339 
   30000   -909.09138    43.038065   -866.05331    1541.4674   -76054.906    1.8918427    108.83728   0.23006045 
   30100   -907.58995    47.980908   -859.60905    1718.5021   -71032.081    1.8918427    113.23812   0.19838573 
   30200   -906.84486    45.811613   -861.03325    1640.8058   -71528.286    1.8918427    109.56983   0.19917875 
   30300   -907.89245    42.823724   -865.06873    1533.7905   -74062.789    1.8918427    116.47044   0.19031583 
   30400   -907.97153     45.25753     -862.714    1620.9606   -74078.524    1.8918427     111.8584   0.22700468 
   30500   -907.10459    45.013233   -862.09136    1612.2108   -71963.485    1.8918427    121.98699   0.21837792 
   30600   -906.76174    44.108082   -862.65366    1579.7915   -71811.825    1.8918427    109.21839   0.20467699 
   30700   -912.09625    43.767412   -868.32884      1567.59   -75161.881    1.8918427    120.61683   0.18866867 
   30800   -909.28945    44.454087   -864.83537    1592.1842   -73133.973    1.8918427     131.0428   0.19778696 
   30900   -907.98613    46.561911   -861.42422    1667.6788   -71973.207    1.8918427    115.52784   0.21149706 
   31000   -911.05145    43.784539   -867.26691    1568.2034   -76525.167    1.8918427    123.38772   0.19938858 
   31100   -905.91766    39.931539   -865.98612    1430.2029   -73174.782    1.8918427    141.36504   0.19844306 
   31200    -904.9928    44.641844   -860.35095     1598.909   -68621.044    1.8918427    132.08222   0.20110678 
   31300    -911.4802    45.339019   -866.14118    1623.8792   -75615.336    1.8918427    123.79762   0.21202091 
   31400   -909.76541    44.828895   -864.93651    1605.6084    -71235.67    1.8918427    116.63087   0.17920388 
   31500   -908.11493    48.988224   -859.12671    1754.5805   -69911.753    1.8918427    95.621323   0.18747409 
   31600   -906.01627    40.189147   -865.82712    1439.4295   -70638.754    1.8918427    116.37169   0.17506362 
   31700   -910.53097    45.966044   -864.56493     1646.337   -74178.598    1.8918427    116.36427   0.18049099 
   31800   -908.76482     45.67077   -863.09405    1635.7613   -69073.789    1.8918427    128.74902   0.17456218 
   31900   -909.34556    48.502702   -860.84286    1737.1909   -74037.459    1.8918427    130.10919   0.16539025 
   32000   -906.87137     42.07688   -864.79449    1507.0412   -71713.029    1.8918427    126.90935   0.19490299 
   32100   -905.86571     38.92441    -866.9413    1394.1312   -70079.418    1.8918427    124.10912   0.20434353 
   32200   -905.66827    46.729956   -858.93831    1673.6975   -70182.701    1.8918427    114.62746   0.19359749 
   32300   -909.08811    43.628746   -865.45936    1562.6235   -73300.173    1.8918427    122.74383   0.16723961 
   32400   -907.99509    43.096915   -864.89818    1543.5752    -70193.52    1.8918427    130.23347   0.14835833 
   32500   -909.26828    45.863864   -863.40441    1642.6773   -72359.745    1.8918427    125.20417   0.14680089 
   32600     -907.651    44.311356   -863.33964    1587.0721   -71606.654    1.8918427    125.36421   0.17506368 
   32700   -912.41386    46.307065    -866.1068    1658.5511   -75801.501    1.8918427    137.30554   0.17993406 
   32800   -905.33436    43.472837   -861.86152    1557.0394   -67617.088    1.8918427    122.35752   0.16766363 
   32900   -904.91597    45.162939   -859.75304    1617.5727   -70730.328    1.8918427    110.67896   0.21051111 
   33000   -907.76328    40.815242   -866.94804    1461.8539   -71401.206    1.8918427    70.030928   0.19564885 
   33100   -905.14903    45.204489   -859.94454    1619.0609   -67939.647    1.8918427    83.018862    0.1859873 
   33200    -908.2975    46.584531   -861.71297    1668.4889    -71466.62    1.8918427    88.141153   0.18437274 
   33300   -906.98216    42.608847   -864.37332    1526.0944   -72925.921    1.8918427    89.262566   0.18114835 
   33400   -906.47613    41.586257   -864.88987    1489.4689   -71301.995    1.8918427    86.714162   0.17070102 
   33500   -904.79912     46.77247   -858.02665    1675.2203   -67824.501    1.8918427    87.477854   0.18259623 
   33600   -907.63656    40.823833   -866.81272    1462.1617   -71828.383    1.8918427    81.833667   0.18936529 
   33700   -905.70253    41.198467   -864.50406    1475.5797   -71566.745    1.8918427    82.720487   0.19409181 
   33800   -905.15295    44.163896   -860.98905    1581.7906   -70067.962    1.8918427    80.522028   0.19029017 
   33900   -908.70932    38.843812    -869.8655    1391.2445   -72314.318    1.8918427    79.512736   0.17356257 
   34000   -907.16779    44.624334   -862.54345    1598.2818   -70605.472    1.8918427    83.679258   0.16666468 
   34100   -907.36312    45.051275   -862.31185    1613.5733   -71396.244    1.8918427    86.650416   0.20200889 
   34200   -910.81347    39.308363   -871.50511     1407.883   -76184.601    1.8918427    83.928061   0.17684908 
   34300   -909.86438    43.607575   -866.25681    1561.8652   -74766.203    1.8918427    79.555949   0.18287447 
   34400   -907.58666    46.838717   -860.74794     1677.593   -72700.899    1.8918427     82.31644   0.17637539 
   34500   -909.18345    42.988895   -866.19455    1539.7063   -74172.482    1.8918427    100.23254   0.20302045 
   34600   -908.91999    43.119697    -865.8003    1544.3912   -73432.141    1.8918427    84.706452   0.18255941 
   34700   -905.17631    44.122386   -861.05393    1580.3038   -71076.321    1.8918427    81.344392   0.17202856 
   34800   -909.60863    44.497663   -865.11097    1593.7449    -73707.03    1.8918427    82.533656   0.16375445 
   34900   -914.15325    43.523633   -870.62962    1558.8587   -77251.842    1.8918427    84.461434   0.13866866 
   35000   -909.85428    46.793625   -863.06066    1675.9779   -74281.826    1.8918427    85.957589   0.18199764 
   35100   -908.07424    46.051124   -862.02311    1649.3843   -70948.366    1.8918427    79.701441   0.16890302 
   35200   -910.36555    40.142494   -870.22306    1437.7585   -75235.601    1.8918427    77.407922   0.17023202 
   35300   -909.29275    48.185948    -861.1068    1725.8459   -73517.937    1.8918427     82.44063   0.16516339 
   35400   -907.31492     42.94469   -864.37023    1538.1231   -71900.878    1.8918427    89.698992   0.19307506 
   35500   -911.15486    44.141144   -867.01371    1580.9757   -75348.358    1.8918427    84.405908   0.17892569 
   35600   -903.53204    45.255513   -858.27653    1620.8884   -67673.376    1.8918427    94.937504   0.19674124 
   35700   -909.45645    45.085494   -864.37096    1614.7989   -74026.182    1.8918427    92.447309   0.19081268 
   35800    -909.1473    45.023577   -864.12373    1612.5813   -75212.057    1.8918427    87.354534   0.18994423 
   35900   -903.12947    44.057283   -859.07219    1577.9721   -68487.451    1.8918427    72.555456   0.21507539 
   36000   -903.13638    44.609855   -858.52652    1597.7632   -69012.535    1.8918427    82.628756    0.1885883 
   36100   -907.98516    43.515646   -864.46951    1558.5726   -73141.502    1.8918427    81.414113    0.1923903 
   36200   -908.89812    48.044689   -860.85343    1720.7865   -73750.022    1.8918427    83.619549   0.19427955 
   36300   -904.77681    48.548451   -856.22836    1738.8295   -71595.043    1.8918427    74.946376   0.20928089 
   36400   -912.77969    47.434568   -865.34512    1698.9342   -75566.416    1.8918427    101.01367   0.19181417 
   36500   -904.97889    44.275834   -860.70306    1585.7998   -68330.922    1.8918427    113.28517   0.18945326 
   36600   -905.95443    48.041765   -857.91267    1720.6818   -71646.514    1.8918427     111.8697    0.1766459 
   36700   -911.66581    44.912819   -866.75299    1608.6143   -76615.093    1.8918427    119.41259    0.1850985 
   36800    -906.8623    46.869323   -859.99297    1678.6892   -71543.936    1.8918427    116.80596   0.18713212 
   36900   -906.03339    41.635443   -864.39795    1491.2306   -70724.866    1.8918427    115.50971    0.1935592 
   37000   -908.24855    41.881268   -866.36729    1500.0351   -73155.539    1.8918427    119.69061   0.18746685 
   37100    -904.6254    44.181764   -860.44364    1582.4306   -69080.371    1.8918427    119.29055   0.19891548 
   37200    -911.5284    42.474283   -869.05412    1521.2748   -76266.073    1.8918427    122.56325    0.2001844 
   37300   -909.65888    43.721333   -865.93754    1565.9396   -73486.061    1.8918427    111.17504   0.18988381 
   37400   -905.72668    44.291502   -861.43518     1586.361   -73475.766    1.8918427    118.25024   0.18807405 
   37500   -909.22909    42.162663   -867.06643    1510.1137   -77788.329    1.8918427    108.32635   0.19375088 
   37600    -909.5611    42.517029   -867.04407    1522.8058   -73334.935    1.8918427    121.62854   0.21322588 
   37700   -903.10187    41.239301   -861.86257    1477.0422   -69996.525    1.8918427    111.93223   0.22811044 
   37800   -907.46836    45.256047   -862.21232    1620.9075   -71859.901    1.8918427    124.97415   0.21389169 
   37900   -909.55754    40.688793   -868.86874     1457.325   -75687.274    1.8918427    116.04772   0.18983022 
   38000   -902.93548    42.708938   -860.22654    1529.6793   -68701.545    1.8918427    113.00843   0.21102282 
   38100   -908.72956    46.460727   -862.26883    1664.0548   -73413.301    1.8918427    124.96145   0.20819155 
   38200   -908.57233      38.4957   -870.07663    1378.7764   -74324.307    1.8918427    125.07285   0.18665916 
   38300   -908.83748    41.480368   -867.35711    1485.6763   -76206.651    1.8918427    109.55012   0.19925609 
   38400   -907.11227    47.198757   -859.91351    1690.4883   -71435.739    1.8918427    124.44147   0.21246623 
   38500   -907.38442    43.946536   -863.43789    1574.0055   -71095.099    1.8918427    99.194051   0.19127244 
   38600   -911.34209     43.99426   -867.34783    1575.7149    -75173.32    1.8918427    97.004336   0.19831687 
   38700   -908.26422     46.54031   -861.72391    1666.9051   -72963.742    1.8918427    91.911078   0.20664314 
   38800   -905.16528    43.815459   -861.34982    1569.3108   -71902.031    1.8918427    88.611265   0.22294903 
   38900   -912.10667    45.924296   -866.18238    1644.8417   -78059.539    1.8918427    92.835613   0.18927399 
   39000   -910.75326     44.06581   -866.68745    1578.2775   -74130.672    1.8918427    104.92653   0.19680704 
   39100   -908.46091    48.795564   -859.66535    1747.6801   -71522.089    1.8918427    111.11204   0.17961088 
   39200   -908.01239    41.044959   -866.96743    1470.0816   -73893.377    1.8918427    115.88622   0.18587412 
   39300   -908.42719    47.665067   -860.76212    1707.1898   -73376.169    1.8918427    118.78116   0.17022616 
   39400   -905.97826    44.915236   -861.06302    1608.7009   -72111.779    1.8918427    111.58857   0.19718132 
   39500   -910.42627    43.930434   -866.49584    1573.4288   -75915.441    1.8918427    120.24745   0.20347371 
   39600   -906.57774    49.696228   -856.88151    1779.9387   -70389.319    1.8918427    119.06446   0.20733183 
   39700    -906.3507    45.491487   -860.85921    1629.3401   -71103.845    1.8918427    126.57024   0.19273757 
   39800   -911.81532    46.423238   -865.39208     1662.712   -75510.585    1.8918427    128.58861     0.176355 
   39900   -907.38867    49.743623   -857.64505    1781.6362   -69514.114    1.8918427    113.55964   0.20846024 
   40000   -910.83345     49.18174   -861.65171    1761.5116   -75426.895    1.8918427    116.79452    0.1875549 
   40100   -908.12645    43.500277   -864.62617    1558.0222    -73945.33    1.8918427    118.68015   0.18882155 
   40200   -903.58207    46.993648   -856.58843     1683.142   -65990.885    1.8918427    116.72128   0.20467984 
   40300   -906.59459    48.840954   -857.75363    1749.3059   -70705.498    1.8918427    86.931943   0.21082447 
   40400   -907.38296    44.899412   -862.48355    1608.1341   -73780.549    1.8918427    87.105192   0.19072534 
   40500    -906.0874     45.82537   -860.26203    1641.2986   -72990.797    1.8918427    93.548912   0.21524798 
   40600   -905.67861    48.266152   -857.41246    1728.7185   -70635.003    1.8918427    87.835051   0.18769114 
   40700   -909.88293    44.785709   -865.09722    1604.0617   -75261.032    1.8918427    91.386685   0.20046233 
   40800   -904.74581    44.452593   -860.29322    1592.1307   -68761.668    1.8918427    90.935991   0.20724808 
   40900   -904.11385     47.31692   -856.79693    1694.7205   -71003.866    1.8918427    89.088261    0.2202823 
   41000   -909.86953    46.182274   -863.68725    1654.0816   -74555.626    1.8918427    80.914989    0.2012538 
   41100   -907.79467    45.517772    -862.2769    1630.2815   -71979.092    1.8918427    84.121451   0.21676414 
   41200   -907.43491    44.797352   -862.63756    1604.4787   -70025.825    1.8918427    87.405303   0.21021183 
   41300    -905.6245    37.709216   -867.91528    1350.6074    -70593.63    1.8918427    90.683212   0.22268501 
   41400   -907.14139    48.246974   -858.89441    1728.0316   -73888.255    1.8918427    96.788473   0.21248817 
   41500   -911.40812     47.99929   -863.40882    1719.1605   -73906.635    1.8918427    92.843774   0.18831742 
   41600   -907.57054    41.558916   -866.01163    1488.4897   -71976.183    1.8918427    85.077773   0.20945743 
   41700   -910.35776    46.986298   -863.37146    1682.8788   -74235.505    1.8918427    92.685742   0.18337823 
   41800   -902.86121    44.022152   -858.83906    1576.7138   -68185.044    1.8918427    103.56464   0.21102596 
   41900   -906.57217    46.069433   -860.50274      1650.04   -72849.249    1.8918427    88.004475   0.19160148 
   42000   -909.51849    43.856294    -865.6622    1570.7734   -73346.879    1.8918427    73.305934   0.16637083 
   42100   -903.85008    45.993985    -857.8561    1647.3377   -65982.577    1.8918427    83.461949   0.19055834 
   42200   -908.34331    45.674326   -862.66899    1635.8887   -71414.183    1.8918427    72.498389   0.16475608 
   42300   -908.37417    43.996605   -864.37757    1575.7988   -73300.356    1.8918427    71.701375   0.16944154 
   42400   -905.33041    45.301304   -860.02911    1622.5284   -68477.292    1.8918427    71.275883    0.1811128 
   42500   -910.91465     44.85193   -866.06272    1606.4335    -75063.31    1.8918427    72.614532   0.18015744 
   42600   -908.80288    42.846388   -865.95649    1534.6022   -73077.557    1.8918427    72.025558   0.16221915 
   42700   -906.08826    45.470803   -860.61746    1628.5993   -69811.478    1.8918427    76.827245   0.18735951 
   42800   -910.39593    45.299914   -865.09601    1622.4786   -72546.462    1.8918427    73.376857    0.1765733 
   42900   -908.97542    41.181565   -867.79386    1474.9743   -74378.602    1.8918427     72.63825   0.18341266 
   43000   -907.49505    48.066209   -859.42885    1721.5573   -70930.575    1.8918427    75.274199   0.17923682 
   43100   -909.92463    44.555289   -865.36934    1595.8089   -73157.189    1.8918427    71.202319   0.16432167 
   43200   -909.69053    43.283776   -866.40675    1550.2679   -74044.128    1.8918427    73.136545   0.16711276 
   43300   -906.57745    44.100803   -862.47665    1579.5308   -70888.281    1.8918427    74.464945   0.18270888 
   43400   -907.96802    47.075513   -860.89251    1686.0741   -72141.272    1.8918427    73.999137   0.19063837 
   43500   -909.39756    43.731263   -865.66629    1566.2952   -73106.317    1.8918427    76.035578   0.18546858 
   43600   -906.85584    41.742231   -865.11361    1495.0553   -70225.697    1.8918427    80.176142    0.1816567 
   43700   -907.36627    47.938793   -859.42748    1716.9937   -70753.789    1.8918427    70.842011   0.18932418 
   43800    -905.9662    41.836036   -864.13016    1498.4151     -71815.6    1.8918427    83.036876   0.19370965 
   43900   -905.66731    42.343807   -863.32351    1516.6016   -68849.941    1.8918427     67.43484   0.19700407 
   44000   -903.24078    48.894796   -854.34598    1751.2343   -63971.304    1.8918427    69.226128   0.19751088 
   44100    -909.2315    47.728131   -861.50337    1709.4486    -71265.96    1.8918427    69.301447   0.19635774 
   44200   -910.15993    45.995191   -864.16474     1647.381    -72927.29    1.8918427    72.347917   0.17940326 
   44300   -907.98074    46.372276   -861.60846    1660.8867   -70028.673    1.8918427    71.432537   0.18704401 
   44400   -901.32717    42.729892   -858.59727    1530.4298   -63786.479    1.8918427    92.154062   0.19919807 
   44500   -909.08004    42.589057   -866.49099    1525.3856   -72884.034    1.8918427    80.268881   0.21754879 
   44600   -907.26191    45.778235   -861.48368    1639.6104   -71858.488    1.8918427    88.711532   0.19428627 
   44700   -897.66788    46.348599   -851.31928    1660.0387   -62800.475    1.8918427    84.245434   0.21812336 
   44800    -905.0448    43.772831   -861.27197    1567.7841   -68123.838    1.8918427    63.370661   0.18432244 
   44900   -911.81105     46.01812   -865.79293    1648.2022   -74307.833    1.8918427    60.937556    0.2062892 
   45000   -906.31458    44.952049   -861.36253    1610.0194    -71180.55    1.8918427    56.884721   0.18798802 
   45100   -907.25903    46.864509   -860.39452    1678.5167   -71036.216    1.8918427    61.004013   0.19124147 
   45200   -908.36109    43.111735   -865.24936     1544.106   -71858.144    1.8918427    85.578379   0.21605283 
   45300   -903.71596    43.543159    -860.1728    1559.5581   -70166.062    1.8918427    85.015375   0.21532303 
   45400   -907.08753    45.246372   -861.84116    1620.5609   -70773.691    1.8918427    78.360262   0.19116482 
   45500   -912.26651    45.714447   -866.55207    1637.3257   -76926.061    1.8918427    81.052522   0.19935719 
   45600   -905.84789     47.14229   -858.70561    1688.4659   -68931.155    1.8918427    81.533121   0.19681461 
   45700   -906.77533    45.436242   -861.33909    1627.3614   -72256.927    1.8918427    77.039089   0.21841336 
   45800   -903.65957    38.743103   -864.91646    1387.6375   -70905.144    1.8918427    78.827746   0.20912001 
   45900   -911.00631    41.474649   -869.53167    1485.4715   -75482.099    1.8918427    86.602604   0.21376175 
   46000    -908.3666    46.936662   -861.42994     1681.101   -72921.262    1.8918427    70.296245   0.18555145 
   46100   -907.18468    45.681215   -861.50347    1636.1355   -69509.979    1.8918427    73.346466   0.19616844 
   46200   -912.52308    43.076637   -869.44644    1542.8489     -76086.5    1.8918427    68.861196   0.15117979 
   46300   -911.09619    46.816957   -864.27923    1676.8136   -74995.336    1.8918427    72.735113   0.16921471 
   46400   -907.21094    45.251327   -861.95961    1620.7384   -71761.669    1.8918427    69.283189   0.18925001 
   46500   -912.99039    43.001131   -869.98926    1540.1446   -78378.267    1.8918427    71.841544   0.15161317 
   46600   -909.97939    47.088159   -862.89123    1686.5271   -73743.661    1.8918427    73.620221    0.1602026 
   46700   -906.05266    43.600989   -862.45167    1561.6293   -67596.447    1.8918427    80.350357   0.17398197 
   46800   -913.40228    41.999134   -871.40315    1504.2567   -78128.163    1.8918427    79.734029   0.15889627 
   46900   -910.33182    43.979936   -866.35188    1575.2018   -74043.168    1.8918427    74.226007    0.1669605 
   47000   -906.09145    43.939862   -862.15159    1573.7665   -70721.902    1.8918427    72.523389   0.19310952 
   47100   -908.54727    46.215651   -862.33162     1655.277   -72580.708    1.8918427    77.174623   0.17450517 
   47200   -911.35188     42.95884   -868.39304    1538.6299   -77546.615    1.8918427     75.87352   0.17890577 
   47300    -907.3016    46.315375   -860.98623    1658.8488    -71477.67    1.8918427    70.974988   0.17485128 
   47400   -911.13762    48.027415   -863.11021    1720.1678   -72916.144    1.8918427    66.920343   0.17062575 
   47500   -911.58621    41.541653   -870.04455    1487.8714    -76169.15    1.8918427    78.650302   0.15193362 
   47600   -912.44569     45.39719    -867.0485    1625.9627   -77681.666    1.8918427    78.522342   0.16318509 
   47700   -909.58868    48.044521   -861.54416    1720.7805   -73308.014    1.8918427    68.522918   0.17775595 
   47800   -906.79997    42.249313   -864.55066    1513.2172   -70946.527    1.8918427    67.801755   0.19362747 
   47900   -912.75407    44.081554   -868.67252    1578.8414   -76745.088    1.8918427    71.066035    0.1778485 
   48000   -907.98873    48.027482   -859.96124    1720.1702   -71045.598    1.8918427    69.438331    0.1792038 
   48100    -911.5621    45.703386   -865.85872    1636.9296   -74928.443    1.8918427    73.148557   0.17447917 
   48200   -906.95267    41.787296   -865.16538    1496.6694   -72155.548    1.8918427    73.208933   0.18463136 
   48300   -904.03054    44.848607   -859.18194    1606.3144   -66711.623    1.8918427    72.020228   0.19349805 
   48400   -909.12076    42.529114   -866.59164    1523.2386   -72091.179    1.8918427    65.594705   0.16475636 
   48500   -905.54424    41.582386   -863.96185    1489.3303   -69072.676    1.8918427    77.691145   0.17307228 
   48600   -905.74545    42.553746    -863.1917    1524.1208   -71509.344    1.8918427    69.660385   0.19544916 
   48700   -909.30953    44.992622    -864.3169    1611.4726   -72473.015    1.8918427    72.479375    0.1778905 
   48800    -910.7501     44.12718   -866.62292    1580.4756   -72330.254    1.8918427    76.088542   0.16126028 
   48900   -908.55569    49.084453   -859.47123    1758.0271   -73007.359    1.8918427    70.077146   0.16558207 
   49000   -907.44954    41.814547   -865.63499    1497.6454   -73375.537    1.8918427    70.802617   0.15646804 
   49100   -909.25543    43.346355   -865.90908    1552.5093   -74253.835    1.8918427    76.471187   0.16924845 
   49200   -907.28353    46.974328    -860.3092    1682.4501   -69927.515    1.8918427    75.349548   0.18502907 
   49300    -910.8893    41.859763   -869.02954    1499.2649   -75864.547    1.8918427    68.175388   0.17147818 
   49400   -911.05927    46.926777   -864.13249     1680.747   -73432.862    1.8918427    75.154199   0.17039608 
   49500   -909.02718    47.390035   -861.63715    1697.3392   -70744.982    1.8918427    87.420941   0.18188644 
   49600   -912.04174    43.437713   -868.60403    1555.7814   -75698.029    1.8918427    72.436722    0.1863222 
   49700   -910.85218    42.632325   -868.21986    1526.9353   -73913.482    1.8918427    72.875904   0.18870592 
   49800   -906.72419    43.772282   -862.95191    1567.7644   -70051.926    1.8918427    70.703897   0.18570033 
   49900   -909.14612    46.203116     -862.943    1654.8281   -72619.323    1.8918427    74.915043    0.1880083 
   50000   -910.66152    41.763262   -868.89826    1495.8086   -73844.211    1.8918427    78.815869   0.16597005 
   50100   -909.30539    48.871758   -860.43363    1750.4091   -71451.623    1.8918427    66.632429   0.17296635 
   50200   -907.92427    45.007553   -862.91672    1612.0073    -72672.07    1.8918427    73.962823   0.18170758 
   50300   -908.27694    39.390676   -868.88627    1410.8311   -72847.631    1.8918427    76.478647   0.16394614 
   50400   -912.20601    42.443083   -869.76292    1520.1573   -76859.454    1.8918427    71.510617   0.16805797 
   50500   -909.25129    46.557262   -862.69403    1667.5123   -74035.249    1.8918427    72.772635   0.16947788 
   50600   -904.94657     43.75006   -861.19651    1566.9685   -71957.576    1.8918427     70.91704   0.18968452 
   50700    -911.9061    43.050364   -868.85574    1541.9079    -74645.21    1.8918427    73.222139   0.15722655 
   50800    -902.4682    41.687048   -860.78115    1493.0789   -64597.641    1.8918427    76.649016   0.17522231 
   50900    -905.8564    43.373869   -862.48253    1553.4947   -70240.067    1.8918427    69.916055   0.18602457 
   51000   -906.04039    39.570823   -866.46957    1417.2834   -72796.632    1.8918427    86.273102   0.20999336 
   51100   -905.92888    46.827883   -859.10099     1677.205   -68792.283    1.8918427    67.268004   0.18163816 
   51200   -909.31013    45.176841   -864.13329    1618.0706   -71398.713    1.8918427    66.861868   0.19452197 
   51300   -908.01395    42.752736   -865.26121     1531.248   -70151.169    1.8918427    64.815437   0.19372942 
   51400   -905.29534    43.157066   -862.13827    1545.7296   -71921.542    1.8918427    69.182046   0.21783941 
   51500   -906.76323    43.887977   -862.87526    1571.9082   -68134.344    1.8918427    59.435567   0.21339622 
   51600   -909.39359    38.995876   -870.39771    1396.6908   -71449.916    1.8918427    69.302851   0.21632963 
   51700   -904.89955    43.665142   -861.23441     1563.927   -68929.179    1.8918427    65.616993   0.20969008 
   51800   -907.77935    45.470016   -862.30934    1628.5711   -71854.148    1.8918427    68.103945   0.20775521 
   51900   -910.18945     41.17342   -869.01603    1474.6826   -75194.913    1.8918427    63.362509   0.16091944 
   52000   -907.28475    45.009357   -862.27539    1612.0719   -72108.158    1.8918427    69.886074   0.17961949 
   52100   -906.98575    43.346844   -863.63891    1552.5268   -72822.367    1.8918427    68.672948   0.17939639 
   52200   -910.81691    42.863375   -867.95353    1535.2106   -76075.534    1.8918427    66.081408   0.15218252 
   52300   -908.17312    45.617257   -862.55586    1633.8447   -73179.705    1.8918427    59.900037   0.15949328 
   52400   -907.51061    46.396842   -861.11377    1661.7666   -69967.943    1.8918427    72.220761   0.18208766 
   52500   -911.67839    42.863074   -868.81531    1535.1999   -75823.193    1.8918427     65.75046   0.17967863 
   52600   -909.23579    44.471729   -864.76407    1592.8161   -71000.431    1.8918427    73.303627   0.16475683 
   52700   -904.37028     43.83172   -860.53856    1569.8932   -68377.158    1.8918427     65.53283    0.1823914 
   52800   -910.31098     42.69319   -867.61779    1529.1153   -72475.651    1.8918427     64.03902   0.18441462 
   52900   -907.60466    43.491012   -864.11365    1557.6903   -71733.932    1.8918427    68.150846   0.20577456 
   53000   -907.21933    46.156384   -861.06294    1653.1543   -71331.501    1.8918427    66.689008   0.17075404 
   53100   -912.08758    45.968037   -866.11954    1646.4084   -76167.214    1.8918427    69.583352   0.16839909 
   53200   -911.32959    40.277529   -871.05206     1442.595   -76141.961    1.8918427     61.25848   0.16768536 
   53300   -908.36489    45.977761   -862.38713    1646.7567   -72388.347    1.8918427    73.802065    0.2063349 
   53400   -906.66145    44.588908   -862.07255     1597.013   -70539.563    1.8918427    71.040079   0.19513951 
   53500   -911.12791    41.468243   -869.65967    1485.2421   -76344.363    1.8918427    56.348078   0.16914552 
   53600   -911.78515    47.820841   -863.96431    1712.7691   -75745.442    1.8918427    65.915486    0.1749373 
   53700    -909.2817    46.486413   -862.79529    1664.9747   -72919.119    1.8918427    69.913355   0.18830936 
   53800   -906.79451    42.476464   -864.31805    1521.3529   -70792.904    1.8918427    66.563087   0.17151052 
   53900   -909.21773    41.453139   -867.76459    1484.7011   -74381.679    1.8918427    66.947656   0.16968677 
   54000   -907.05364    47.771975   -859.28167    1711.0189   -71157.605    1.8918427    62.495804   0.18163405 
   54100   -909.46405     45.98025    -863.4838    1646.8458   -73618.818    1.8918427    68.752016   0.19807279 
   54200   -910.96304    45.432804   -865.53024    1627.2383   -72886.322    1.8918427    68.194003   0.18950133 
   54300   -906.35923    44.860023    -861.4992    1606.7233    -70994.05    1.8918427    70.212502   0.19224816 
   54400   -910.24156    50.263817   -859.97774    1800.2676    -72267.06    1.8918427    66.408754   0.16454692 
   54500   -911.08029     43.39734   -867.68296    1554.3353   -75995.081    1.8918427    67.553763   0.18023129 
   54600   -908.60361    48.719844   -859.88377    1744.9681   -70943.733    1.8918427    70.344141   0.17451668 
   54700   -905.91557    44.751215   -861.16436    1602.8262   -71621.465    1.8918427    66.584201    0.1760017 
   54800   -908.81368    43.755144   -865.05853    1567.1506   -72389.413    1.8918427    65.900002    0.1833119 
   54900   -905.92729    46.958843   -858.96844    1681.8955   -66935.694    1.8918427     65.98529   0.20091244 
   55000   -906.35863    44.160073   -862.19856    1581.6537   -71661.062    1.8918427    66.421979   0.20727101 
   55100   -909.47396    43.734191   -865.73977    1566.4001   -73879.473    1.8918427    70.989065   0.17340866 
   55200   -904.68752    47.263037   -857.42448    1692.7906   -69696.172    1.8918427     65.89342   0.19397042 
   55300   -899.80107    41.873524   -857.92755    1499.7578   -63633.615    1.8918427    69.994509   0.19733083 
   55400   -909.88803     45.31254   -864.57549    1622.9308   -75811.839    1.8918427    67.844586   0.20199179 
   55500   -910.60665    45.196487   -865.41017    1618.7743   -73806.432    1.8918427    64.947173   0.18054709 
   55600   -904.89741    46.637943   -858.25947     1670.402   -68025.153    1.8918427    71.455556   0.19679023 
   55700   -906.98501    42.656526   -864.32849    1527.8021   -71667.783    1.8918427    65.713158   0.20482174 
   55800   -908.38257    44.778782   -863.60379    1603.8136   -72960.001    1.8918427    70.498117   0.20907965 
   55900   -904.78945    48.957703   -855.83175    1753.4874    -71686.24    1.8918427    67.523756   0.19089272 
   56000   -908.49333    46.399458   -862.09387    1661.8603   -75071.109    1.8918427    65.000997   0.16701799 
   56100   -909.13509    44.578898   -864.55619    1596.6545   -75175.622    1.8918427    64.745051   0.19165635 
   56200   -906.61357    47.311533   -859.30204    1694.5275   -71392.651    1.8918427    69.779427   0.19312499 
   56300   -905.77514    45.025167   -860.74997    1612.6382   -72904.849    1.8918427    62.483892   0.18256253 
   56400    -911.5341    46.247036   -865.28707    1656.4011   -75712.958    1.8918427    65.518605   0.18626605 
   56500    -903.6651     44.37076   -859.29434    1589.1997   -69678.095    1.8918427    65.460486   0.19195593 
   56600   -907.40006    47.959018   -859.44105    1717.7181   -72169.928    1.8918427    68.333565   0.20130417 
   56700   -910.65156    43.934966    -866.7166    1573.5912   -76170.703    1.8918427    71.841661    0.1821329 
   56800    -905.0667    45.654388   -859.41231    1635.1746   -69011.806    1.8918427    64.103881   0.19268815 
   56900   -910.29942    46.904153   -863.39527    1679.9367   -76288.548    1.8918427    67.161986   0.17439985 
   57000   -909.10434      42.2943   -866.81004    1514.8284   -72683.663    1.8918427    69.752554   0.17694881 
   57100   -908.20169    48.435479   -859.76621    1734.7832   -72990.362    1.8918427    62.221922   0.19072622 
   57200   -910.18085    43.341782   -866.83907    1552.3454   -75021.817    1.8918427    65.709576   0.17784536 
   57300   -909.41167    43.222076   -866.18959     1548.058   -72459.637    1.8918427     70.88868   0.17190646 
   57400   -907.62984    45.190759   -862.43908    1618.5691   -69371.951    1.8918427    69.932804   0.20289389 
   57500   -910.21263    46.041276   -864.17135    1649.0315   -74515.733    1.8918427    63.422395   0.19900734 
   57600   -911.78236    40.901682   -870.88068    1464.9499   -77057.055    1.8918427    61.800616   0.16355005 
   57700    -907.0982    44.265113   -862.83309    1585.4158    -69617.18    1.8918427    65.130682   0.18301846 
   57800   -908.22799     45.34539    -862.8826    1624.1074   -73561.764    1.8918427    64.729145   0.18925353 
   57900   -909.68538    39.412512   -870.27287    1411.6132   -74385.792    1.8918427    63.364106   0.19177743 
   58000    -904.4414    42.172941   -862.26846    1510.4818   -68387.955    1.8918427    70.545902   0.17322812 
   58100    -908.6312    45.085142   -863.54606    1614.7863   -72305.583    1.8918427    68.127186   0.16861525 
   58200   -913.46019    43.038771   -870.42142    1541.4927   -77559.743    1.8918427    69.287197   0.16920413 
   58300   -908.25445    45.582044   -862.67241    1632.5835   -69463.242    1.8918427    64.784852   0.18735335 
   58400   -906.79425     44.95242   -861.84183    1610.0327   -69945.885    1.8918427     67.86257   0.18192319 
   58500   -911.74923    42.553223   -869.19601    1524.1021   -75068.757    1.8918427    68.158067   0.18108411 
   58600   -907.27861    46.928689   -860.34992    1680.8155   -71961.695    1.8918427    74.805664   0.19651534 
   58700   -909.44948    46.516579    -862.9329    1666.0552   -74115.207    1.8918427    74.962746    0.1802182 
   58800   -911.03508    43.964515   -867.07057    1574.6495   -74007.947    1.8918427    70.688901   0.18070644 
   58900   -903.68229    46.745578   -856.93672    1674.2571   -68301.143    1.8918427    68.650959   0.16753112 
   59000   -910.52889      46.2842   -864.24469    1657.7322   -74534.344    1.8918427    65.713469   0.18339607 
   59100   -908.63631    43.650029   -864.98628    1563.3857   -72201.139    1.8918427    70.774958   0.19765588 
   59200    -904.6178    48.719423   -855.89838    1744.9531   -67150.355    1.8918427      61.8881   0.18595009 
   59300     -907.632     44.39379   -863.23821    1590.0246   -71885.939    1.8918427    64.448505   0.19441874 
   59400    -911.8267    47.386602   -864.44009    1697.2162   -74184.325    1.8918427    64.420653   0.16493312 
   59500   -905.13218    47.670057   -857.46212    1707.3685   -70166.451    1.8918427    74.487475   0.17917395 
   59600   -906.64048    42.658003   -863.98248     1527.855   -71822.355    1.8918427    68.829887   0.18450398 
   59700   -907.19405    42.321828   -864.87222    1515.8144   -71998.367    1.8918427    66.042393   0.19205247 
   59800   -903.46876    46.935397   -856.53336    1681.0557   -67510.669    1.8918427    65.170694   0.19053799 
   59900    -907.7229    46.969409   -860.75349    1682.2739   -71785.748    1.8918427    78.428447   0.19648594 
   60000   -911.59173    47.031154   -864.56058    1684.4854   -74119.756    1.8918427    90.351968   0.16523988 
   60100   -906.13088    41.957852   -864.17302    1502.7781   -70683.155    1.8918427    83.485944   0.19164683 
   60200   -902.92823    45.495197   -857.43303     1629.473    -66877.37    1.8918427    102.29455   0.20572347 
   60300   -913.83959    46.964413   -866.87518     1682.095    -76568.98    1.8918427     85.63164   0.15558126 
   60400   -907.04548    43.518482     -863.527    1558.6742   -69332.369    1.8918427    77.996299    0.1608052 
   60500    -909.7361    49.866253   -859.86985    1786.0284   -71825.723    1.8918427    79.242637   0.17634827 
   60600   -910.95839    41.980233   -868.97815    1503.5797   -74932.106    1.8918427     86.03082   0.16998219 
   60700   -906.64415    45.503248    -861.1409    1629.7613   -69605.139    1.8918427    77.353289    0.1762673 
   60800   -910.10516    45.422859    -864.6823    1626.8821   -73783.686    1.8918427    80.452201   0.16000187 
   60900     -910.435    40.495342   -869.93966    1450.3963   -75616.664    1.8918427    95.286398   0.16636423 
   61000   -902.83842    40.175301   -862.66312    1438.9336   -69088.242    1.8918427    134.52553   0.21463485 
   61100   -907.20642    47.017866   -860.18855    1684.0095   -71556.383    1.8918427     113.9115   0.17807869 
   61200   -908.19316    39.651033   -868.54213    1420.1562   -71551.164    1.8918427    133.69162   0.17188104 
   61300   -908.12756    46.767137   -861.36042    1675.0293   -71534.607    1.8918427    115.62107   0.17495022 
   61400   -909.11799     47.04314   -862.07485    1684.9147   -73728.513    1.8918427    115.75895    0.1986418 
   61500   -908.51537    41.904923   -866.61044    1500.8824   -74973.052    1.8918427    125.26515   0.20880575 
   61600   -909.81177    40.286088   -869.52568    1442.9016   -76801.735    1.8918427    121.15129   0.20608687 
   61700   -909.81647    47.953486   -861.86298      1717.52   -72954.266    1.8918427    132.18176   0.21920399 
   61800   -908.90868    45.674574   -863.23411    1635.8976   -72631.024    1.8918427    122.32222   0.19696453 
   61900   -909.36928    40.892061   -868.47722    1464.6053   -73277.745    1.8918427    120.11938   0.19831117 
   62000   -905.74505     44.22447   -861.52058    1583.9601   -69579.542    1.8918427    127.70331    0.1961948 
   62100   -907.85427    44.441316   -863.41296    1591.7268   -72288.426    1.8918427    125.86829   0.18396244 
   62200   -910.60082    42.661098   -867.93972    1527.9658   -72921.019    1.8918427    136.21834   0.19976637 
   62300   -909.73855    50.238234   -859.50032    1799.3513   -71635.874    1.8918427    136.88714   0.21049613 
   62400   -906.09925    43.574591   -862.52466    1560.6838   -69561.947    1.8918427    116.49597   0.21670414 
   62500   -910.69573    44.789617   -865.90612    1604.2017   -73635.052    1.8918427    136.32222   0.18202476 
   62600   -908.54641    45.769534   -862.77687    1639.2987    -71065.31    1.8918427    138.02982   0.18538803 
   62700   -905.14692    46.972797   -858.17413    1682.3953   -67054.118    1.8918427    138.38218   0.20124371 
   62800   -906.80056    43.494613   -863.30594    1557.8193   -72578.763    1.8918427    141.00666   0.19769739 
   62900   -906.57829    41.540781   -865.03751    1487.8401   -70759.241    1.8918427     135.5294    0.2053418 
   63000    -905.5631    48.163281   -857.39982    1725.0341   -69010.775    1.8918427    133.93723   0.19933759 
   63100   -906.08927    44.132883   -861.95639    1580.6798   -72055.845    1.8918427    124.85547   0.22450109 
   63200   -908.23636    42.628811   -865.60754    1526.8094     -73934.1    1.8918427    136.38767    0.1947486 
   63300   -905.60222    41.655902   -863.94631    1491.9634   -69936.754    1.8918427    134.59305   0.20923443 
   63400   -903.52598    44.654847   -858.87113    1599.3747   -69091.791    1.8918427    124.95484   0.19154447 
   63500    -908.5173    40.823718   -867.69359    1462.1575   -73826.251    1.8918427     136.5575   0.16279021 
   63600   -907.80044    43.779733    -864.0207    1568.0313   -72031.874    1.8918427    142.97741   0.19394473 
   63700   -904.23942    43.109701   -861.12972    1544.0332   -66587.561    1.8918427    141.97869     0.203594 
   63800     -912.865    44.782919   -868.08208    1603.9618   -75703.479    1.8918427    146.00929   0.18706144 
   63900   -906.31696    41.969705   -864.34725    1503.2026   -71194.308    1.8918427    137.72252   0.20868656 
   64000   -902.88278    41.971842   -860.91094    1503.2792   -66958.022    1.8918427    134.37558   0.19110795 
   64100   -913.11491    45.048321   -868.06659    1613.4675   -74295.714    1.8918427    137.55784   0.16781818 
   64200   -909.06886    42.874721   -866.19414     1535.617   -72685.951    1.8918427    134.20981   0.18190261 
   64300   -909.42836    46.427716   -863.00064    1662.8724   -73299.049    1.8918427    135.34508   0.16280637 
   64400    -907.0539    44.816616   -862.23728    1605.1687   -69458.183    1.8918427    161.60736   0.16835715 
   64500   -909.77091    41.071908   -868.69901    1471.0468   -74211.715    1.8918427    155.57854   0.16647274 
   64600   -908.20731    46.980903   -861.22641    1682.6856    -70584.44    1.8918427    145.98739   0.18944637 
   64700   -907.66345    45.346847    -862.3166    1624.1596   -72341.374    1.8918427     153.1264   0.18074742 
   64800   -910.67415    43.104927   -867.56922    1543.8622   -73541.964    1.8918427    145.71327   0.17754127 
   64900    -908.7554    48.707527   -860.04787     1744.527   -71084.194    1.8918427    157.18477   0.15676828 
   65000   -904.60395     41.93347   -862.67048    1501.9048   -69016.138    1.8918427    146.32974   0.17690812 
   65100   -908.15105    41.643127   -866.50792    1491.5058   -71877.241    1.8918427    151.10284   0.19458513 
   65200    -908.5798    45.655482   -862.92432    1635.2138   -70082.251    1.8918427    153.67663   0.18864444 
   65300    -909.2611    45.594366   -863.66674    1633.0248   -69331.574    1.8918427     151.5612   0.17796231 
   65400    -913.6071    45.099552   -868.50754    1615.3024   -74410.582    1.8918427    149.09092   0.17134415 
   65500   -909.41657    42.922331   -866.49424    1537.3222   -71675.065    1.8918427    156.06745   0.16666111 
   65600   -911.86077    49.942734   -861.91803    1788.7676   -71678.965    1.8918427    153.27584   0.15367154 
   65700   -911.75179    42.998446   -868.75335    1540.0484   -73133.774    1.8918427    153.60988   0.15256254 
   65800   -908.47283    43.049987   -865.42284    1541.8944   -73245.338    1.8918427    151.75505   0.17185646 
   65900    -906.8939    46.095204   -860.79869     1650.963   -71744.694    1.8918427     152.9937   0.18346593 
   66000   -911.96959    44.544389    -867.4252    1595.4185   -78374.944    1.8918427     149.6019   0.19233699 
   66100   -909.90436    48.886822   -861.01754    1750.9487   -74236.989    1.8918427    148.02911   0.17523359 
   66200   -906.20897    45.101247   -861.10772    1615.3631   -73501.124    1.8918427    162.76519   0.18995884 
   66300   -908.04573    41.302483   -866.74325    1479.3052    -71771.32    1.8918427     153.6496   0.18171879 
   66400   -907.55255     44.37756   -863.17499    1589.4433   -72559.325    1.8918427    156.14644    0.1829542 
   66500   -908.38953    45.492071   -862.89746     1629.361   -70428.651    1.8918427     142.1871   0.19105682 
   66600   -905.12641    41.463056   -863.66336    1485.0563   -70924.749    1.8918427    147.99566   0.18004511 
   66700    -910.9786     44.61414   -866.36446    1597.9167   -76911.977    1.8918427     145.7543   0.16322242 
   66800   -907.36151    47.939435   -859.42208    1717.0167   -71993.011    1.8918427    153.78938   0.18083827 
   66900   -906.51451    42.061018   -864.45349    1506.4731   -71678.821    1.8918427    155.71271   0.17001334 
   67000   -908.71287    42.808944   -865.90393    1533.2611   -74422.302    1.8918427    152.41972   0.17205279 
   67100   -905.86444     45.84298   -860.02146    1641.9293   -70484.549    1.8918427    150.64621   0.19026724 
   67200   -912.61665    43.361243   -869.25541    1553.0425    -75080.68    1.8918427    146.95616   0.19133698 
   67300   -909.55369    45.571441   -863.98225    1632.2037   -75189.696    1.8918427    163.84061    0.1980211 
   67400      -908.44    47.436073   -861.00393    1698.9881   -72101.676    1.8918427    162.08087   0.19649324 
   67500   -912.32768    42.888762   -869.43892    1536.1199   -77038.982    1.8918427    146.91462   0.18255224 
   67600   -908.84328    41.051187   -867.79209    1470.3047   -75003.995    1.8918427     157.4401   0.17627317 
   67700   -907.98351    45.607388   -862.37612    1633.4913   -70830.148    1.8918427    152.68663   0.17002819 
   67800   -909.88954    46.121558   -863.76799    1651.9069   -73493.647    1.8918427     151.8007   0.15838274 
   67900   -906.30794     37.87453   -868.43341    1356.5283   -71265.607    1.8918427    144.32802   0.19533465 
   68000   -904.08973    42.924022   -861.16571    1537.3828   -70498.342    1.8918427    120.86343   0.19119186 
   68100   -907.12691    43.572848   -863.55406    1560.6214   -69254.936    1.8918427    117.65344   0.19541568 
   68200   -911.54089    40.452402   -871.08848    1448.8583    -75204.22    1.8918427    110.75388   0.18306983 
   68300   -909.33203    46.961067   -862.37096    1681.9751   -70793.755    1.8918427    114.83571   0.19111833 
   68400   -905.21648    42.982004   -862.23447    1539.4595   -72852.404    1.8918427    125.78456   0.20580923 
   68500   -910.96107    44.064683   -866.89639    1578.2372   -76159.857    1.8918427    115.97461   0.18211587 
   68600   -907.79081    42.785827   -865.00498    1532.4332   -72988.152    1.8918427    116.83003   0.19620402 
   68700   -905.50376    44.985897   -860.51787    1611.2317   -71353.498    1.8918427    114.09903   0.20141214 
   68800   -910.95629    43.012998    -867.9433    1540.5696   -74924.337    1.8918427     112.7818   0.18105201 
   68900   -905.56534    43.598298   -861.96704    1561.5329   -68925.684    1.8918427    117.73933   0.16981792 
   69000       -906.6    45.781942   -860.81805    1639.7432   -71233.225    1.8918427    110.81437   0.20183362 
   69100   -910.51201    43.497441   -867.01456    1557.9206   -73403.127    1.8918427    119.52315   0.21493867 
   69200   -905.71345    48.218708   -857.49474    1727.0192   -69455.433    1.8918427    107.36461   0.22516317 
   69300   -906.81735    45.100797   -861.71656     1615.347   -72357.604    1.8918427    107.53315   0.19329782 
   69400   -905.68592    40.800154   -864.88577    1461.3136   -70964.408    1.8918427    82.646114   0.20874897 
   69500   -907.53311    52.663724   -854.86939    1886.2236   -70967.491    1.8918427    87.419024   0.21111534 
   69600   -905.78074    45.650592   -860.13015    1635.0387   -70875.304    1.8918427    99.591607   0.21144288 
   69700   -908.97748    44.052914   -864.92456    1577.8156   -72658.782    1.8918427    96.680325   0.19267832 
   69800   -906.85628    47.495588    -859.3607    1701.1197   -71058.951    1.8918427    78.431542   0.18043351 
   69900   -905.73698    46.155335   -859.58165    1653.1167   -69863.875    1.8918427     86.31086   0.19344736 
   70000   -912.18123    48.334473   -863.84676    1731.1655   -75888.631    1.8918427    75.420201   0.19477847 
   70100   -905.51764    44.327009   -861.19063    1587.6327   -69641.586    1.8918427    72.130498   0.19748514 
   70200   -905.16768    48.194165   -856.97352    1726.1402   -67687.733    1.8918427    93.098167   0.18706884 
   70300   -911.15447    45.396427   -865.75804    1625.9354   -74413.759    1.8918427    120.31972    0.1778416 
   70400   -908.21749    46.979293   -861.23819    1682.6279   -73254.969    1.8918427    104.57928   0.17451776 
[...]
  186800   -913.21413    43.924452   -869.28967    1573.2146   -77042.998    1.8918427    902.23114    0.1863047 
  186900   -908.63811    41.598534   -867.03958    1489.9086   -73370.823    1.8918427    793.31904   0.18588581 
  187000   -906.97225    45.643397   -861.32885     1634.781   -71010.762    1.8918427    814.22419   0.17754877 
  187100   -908.80378    45.060068   -863.74371    1613.8882   -73357.135    1.8918427    767.57896    0.2064569 
  187200    -909.1482    40.414903   -868.73329    1447.5152    -74300.63    1.8918427    758.13998   0.17947979 
  187300   -909.03346    47.564598   -861.46886    1703.5914    -73008.01    1.8918427    772.69495   0.18179335 
  187400   -909.23604    44.777702   -864.45834    1603.7749   -72431.917    1.8918427    759.54468   0.16065759 
  187500   -910.09249     39.55421   -870.53828    1416.6884   -74412.969    1.8918427    768.27216   0.16867117 
  187600   -908.78568    46.380268   -862.40541     1661.173    -73933.42    1.8918427    736.20944   0.18975806 
  187700   -905.92858    43.925458   -862.00313    1573.2506   -69530.302    1.8918427    765.12238   0.18549363 
  187800   -912.12054    42.600754   -869.51978    1525.8045   -77450.592    1.8918427    771.62614   0.15874007 
  187900   -907.52094    48.046209   -859.47473    1720.8409   -72125.835    1.8918427     756.0169   0.19161741 
  188000   -908.51438    43.929792   -864.58459    1573.4058   -72019.749    1.8918427    763.20284   0.19327477 
  188100   -909.78047    44.241514   -865.53896    1584.5706   -71585.734    1.8918427    763.55691   0.18469394 
  188200   -900.83643    42.781588   -858.05484    1532.2813   -63543.201    1.8918427    792.21607   0.19137691 
  188300   -905.81828    40.802213   -865.01607    1461.3873   -67324.334    1.8918427    758.71318    0.1890172 
  188400   -909.38709    45.348487    -864.0386    1624.2183   -72133.458    1.8918427    765.51665   0.17842002 
  188500   -900.96954    47.154997   -853.81454     1688.921   -67196.974    1.8918427    736.27027    0.2205291 
  188600   -910.41614    48.239897   -862.17625    1727.7782   -74022.203    1.8918427    620.07771   0.17627346 
  188700   -910.19539    44.851849   -865.34354    1606.4306     -73625.3    1.8918427    630.00324   0.18119293 
  188800   -903.18469    45.067191    -858.1175    1614.1434   -68566.559    1.8918427     611.9378   0.16991505 
  188900   -906.29369    43.323948   -862.96974    1551.7067   -69387.627    1.8918427    628.97789   0.17320918 
  189000   -909.21673    45.078666   -864.13806    1614.5543   -72369.818    1.8918427    599.19306   0.17579393 
  189100   -903.33944    45.253992   -858.08544    1620.8339   -67223.589    1.8918427    648.76317   0.20392452 
  189200   -902.92876    44.181229   -858.74753    1582.4114   -66517.371    1.8918427    668.20321   0.21055959 
  189300   -907.74864    42.858129   -864.89051    1535.0227   -70247.247    1.8918427    664.64704   0.18092203 
  189400   -906.42923    44.996268   -861.43297    1611.6031   -72159.623    1.8918427    674.14195    0.1875723 
  189500   -905.73769    47.729832   -858.00786    1709.5095   -67775.217    1.8918427      583.054   0.19977323 
  189600   -909.41295     43.11889   -866.29406    1544.3623   -73218.882    1.8918427    588.20639   0.19139169 
  189700   -903.94638    43.858986    -860.0874    1570.8698   -69762.565    1.8918427    582.25053   0.18295498 
  189800   -905.48881    44.726649   -860.76216    1601.9463   -68679.511    1.8918427    551.88258    0.1854692 
  189900   -906.57661    39.521061   -867.05555    1415.5011   -72515.233    1.8918427    518.46764   0.18950333 
  190000   -908.45484    49.052805   -859.40203    1756.8936    -71577.04    1.8918427    545.60556   0.19295139 
  190100   -912.32249    48.437025   -863.88547    1734.8386   -75273.014    1.8918427    519.63693    0.1773487 
  190200   -911.95802     44.22196   -867.73606    1583.8702   -76301.379    1.8918427    516.65826    0.1516078 
  190300   -907.43629    46.393089   -861.04321    1661.6322   -71820.719    1.8918427    531.61518   0.18221868 
  190400   -908.37099    45.662329   -862.70867     1635.459   -72666.439    1.8918427    525.46865   0.20268724 
  190500   -908.71803    40.804124    -867.9139    1461.4558   -72063.032    1.8918427    520.60694   0.16748249 
  190600   -909.14131    45.431848   -863.70947     1627.204   -73114.167    1.8918427     528.6004    0.1690551 
  190700   -910.40283    46.961842   -863.44099    1682.0029    -73923.03    1.8918427    515.32376   0.16724472 
  190800     -909.805    42.257677   -867.54732    1513.5167   -75734.764    1.8918427    517.84398   0.17965658 
  190900   -907.41146     43.91956    -863.4919    1573.0394   -72170.645    1.8918427    531.53846   0.18445785 
  191000   -907.34826    47.106572   -860.24169    1687.1866   -70564.413    1.8918427     533.4838   0.17528708 
  191100    -910.4356    42.574101    -867.8615    1524.8499   -74652.435    1.8918427     556.7904   0.17869257 
  191200   -913.76445    38.188782   -875.57567    1367.7837   -79979.616    1.8918427    569.18132   0.18689274 
  191300   -906.67047    40.985664   -865.68481    1467.9579   -72133.431    1.8918427    532.79976   0.21815932 
  191400    -904.7897     45.06748   -859.72222    1614.1537   -66597.209    1.8918427     501.1407   0.18469311 
  191500   -911.76289    44.352437   -867.41045    1588.5434   -74622.396    1.8918427    511.96383   0.17171161 
  191600   -907.29375    41.851675   -865.44207    1498.9752   -74465.269    1.8918427    501.96731   0.19067341 
  191700   -907.81353    44.584095   -863.22943    1596.8406   -70180.633    1.8918427    531.38427   0.19471846 
  191800   -907.91582    44.157039   -863.75878     1581.545   -69725.197    1.8918427    523.00712   0.18579915 
  191900   -911.29971    43.067894   -868.23182    1542.5358   -75604.124    1.8918427    513.25755   0.16124807 
  192000   -908.14954    47.980086   -860.16945    1718.4727   -71229.966    1.8918427    518.67329   0.17796303 
  192100   -906.86178    44.183606   -862.67817    1582.4965   -70339.219    1.8918427    522.11109    0.1782243 
  192200   -911.03386    45.692736   -865.34112    1636.5481   -72928.738    1.8918427    521.33822   0.18175665 
  192300   -904.85695     42.29474   -862.56221    1514.8442   -66866.481    1.8918427    529.58964   0.18278837 
  192400   -906.98265    49.132686   -857.84997    1759.7546   -70657.812    1.8918427    523.09826   0.19142926 
  192500   -911.91244    46.553582   -865.35886    1667.3805   -76033.793    1.8918427    513.24931   0.17646077 
  192600    -910.2709    45.139294    -865.1316    1616.7258   -72693.944    1.8918427    534.09688   0.18922459 
  192700    -905.2177    48.669834   -856.54787     1743.177   -68622.884    1.8918427    528.55355   0.18773854 
  192800   -911.11752    43.544931   -867.57259    1559.6215   -74186.311    1.8918427    530.01297   0.14745631 
  192900   -906.46054    44.419684   -862.04086     1590.952   -72278.277    1.8918427    520.98547    0.1768854 
  193000   -908.38835    47.207308   -861.18104    1690.7946   -70678.303    1.8918427    530.74926   0.19217215 
  193100    -911.8074    43.422448   -868.38495    1555.2346   -76435.442    1.8918427    510.13874   0.16908588 
  193200   -908.74749    46.100519   -862.64697    1651.1534   -74078.671    1.8918427    524.73654   0.17353803 
  193300   -909.34471      46.6544   -862.69031    1670.9914   -72937.105    1.8918427    511.50428   0.18353321 
  193400   -911.57397    40.006048   -871.56792    1432.8716   -76259.028    1.8918427    525.64932   0.17334438 
  193500   -909.30517    43.414645   -865.89053    1554.9551   -74562.814    1.8918427    519.10439   0.19545172 
  193600   -909.98748    48.250798   -861.73669    1728.1686   -74062.607    1.8918427     517.4546   0.18909021 
  193700   -910.62872     43.51596   -867.11276    1558.5839   -74958.832    1.8918427    526.88684   0.15773886 
  193800   -907.63665      41.3342   -866.30245    1480.4412   -73822.095    1.8918427    521.93924   0.18213807 
  193900   -904.16628    42.290849   -861.87543    1514.7049   -69228.211    1.8918427    527.97157   0.21319181 
  194000   -906.98444    40.542264   -866.44217    1452.0769   -70736.848    1.8918427    514.42214   0.19097092 
  194100   -911.23582    40.659665   -870.57615    1456.2817   -75488.018    1.8918427    523.12911   0.17562084 
  194200   -907.50245    46.489943   -861.01251    1665.1012    -70236.51    1.8918427     534.6132    0.1744969 
  194300   -909.71129      45.0578   -864.65349     1613.807   -74102.456    1.8918427     523.6095   0.16774618 
  194400   -908.66464    39.902581   -868.76205    1429.1658   -73158.944    1.8918427    522.80998   0.17557098 
  194500   -904.47711    44.589494   -859.88761     1597.034   -67087.082    1.8918427    457.12736    0.2079103 
  194600   -909.71428    43.785432   -865.92885    1568.2354   -72477.231    1.8918427    442.20301   0.19337981 
  194700     -908.418    44.272981   -864.14502    1585.6976   -72112.521    1.8918427    409.64525   0.19628959 
  194800    -908.0576    49.491707    -858.5659    1772.6135   -70773.086    1.8918427    459.28056   0.21476958 
  194900   -909.13502    43.374099   -865.76093    1553.5029   -74611.284    1.8918427    420.23398   0.21912311 
  195000   -909.25783    46.677242   -862.58059    1671.8095   -71399.366    1.8918427    432.60949   0.17290605 
  195100   -907.43449    45.739335   -861.69515    1638.2171    -71734.29    1.8918427    433.49499   0.19160765 
  195200   -907.32377    39.400875   -867.92289    1411.1964    -72739.68    1.8918427    423.25229   0.20262398 
  195300   -903.29156    43.132703   -860.15885     1544.857   -68061.205    1.8918427    464.84359   0.21067008 
  195400   -907.47802    45.385677   -862.09235    1625.5504   -72443.659    1.8918427    433.16125   0.19822068 
  195500   -911.19148    44.004446   -867.18704    1576.0797   -75219.308    1.8918427    436.03578   0.18377044 
  195600   -905.44942    44.300795   -861.14863    1586.6938   -67494.109    1.8918427    442.63253    0.2064663 
  195700   -908.44006    46.451293   -861.98877    1663.7169   -72849.271    1.8918427    456.52687   0.23327743 
  195800   -910.78624    43.662844   -867.12339    1563.8447   -73708.289    1.8918427    413.98588   0.20463984 
  195900    -907.6108     46.21141   -861.39939    1655.1251   -72241.871    1.8918427    425.46497   0.18761286 
  196000   -906.06881      42.5556   -863.51321    1524.1873   -70902.458    1.8918427    405.59708   0.18453313 
  196100   -909.22492    42.311474   -866.91344    1515.4436   -72448.291    1.8918427    429.57829   0.17858451 
  196200   -910.64718     44.88403   -865.76315    1607.5832   -73954.697    1.8918427    341.81897   0.18221164 
  196300   -904.12761    44.087208    -860.0404    1579.0439   -70297.697    1.8918427    340.75732   0.21485907 
  196400   -909.32461    41.368934   -867.95567    1481.6852   -72285.305    1.8918427    374.17811   0.18494428 
  196500   -909.79521    42.082801   -867.71241    1507.2533   -74215.591    1.8918427    353.06765   0.18565361 
  196600   -906.98753    45.606922   -861.38061    1633.4746   -69526.585    1.8918427    362.87049   0.18520555 
  196700   -906.17185    43.748525   -862.42332    1566.9135   -69751.438    1.8918427     395.0945   0.18890806 
  196800   -911.26541     42.77249   -868.49292    1531.9555   -72027.926    1.8918427    385.32922   0.17473955 
  196900   -910.06643    48.783575   -861.28286    1747.2507    -71420.99    1.8918427    389.27914   0.20398012 
  197000   -908.15948    44.970118   -863.18936    1610.6666   -71125.862    1.8918427    433.45686   0.20974825 
  197100   -910.29143    39.903325    -870.3881    1429.1924   -72403.667    1.8918427     432.8798   0.23046248 
  197200   -910.08961    47.046423   -863.04318    1685.0322   -74946.751    1.8918427    417.72287   0.20363643 
  197300   -908.08333    45.783447   -862.29988     1639.797   -73888.421    1.8918427    360.67287    0.1764148 
  197400   -914.40216    45.988725   -868.41344    1647.1494   -78314.277    1.8918427    365.85587   0.17743986 
  197500   -908.95858    45.090977   -863.86761    1614.9953   -70636.649    1.8918427    366.63846   0.16774746 
  197600   -907.19222    46.098302   -861.09392     1651.074   -71094.772    1.8918427    363.68291   0.17364781 
  197700   -910.56531    42.212504    -868.3528    1511.8988    -75193.04    1.8918427    364.24745   0.17538569 
  197800   -901.61503    41.993516   -859.62151    1504.0555   -63932.182    1.8918427     360.8975   0.19508354 
  197900   -907.81065    44.874208   -862.93644    1607.2314   -73839.686    1.8918427    357.89957   0.22549064 
  198000    -909.4113     43.55671   -865.85459    1560.0434   -76033.356    1.8918427    358.93445   0.22917066 
  198100   -904.98263    48.889348   -856.09328    1751.0392   -71493.084    1.8918427    325.75356   0.21064339 
  198200   -907.86505     44.34107   -863.52398    1588.1363   -74226.367    1.8918427    361.58906   0.22336671 
  198300   -908.10059    44.989741   -863.11085    1611.3694   -74812.668    1.8918427    387.07251   0.19822594 
  198400   -908.60762    55.794616     -852.813    1998.3608   -72010.385    1.8918427    361.37626   0.21352384 
  198500   -906.96124    45.004445   -861.95679     1611.896   -70952.796    1.8918427    353.59963    0.2103626 
  198600   -910.28338    45.387175    -864.8962     1625.604   -74875.053    1.8918427    357.86409   0.20744732 
  198700   -906.43388    47.701793   -858.73209    1708.5052   -69200.159    1.8918427    359.40239   0.21768877 
  198800   -908.83227    46.914387   -861.91788    1680.3032   -73339.566    1.8918427    347.64635   0.20699418 
  198900   -911.25419    45.901035   -865.35315    1644.0086   -76483.464    1.8918427    352.27127   0.22224696 
  199000   -905.25206    46.468466   -858.78359    1664.3319   -73288.096    1.8918427    358.41721   0.23321384 
  199100   -907.88566    46.413651   -861.47201    1662.3687     -72893.9    1.8918427    340.26952   0.20889568 
  199200   -908.77503     42.71868   -866.05635    1530.0282   -73201.125    1.8918427    326.25405   0.20092205 
  199300     -904.214    46.005567   -858.20844    1647.7526   -69058.736    1.8918427    318.27632   0.18705562 
  199400   -912.14768    45.041546   -867.10614    1613.2248   -75584.744    1.8918427    285.93778   0.18308681 
  199500   -906.52779    42.484066   -864.04372    1521.6252   -70452.914    1.8918427      312.452    0.1884514 
  199600   -905.61297    45.872548   -859.74042    1642.9883   -68109.672    1.8918427    290.55076   0.19938508 
  199700   -909.98353    40.918879   -869.06465    1465.5659    -74254.58    1.8918427    286.91313   0.18866486 
  199800   -909.01105    44.681868   -864.32918    1600.3425   -71905.574    1.8918427    280.38218   0.18938744 
  199900   -904.86178    43.298398   -861.56338    1550.7916   -68597.881    1.8918427    304.88815   0.19869105 
  200000   -912.27592    43.381311    -868.8946    1553.7612   -76777.023    1.8918427    319.93363   0.15863317 
  200100   -910.55506     44.47827   -866.07679    1593.0503   -73615.104    1.8918427    415.02253   0.16775851 
  200200    -908.5138    46.152144   -862.36166    1653.0024   -72151.473    1.8918427    435.84955   0.19627929 
  200300   -911.47213    46.784178   -864.68795    1675.6396   -74214.138    1.8918427    441.49138   0.17963315 
  200400   -910.72329    42.896466   -867.82682    1536.3958   -74479.443    1.8918427    427.56228   0.18714115 
  200500   -907.45714    47.510884   -859.94626    1701.6676   -72586.185    1.8918427    431.01307   0.17378603 
  200600   -909.00419    44.226817   -864.77737    1584.0442   -72909.476    1.8918427    433.76156   0.19329657 
  200700   -907.50207    45.202795   -862.29927    1619.0002    -73424.23    1.8918427    432.14588   0.18939111 
  200800   -905.75928    46.632164   -859.12712     1670.195    -70412.17    1.8918427    412.85261   0.17626639 
  200900   -909.59019    43.760701   -865.82949    1567.3496   -72818.034    1.8918427    389.31454   0.18103525 
  201000   -904.24339    46.790192    -857.4532     1675.855   -69727.385    1.8918427    329.58306   0.22081362 
  201100   -901.49267      42.7701   -858.72257    1531.8699   -68675.757    1.8918427    351.70083   0.24480247 
  201200   -906.93518    42.758836   -864.17634    1531.4664   -71558.555    1.8918427    367.35669   0.23257995 
  201300   -906.77327    42.989043   -863.78423    1539.7116   -72587.766    1.8918427    339.38894   0.20210626 
  201400   -903.65062    45.957216    -857.6934    1646.0208   -71855.749    1.8918427    334.21557   0.22556105 
  201500     -905.613     40.61773   -864.99527    1454.7798    -71475.28    1.8918427    328.29086   0.21953697 
  201600    -909.3275    46.353184   -862.97432     1660.203   -72921.373    1.8918427    346.15791   0.21619556 
  201700   -901.12982    47.108887   -854.02093    1687.2695    -64025.14    1.8918427    365.12514   0.19903953 
  201800   -905.13533    43.260246   -861.87509    1549.4251   -70668.162    1.8918427    354.73007   0.22799318 
  201900    -906.5262    42.603037   -863.92316    1525.8863   -70114.393    1.8918427    340.07191   0.20429197 
  202000   -908.24987    50.803213   -857.44666    1819.5869    -71825.69    1.8918427    350.36005   0.21672602 
  202100   -907.23093    43.904588   -863.32634    1572.5031   -74260.301    1.8918427    302.44503   0.19099259 
  202200   -908.68419      44.5644   -864.11979    1596.1352   -72848.454    1.8918427    286.62416   0.18017227 
  202300   -906.24059    48.961504   -857.27908    1753.6235    -71680.88    1.8918427     359.0207     0.223466 
  202400   -907.80389    42.294977   -865.50891    1514.8527   -71975.942    1.8918427    364.83563   0.21457373 
  202500   -909.20092    45.564685   -863.63623    1631.9618   -75077.998    1.8918427    294.34278   0.21001644 
  202600   -905.52146    46.250406   -859.27105    1656.5218   -69441.797    1.8918427    303.86835   0.21498437 
  202700   -909.95255    40.730086   -869.22247     1458.804   -77057.359    1.8918427    300.88772   0.21110467 
  202800   -910.12831    44.351935   -865.77638    1588.5255   -77013.338    1.8918427    343.67941   0.21658655 
  202900   -905.98895    46.087009   -859.90195    1650.6695   -73966.872    1.8918427    345.22623   0.23578833 
  203000   -909.61501    42.613606    -867.0014    1526.2648   -74780.128    1.8918427    342.74403   0.20537968 
  203100   -907.08485    41.200898   -865.88395    1475.6667   -73376.604    1.8918427    365.35665   0.20446857 
  203200   -906.32347    44.198271    -862.1252    1583.0218   -72989.971    1.8918427    404.56248   0.22046003 
Loop time of 117.703 on 1 procs for 200000 steps with 217 atoms

Performance: 440.431 ns/day, 0.054 hours/ns, 1699.194 timesteps/s
100.0% CPU use with 1 MPI tasks x no OpenMP threads

MPI task timing breakdown:
Section |  min time  |  avg time  |  max time  |%varavg| %total
---------------------------------------------------------------
Pair    | 110.81     | 110.81     | 110.81     |   0.0 | 94.14
Neigh   | 4.5911     | 4.5911     | 4.5911     |   0.0 |  3.90
Comm    | 1.0384     | 1.0384     | 1.0384     |   0.0 |  0.88
Output  | 0.074201   | 0.074201   | 0.074201   |   0.0 |  0.06
Modify  | 0.91492    | 0.91492    | 0.91492    |   0.0 |  0.78
Other   |            | 0.2734     |            |       |  0.23

Nlocal:    217 ave 217 max 217 min
Histogram: 1 0 0 0 0 0 0 0 0 0
Nghost:    884 ave 884 max 884 min
Histogram: 1 0 0 0 0 0 0 0 0 0
Neighs:    3605 ave 3605 max 3605 min
Histogram: 1 0 0 0 0 0 0 0 0 0
FullNghs:  7210 ave 7210 max 7210 min
Histogram: 1 0 0 0 0 0 0 0 0 0

Total # of neighbors = 7210
Ave neighs/atom = 33.2258
Neighbor list builds = 8060
Dangerous builds = 175
Total wall time: 0:01:59
