LAMMPS (3 Mar 2020)

    # ---------- Initialize simulation ---------------------
    units metal
    atom_style atomic
    dimension  3
    boundary   p p p
    read_data /home/modeler/RemLabs/Lab4/ProblemEC1_v6_size_3/temp_1300/lammps.data
  orthogonal box = (0 0 0) to (12.27 12.27 12.27)
  1 by 1 by 1 MPI processor grid
  reading atoms ...
  108 atoms
  read_data CPU = 0.000924691 secs

    pair_style eam
    pair_coeff * * /usr/share/lammps-stable/potentials/Ag_u3.eam
Reading potential file /usr/share/lammps-stable/potentials/Ag_u3.eam with DATE: 2007-06-11

    velocity  all create 1300 87287 dist gaussian

    # ---------- Describe computed properties------------------
    compute msdall all msd
    thermo_style custom step pe ke etotal temp press density c_msdall[4]
    thermo 100

    # ---------- Specify ensemble  ---------------------
    #fix  1 all nve
    #fix  1 all nvt temp 1300 1300 0.25
    fix 1 all npt temp 1300 1300 0.25 tchain 2 iso 1.0 1.0 1.0 pchain 2

    # --------- Compute RDF ---------------
    compute rdfall all rdf 100 1 1
    fix 2 all ave/time 1 125000 125000 c_rdfall[*] file /home/modeler/RemLabs/Lab4/ProblemEC1_v6_size_3/temp_1300/lammps.rdf mode vector

    # --------- Run -------------
    timestep 0.005
    run 500000
Neighbor list info ...
  update every 1 steps, delay 10 steps, check yes
  max neighbors/atom: 2000, page size: 100000
  master list distance cutoff = 7.55
  ghost atom cutoff = 7.55
  binsize = 3.775, bins = 4 4 4
  2 neighbor lists, perpetual/occasional/extra = 1 1 0
  (1) pair eam, perpetual
      attributes: half, newton on
      pair build: half/bin/atomonly/newton
      stencil: half/bin/3d/newton
      bin: standard
  (2) compute rdf, occasional, copy from (1)
      attributes: half, newton on
      pair build: copy
      stencil: none
      bin: none
Per MPI rank memory allocation (min/avg/max) = 3.723 | 3.723 | 3.723 Mbytes
Step PotEng KinEng TotEng Temp Press Density c_msdall[4] 
       0       -307.8    17.980086   -289.81991         1300    10396.203    10.472245            0 
     100   -295.52032    8.2064461   -287.31388     593.3442     2560.534    10.000956  0.074222422 
     200   -294.15317    9.4298459   -284.72333    681.79872   -8473.3412     9.820226  0.097074316 
     300   -293.40829    10.906145   -282.50214    788.53842    4885.4518    9.9116801  0.094380983 
     400   -294.27207    14.125544   -280.14653    1021.3081    1447.1154    9.8959338   0.09624118 
     500   -292.28198    14.444195   -277.83779    1044.3472   -8602.6809    9.7103616   0.11480187 
     600   -291.17431    15.513949   -275.66037    1121.6929   -1841.1217    9.7194477   0.12500323 
     700    -288.4399    15.133068   -273.30684    1094.1543    9180.7464    9.7431293    0.1855307 
     800   -286.73271    15.566103   -271.16661    1125.4637    508.21439    9.5395814   0.18775099 
     900   -284.90141    16.215345   -268.68606    1172.4053   -1325.9329     9.465616    0.2600848 
    1000   -284.55099    17.489023   -267.06197    1264.4951   -8871.5099    9.3756474   0.22954529 
    1100   -282.58361    17.189753   -265.39386    1242.8572   -8020.2541     9.299774   0.23882969 
    1200   -280.73501    18.936078   -261.79893    1369.1203    1518.6424    9.3179501   0.24577837 
    1300   -284.50701    17.025391   -267.48162    1230.9735    8073.5249    9.5737295   0.20553216 
    1400   -285.95356    18.763487   -267.19007    1356.6416    3136.6114    9.5462887   0.18035277 
    1500   -281.48427    15.367421   -266.11685    1111.0985    2755.8788    9.3777798   0.21736871 
    1600   -279.31563    18.130299   -261.18533    1310.8607   -9250.9947    9.1159669   0.32068827 
    1700   -280.18218    17.934862   -262.24732    1296.7302   -8943.8117    9.1961864   0.36883788 
    1800   -282.62083    17.671987   -264.94885    1277.7237   -7540.5879    9.3073589    0.2842193 
    1900   -283.90971    16.208634   -267.70107    1171.9201    11386.781    9.5583923   0.22645856 
    2000   -284.88894    16.495354   -268.39358    1192.6506     20389.44    9.7254157   0.20640046 
    2100   -281.83855    19.153704   -262.68485    1384.8552   -15106.987    9.1911636   0.29885862 
    2200   -281.48973    16.434591   -265.05514    1188.2573   -3549.7658    9.2935761   0.30347376 
    2300   -283.45383    16.233299   -267.22054    1173.7034    1435.2287    9.4602294   0.21456998 
    2400   -286.70879     17.11324   -269.59555    1237.3251   -12967.528    9.4328404   0.19508042 
    2500   -288.55429    16.397043   -272.15725    1185.5425    6983.3947    9.7423541   0.17284449 
    2600   -287.52509     20.02439    -267.5007    1447.8077   -82.221378    9.5691968   0.22955442 
    2700   -284.30258    18.285625   -266.01695    1322.0911   -2.2683023    9.4281029   0.26555284 
    2800   -282.08146    19.078464     -263.003    1379.4151   -173.18416    9.3108466   0.31088052 
    2900   -281.46946    17.861683   -263.60778    1291.4392   -8504.6317    9.2232584   0.27765789 
    3000   -284.10393    16.990638   -267.11329    1228.4607   -18383.793    9.2415206   0.22066056 
    3100   -284.23079    16.924876   -267.30591     1223.706    11888.086    9.5629563   0.23201495 
    3200   -284.39906    20.478132   -263.92093    1480.6142   -2997.6031    9.3993292   0.25772328 
    3300   -280.80134    19.384494   -261.41685    1401.5418   -14319.804    9.1190555   0.41467873 
    3400   -285.63763    18.232031   -267.40559    1318.2162    5710.2115    9.5686913   0.21969337 
    3500   -284.21333    16.451549   -267.76178    1189.4834    13267.978    9.6178159   0.21865839 
    3600   -286.01484     20.13836   -265.87648     1456.048   -14022.915    9.3617849   0.21099253 
    3700   -281.12615    18.531487   -262.59467    1339.8675   -7294.8197    9.2461642   0.29279205 
    3800   -281.31218    18.198464   -263.11372    1315.7892    -7268.118    9.2248778   0.29554837 
    3900   -285.78163    18.831616   -266.95002    1361.5675    5273.3428    9.5637588   0.17806029 
    4000   -285.47948    17.791359   -267.68812    1286.3546    15422.884    9.6860127   0.18221983 
    4100   -283.83119    20.079544   -263.75165    1451.7954    5540.7862    9.4823323   0.20691011 
    4200   -285.24595    17.890183   -267.35576    1293.4998   -5449.0198    9.4361904    0.2206012 
    4300    -285.8631    16.710836   -269.15226    1208.2304   -3810.9853    9.4990174   0.17641975 
    4400   -285.02961    18.789683   -266.23992    1358.5357    9082.8148    9.5799599   0.17518813 
    4500   -284.14834    21.989135    -262.1592    1589.8631   -3986.3087     9.383798   0.23214041 
    4600   -282.18434    17.354253   -264.83008    1254.7509     1654.332    9.3751791   0.30112565 
    4700   -284.94069    16.814244   -268.12645    1215.7071   -11224.689    9.3590797   0.22032217 
    4800   -284.82082    17.086281   -267.73454    1235.3759     1605.656    9.5026135   0.22286647 
    4900   -280.56848      18.5977   -261.97078    1344.6549    20909.315    9.5441838   0.27130946 
    5000    -285.3505    20.563797   -264.78671     1486.808    11696.999     9.585795   0.20942226 
    5100   -286.29029    18.619661   -267.67063    1346.2427   -1849.6295    9.5046655   0.16624569 
    5200   -284.78625    17.976929   -266.80933    1299.7717    3402.9898    9.5098983    0.2007515 
    5300    -282.2187    20.762464   -261.45623    1501.1721    221.04511    9.3760384   0.23100072 
    5400   -286.08209    19.726383   -266.35571    1426.2611   -4999.3923    9.4587803   0.21886376 
    5500   -284.79684     17.70719   -267.08965     1280.269    2133.1839    9.4938793   0.19775493 
    5600   -286.39683    19.873301   -266.52353    1436.8836    7268.9807    9.6101057   0.20182285 
    5700   -282.13492    20.698126   -261.43679    1496.5203    13621.254    9.4904157    0.2064399 
    5800   -286.45554    19.884025   -266.57152     1437.659    1732.1931     9.541736   0.18846704 
    5900   -284.86434    17.628618   -267.23572    1274.5881   -2333.2499    9.4500131   0.21420253 
    6000   -282.53466    16.764781   -265.76987    1212.1307   -15872.975    9.2037324   0.27033806 
    6100   -287.53779    16.975231   -270.56256    1227.3468   -11899.223    9.4690993   0.20981206 
    6200   -286.93342    17.469007   -269.46442    1263.0478    4371.2263    9.5990935   0.17595369 
    6300   -284.82448    18.768531   -266.05594    1357.0063    1881.1477    9.5068127   0.19701355 
    6400   -285.16154    19.667344   -265.49419    1421.9925    360.98024    9.4753689   0.23751465 
    6500   -287.81198    16.928779    -270.8832    1223.9882    -5078.056    9.5426596   0.17572669 
    6600   -285.72179    16.209241   -269.51255     1171.964    10061.651    9.6415726   0.19544673 
    6700   -285.50333    19.929319   -265.57401    1440.9339   -4698.4517    9.4412034    0.1907769 
    6800   -284.57716    18.521367    -266.0558    1339.1358    9967.8389    9.5577826   0.24975175 
    6900   -284.75669     19.27839    -265.4783    1393.8703   -1573.2493    9.4615007   0.20453647 
    7000   -281.15883    20.521515   -260.63731    1483.7509   -7152.9228    9.2067237   0.26631433 
    7100   -281.09828    19.431029   -261.66725    1404.9064     749.8232    9.3152041    0.2791425 
    7200   -285.99724    21.807939    -264.1893    1576.7623   -3860.2359    9.4581691   0.17406544 
    7300   -286.10923    19.576747   -266.53249    1415.4421    19885.393    9.7265246   0.15843107 
    7400   -285.90065    17.781088   -268.11956     1285.612    11203.741    9.6452308   0.17522236 
    7500   -282.75593    18.152008   -264.60392    1312.4304   -4536.6433     9.331439   0.24334161 
    7600   -282.71669    20.076573   -262.64012    1451.5806   -11547.795    9.2285856   0.30476588 
    7700   -284.91638      17.0537   -267.86268    1233.0202    1059.7596    9.4970661   0.20453649 
    7800   -284.55747    16.995179   -267.56229     1228.789   -40.237409    9.4761564   0.24530157 
    7900   -282.57228    18.586568   -263.98571      1343.85   -5272.3223    9.3161448   0.28779499 
    8000   -283.24603    18.225358   -265.02067    1317.7337    9170.4116    9.4919075   0.24407878 
    8100   -285.22208    17.217647   -268.00443     1244.874    -1183.853    9.4772971   0.19805721 
    8200   -285.40453    18.852899   -266.55163    1363.1063    847.86323    9.5059023   0.18130516 
    8300   -280.87933    18.691622   -262.18771    1351.4457     16176.19    9.4712432   0.25245213 
    8400   -286.50653    18.785852   -267.72068    1358.2587    4916.8638    9.5972742   0.19787583 
    8500   -285.50583    18.395482   -267.11035    1330.0341    4472.1364    9.5543508   0.18886915 
    8600   -285.62552     19.34172    -266.2838    1398.4491   -8173.3584    9.4186497   0.19712952 
    8700   -287.13128    18.922889    -268.2084    1368.1667    1709.4368    9.5830561   0.17720766 
    8800   -288.77634    17.432206   -271.34414    1260.3871     11225.82    9.7583433   0.15091583 
    8900   -286.98919    19.254773   -267.73442    1392.1627   -7005.2096    9.4687196    0.1990255 
    9000   -283.16653     18.04843    -265.1181    1304.9414   -650.83202    9.3960989   0.21522164 
    9100   -285.77426    17.100583   -268.67367      1236.41   -2133.8716    9.4907685   0.19042298 
    9200   -287.25598    16.831634   -270.42435    1216.9644   -3057.4736    9.5410545   0.19654383 
    9300   -282.48111     17.56369   -264.91742    1269.8937    4057.6887    9.4115701   0.26263617 
    9400   -284.07699    17.721712   -266.35528     1281.319    8480.4036     9.532843   0.23316902 
    9500    -286.8882    18.106727   -268.78147    1309.1564   -5014.9682    9.5056923   0.19559937 
    9600   -285.71819    16.076759   -269.64143    1162.3853   -1275.3128    9.5033876   0.22700086 
    9700   -284.25398       20.163   -264.09098    1457.8295   -1581.7158    9.4053522   0.24415258 
    9800   -284.73212    17.771941   -266.96018    1284.9506    9319.3123    9.5731259   0.22083105 
    9900   -287.60897    19.649468    -267.9595       1420.7   -8861.6134      9.48423   0.20023736 
   10000   -285.20824    17.990935    -267.2173    1300.7844    -1834.779    9.4463097   0.22107199 
   10100   -280.27874     18.50595   -261.77279    1338.0211    441.94781    9.2591152   0.28152179 
   10200   -281.29404    16.028506   -265.26554    1158.8965   -1848.9665    9.3208249   0.26782668 
   10300   -283.84238    17.254151   -266.58823    1247.5133    11577.386    9.5552917   0.25801314 
   10400   -284.96117    17.342003   -267.61916    1253.8652    4649.7634    9.5213472   0.18277965 
   10500   -286.33333    14.135336   -272.19799    1022.0161   -1194.9164    9.5403373   0.20024289 
   10600   -282.49511    14.582983   -267.91213    1054.3819   -12204.669    9.2628447   0.25364292 
   10700   -285.23062     19.01676   -266.21386    1374.9538    -8159.002    9.4128441   0.21410116 
   10800   -286.42795    18.302995   -268.12495     1323.347    7862.9599    9.6347863   0.18546087 
   10900   -289.49987     17.42015   -272.07972    1259.5154    3257.2112    9.7215968   0.13080948 
   11000   -285.69507    16.844992   -268.85008    1217.9302    -500.9292    9.5070413   0.17805003 
   11100   -285.41808    18.510623   -266.90746     1338.359    610.64253    9.4740835   0.19142348 
   11200   -283.72431    16.908926   -266.81539    1222.5527     3142.208    9.4408003   0.22258521 
   11300   -284.60895    16.581507   -268.02744    1198.8796   -14773.432    9.3095326   0.24447169 
   11400   -288.88414    16.034201   -272.84994    1159.3082   -2236.9359    9.6213476   0.15380445 
   11500   -286.14032    17.924348   -268.21597      1295.97   -4294.1362     9.465862   0.19880863 
   11600   -283.47972    16.291248   -267.18847    1177.8932    2841.6967    9.4448888   0.22582765 
   11700   -280.85877    14.901536   -265.95724     1077.414    11773.726    9.4371918    0.2537492 
   11800   -280.79306     18.21097   -262.58209    1316.6934   -14169.295    9.1482221   0.29968634 
   11900   -277.89423     16.94744   -260.94679    1225.3374   -3855.8556    9.1369663   0.38477269 
   12000   -285.58625    19.846173   -265.74007    1434.9222   -3806.8456    9.4792066   0.24009617 
   12100   -286.20374     20.61603   -265.58771    1490.5846   -4098.3946     9.462136   0.19255908 
   12200   -284.95072    17.091452   -267.85927    1235.7498   -604.76992    9.4883548   0.22906632 
   12300    -286.7595    15.467168   -271.29233    1118.3104    1589.8537    9.5782897   0.19070791 
   12400   -285.83031    17.886922   -267.94339     1293.264    -16217.24     9.358637   0.20427847 
   12500   -284.48119     18.82047   -265.66072    1360.7616   -5270.7882    9.4009956   0.22316947 
   12600   -283.93335    17.066256   -266.86709     1233.928    11685.905    9.5725482   0.19049305 
   12700   -286.79771    16.189429   -270.60828    1170.5315    3854.7185    9.6147166   0.16949837 
   12800   -283.88405    17.192606   -266.69145    1243.0634    2589.3977    9.4503424   0.26471705 
   12900    -283.2694    17.592351   -265.67704    1271.9659   -5076.5385    9.3586551   0.24411778 
   13000   -284.51432    17.074157   -267.44016    1234.4993   -367.66869    9.4740155   0.23153214 
   13100   -285.15809     16.71546   -268.44262    1208.5648    16221.634    9.6602528   0.17514722 
   13200   -290.18517    16.968633   -273.21654    1226.8697   -1094.6584    9.6972103   0.14746119 
   13300   -285.41959    16.407294    -269.0123    1186.2837   -1106.8878    9.4953242   0.23406829 
   13400   -283.10802    15.644425    -267.4636    1131.1266   -14343.908    9.2362927    0.2889872 
   13500   -281.39741    15.543504   -265.85391    1123.8298   -16203.108    9.1292352   0.30195792 
   13600   -281.75015    19.115991   -262.63416    1382.1284    1894.9544    9.3717481   0.27176896 
   13700   -287.19327    20.282507   -266.91076    1466.4701     4375.205    9.5848784   0.16621039 
   13800   -286.08902    17.468037   -268.62098    1262.9777    4858.0788     9.591607   0.20863158 
   13900   -282.78036    18.374356   -264.40601    1328.5066   -4379.2545    9.3199025   0.23151806 
   14000   -282.43247    17.261685   -265.17078     1248.058   -1541.1267    9.3529021   0.25018111 
   14100   -284.31059    15.781125   -268.52947    1141.0102   -6137.6605    9.4041128   0.20882845 
   14200   -283.37066    17.561549   -265.80911    1269.7389   -2385.0269    9.3913234   0.23346763 
   14300    -281.8778    19.850851   -262.02695    1435.2604     1222.443    9.3782612    0.2626701 
   14400   -284.63657    17.489252   -267.14732    1264.5116    4834.4042    9.5438871   0.22588731 
   14500   -284.42683    17.171341   -267.25549     1241.526    5834.1007     9.534132    0.2219374 
   14600   -282.79867    18.538273   -264.26039    1340.3581   -8092.8959    9.3155566   0.26227677 
   14700   -278.71299    17.782734   -260.93026     1285.731    6828.1325    9.2854822   0.40030738 
   14800   -282.91164    18.503334   -264.40831    1337.8319   -4782.2456    9.3329391   0.27429843 
   14900   -283.93121    15.391614   -268.53959    1112.8477   -5122.4778    9.3946301    0.2132812 
   15000   -284.07102    17.027171   -267.04385    1231.1021    7418.8542    9.5339861   0.20836163 
   15100   -283.83299    22.470622   -261.36237    1624.6757    2322.8514    9.4275886   0.22811447 
   15200   -284.94464    19.533803   -265.41084    1412.3372    8873.8273    9.5786366    0.2064798 
   15300   -285.33891    18.067501   -267.27141    1306.3203    6569.0264    9.5905541   0.20844192 
   15400   -283.53365    19.470388   -264.06326    1407.7521    8420.7503    9.5105396   0.21565521 
   15500   -282.16704    16.584644    -265.5824    1199.1064    11199.372    9.4757841   0.24946602 
   15600   -286.44208    16.031221   -270.41085    1159.0928   -2728.0195    9.5072266   0.18659089 
   15700   -282.99727    16.477269      -266.52     1191.343   -4464.3913    9.3657886   0.22833626 
   15800   -284.65423    18.798193   -265.85604    1359.1509   -4716.2258    9.4068992   0.18596502 
   15900   -286.63805    16.165329   -270.47272    1168.7891     5310.112    9.6077002   0.17043255 
   16000   -286.43675    18.226206   -268.21055     1317.795    -2127.741    9.5291319   0.19256228 
   16100   -283.76516    18.674692   -265.09047    1350.2216   -3159.5319    9.3972058   0.25224679 
   16200   -283.71662    18.227331   -265.48929    1317.8763    5404.4221    9.4659597   0.22837827 
   16300   -289.22936    18.445911   -270.78344    1333.6802    5803.3362     9.713962   0.15529846 
   16400   -286.80721    17.777182   -269.03003    1285.3296   -4293.9942    9.5087443   0.18355842 
   16500   -283.52979    17.465299   -266.06449    1262.7798   -10545.057    9.2738241   0.26974088 
   16600   -283.07605    19.127295   -263.94876    1382.9457   -16266.249    9.2317964   0.24839662 
   16700   -285.99411    17.507042   -268.48707    1265.7979    14232.271    9.6859645   0.18572782 
   16800    -285.8783    18.582495   -267.29581    1343.5555    16216.709    9.7036668   0.16238028 
   16900   -283.62325    20.914994   -262.70826    1512.2004   -2741.2044    9.3645847   0.21897556 
   17000   -285.19193     19.66713    -265.5248     1421.977   -6478.4169     9.408837   0.25214003 
   17100   -285.31489    17.017825   -268.29707    1230.4264    4343.8892    9.5461336   0.18443781 
   17200   -284.20388    18.085863   -266.11802    1307.6479   -760.10489    9.4384061   0.20342813 
   17300    -281.0797    17.084886   -263.99482    1235.2751    6334.0766    9.3989244   0.25966471 
   17400   -286.99329    19.841432   -267.15186    1434.5794     14564.41    9.7096545     0.158607 
   17500     -289.157    18.944524   -270.21248     1369.731     6157.142    9.7089092   0.13926829 
   17600   -283.10986    17.234785   -265.87507    1246.1131    11504.174    9.5322219   0.23320594 
   17700   -282.44766    17.529375   -264.91829    1267.4126     2830.105    9.4237235   0.22099306 
   17800   -283.59537     16.46229   -267.13308      1190.26   -5817.6717    9.3752345   0.25315338 
   17900   -284.39409    14.647957   -269.74613    1059.0797    -4134.541    9.4293775   0.26372583 
   18000   -285.46228     19.56401   -265.89827    1414.5212   -4299.5902      9.44476   0.20895843 
   18100   -282.94556    18.809996   -264.13556    1360.0043   -2744.7847    9.3631509   0.21899234 
   18200   -285.58344     17.72612   -267.85732    1281.6377    9930.8148     9.608941   0.18335043 
   18300   -288.42897    18.539951   -269.88902    1340.4795   -1795.2085    9.5935357   0.16919367 
   18400   -283.34567     19.00011   -264.34556      1373.75   -9588.4011    9.3021908   0.26298092 
   18500   -284.95123    19.247493   -265.70374    1391.6363   -5046.0819     9.409319   0.20964503 
   18600   -285.44625    18.028766   -267.41748    1303.5197    19770.474    9.7390234   0.16844294 
   18700   -286.04291    19.721558   -266.32135    1425.9122   -1001.2308    9.5039495   0.17533006 
   18800   -282.63097    19.199414   -263.43155    1388.1601   -10449.544    9.2810181   0.24068572 
   18900   -284.72747    17.122598   -267.60488    1238.0017   -6096.4096    9.4047065    0.2033779 
   19000   -286.84788     17.65962   -269.18826    1276.8296   -1217.1132    9.5335081   0.20794925 
   19100   -283.52015    19.502708   -264.01744    1410.0889    -3494.422    9.3576027   0.25005061 
   19200   -284.03265    18.878046   -265.15461    1364.9245   -4058.8237    9.3985181   0.21303539 
   19300   -287.67661    18.802535   -268.87408    1359.4649     10551.07    9.7062717   0.15647089 
   19400   -286.67831    20.268717   -266.40959     1465.473   -670.60651    9.5242775   0.17715187 
   19500   -283.39265    20.053065   -263.33958     1449.881   -1671.0614    9.3694349   0.20433483 
   19600   -284.85006    17.255472   -267.59459    1247.6088     4014.449    9.5070563   0.24914113 
   19700   -284.81459    19.571014   -265.24357    1415.0276     8201.773    9.5757537   0.20909598 
   19800    -284.2233    19.492146   -264.73116    1409.3253    26529.971    9.7340594   0.21604414 
   19900   -286.37371    17.699577   -268.67413    1279.7186    3446.3322    9.5629291   0.21744856 
   20000   -281.94406    16.409131   -265.53493    1186.4164    2728.0826     9.390375   0.22815502 
   20100   -281.36054    17.518899   -263.84164    1266.6551    2349.8741    9.3714405    0.2697857 
   20200   -286.44711    18.297448   -268.14966    1322.9459    5116.0793    9.5905469   0.18606278 
   20300   -284.64899    16.619006   -268.02998    1201.5909    7113.4789    9.5562255   0.22853014 
   20400   -281.92711    18.734931   -263.19218    1354.5769   -5997.7027    9.2793428   0.28462354 
   20500   -284.12186    19.607728   -264.51414    1417.6821    8950.3449    9.5613208   0.21297235 
   20600   -285.83436    17.664659    -268.1697    1277.1939    832.46852     9.536769   0.21905194 
   20700   -283.14492     17.60195   -265.54297    1272.6599   -8505.6858    9.2899915   0.21920871 
   20800   -283.10217    17.417628   -265.68454     1259.333   -13654.454    9.2567598   0.24428738 
   20900   -286.45445    15.732102   -270.72235    1137.4658    9745.5449    9.6665713   0.18223299 
   21000    -284.4902    16.398958   -268.09124    1185.6809    14769.319    9.6573189   0.20679219 
   21100   -283.94812     19.31729   -264.63083    1396.6828   -5690.6451    9.4084281   0.21418732 
   21200     -284.535    15.896229   -268.63877    1149.3325    -2126.416     9.426198   0.22037272 
   21300   -286.67396    17.118713   -269.55525    1237.7208    -6186.409    9.4906389   0.18749555 
   21400   -281.94068    17.818306   -264.12238    1288.3029     13192.16     9.484294   0.27068823 
   21500   -282.75826    17.723487   -265.03478    1281.4473    5548.7366     9.460585    0.2231008 
   21600    -286.1026     18.14808   -267.95452    1312.1463    419.49571    9.5298541   0.19266129 
   21700    -284.0066    17.581883   -266.42472    1271.2091    8702.0186    9.5420756   0.24661475 
   21800   -282.32406    20.631452   -261.69261    1491.6996    -2599.864    9.3152715   0.31117094 
   21900   -284.77794    18.905401   -265.87254    1366.9023     11667.03    9.5846423   0.23647326 
   22000   -287.35011    19.128087   -268.22202     1383.003    6736.9925     9.655886    0.2144747 
   22100   -284.72069    19.642162   -265.07853    1420.1718   -349.73332    9.4739446   0.20955361 
   22200   -284.53211    16.674292   -267.85782    1205.5882   -6848.6622    9.3872967    0.2637643 
   22300   -284.90563    15.553697   -269.35194    1124.5667   -12417.828    9.3691357   0.23612108 
   22400   -281.57838    17.229907   -264.34847    1245.7604   -4561.6906    9.2916236   0.32290294 
   22500   -280.81659    17.127999   -263.68859    1238.3922    13906.563    9.4355199    0.3109469 
   22600   -284.94726    17.782661   -267.16459    1285.7257   -11465.077    9.3660023   0.21102826 
   22700   -288.01013    17.736948   -270.27319    1282.4206   -3170.3501    9.5782747   0.15625942 
   22800   -283.96391    18.984953   -264.97896    1372.6541    4201.3215    9.4670458   0.23212437 
   22900   -283.38945    18.138242   -265.25121     1311.435   -8329.9454    9.3173626   0.22170124 
   23000   -286.64789    17.370675   -269.27722    1255.9382   -10709.874    9.4458407    0.2306946 
   23100   -283.53582    17.938956   -265.59686    1297.0262    10707.862    9.5401391   0.25291918 
   23200   -283.47974    19.639207   -263.84053    1419.9581   -8864.8448    9.2911568   0.26091427 
   23300   -287.41819    18.424399   -268.99379    1332.1248   -3788.1105    9.5535309   0.17920389 
   23400   -286.17141    17.493574   -268.67784    1264.8241    4235.5238    9.5919944   0.18623836 
   23500   -282.16083    17.814951   -264.34587    1288.0603   -881.82293    9.3698833   0.27270464 
   23600   -283.01299    18.734105   -264.27888    1354.5172   -2725.3588    9.3517818   0.26596044 
   23700   -286.72004    17.153627   -269.56641    1240.2452   -3458.9179    9.5246971   0.17975544 
   23800   -285.76838    18.475023   -267.29335     1335.785     2897.281    9.5371054   0.18839492 
   23900   -284.17773    19.536797   -264.64094    1412.5537   -2379.8199    9.4309819   0.22563883 
   24000   -286.26701    18.965852   -267.30116     1371.273    5113.5784    9.5984285   0.19879872 
   24100   -287.28643    17.905639   -269.38079    1294.6173    1352.1893    9.5900102   0.17651654 
   24200   -283.62395    17.082666   -266.54128    1235.1145    703.00358    9.4203661   0.27000454 
   24300   -281.89273    18.766896   -263.12584    1356.8881   -13410.713    9.2078611   0.33429059 
   24400   -283.02037    17.687038   -265.33333     1278.812   -11502.123    9.2757535   0.29723623 
   24500   -285.66862    17.363651   -268.30497    1255.4304    841.27173    9.5445759   0.21722253 
   24600    -284.9888    18.940593   -266.04821    1369.4468    4945.0745    9.5500399   0.19424995 
   24700   -280.65066    16.530069   -264.12059    1195.1606   -1287.2452    9.2760802   0.32369201 
   24800    -285.7798    17.774572   -268.00523    1285.1408   -7475.4933    9.4134104   0.21771723 
   24900   -288.08137    18.536361   -269.54501    1340.2199   -1435.6387    9.6021182   0.15548619 
   25000   -284.08183    18.503063   -265.57876    1337.8124    7842.6417    9.5750953   0.20952137 
   25100   -284.47202    21.500346   -262.97167    1554.5226    11042.396     9.573158   0.23324503 
   25200   -286.73281    19.230429   -267.50238    1390.4026    16057.033    9.6968466   0.20855732 
   25300   -286.19586    17.866351   -268.32951    1291.7767   -1456.4296    9.5170881   0.19408667 
   25400    -285.2109    20.141324   -265.06957    1456.2623   -13083.842    9.3451266   0.22335967 
   25500   -282.27912     18.23888   -264.04024    1318.7114    385.99433    9.3739907   0.25363889 
   25600   -285.99983    16.434085   -269.56575    1188.2207     7227.244    9.6080514    0.1895077 
   25700   -285.08294     18.24241   -266.84053    1318.9666   -5751.6854    9.4297307   0.17828602 
   25800   -284.07566    17.708151   -266.36751    1280.3385    1653.7497    9.4713592   0.18772752 
   25900   -288.84944    17.463661   -271.38578    1262.6613    13214.822    9.7907949   0.12792745 
   26000   -286.66169    16.466359   -270.19533    1190.5542    5415.0591    9.6282656   0.19142197 
   26100   -284.62438    18.123849   -266.50053    1310.3944   -10296.917    9.3583276   0.23294194 
   26200   -284.25409    18.579148   -265.67494    1343.3135    1789.9881    9.4597815   0.21722777 
   26300   -287.27632    18.658943   -268.61738    1349.0829    4959.8315    9.6279659   0.15899888 
   26400   -287.45658    16.210302   -271.24628    1172.0407    8871.0747    9.6991182   0.16935308 
   26500   -285.87726    18.570966   -267.30629    1342.7219   -1815.5733    9.5015197   0.23606289 
   26600   -282.14057    15.766297   -266.37428    1139.9381   -357.40041    9.3612987   0.30398548 
   26700    -281.0818    15.897783   -265.18402    1149.4449   -20455.465    9.1112379    0.3118312 
   26800   -285.67465    15.285203   -270.38945     1105.154   -19711.093    9.3102409   0.25813419 
   26900    -283.5698    15.327029   -268.24277    1108.1781   -3507.5368    9.3921224   0.23865153 
   27000   -283.28041    17.053206   -266.22721    1232.9845    4306.4651    9.4785529   0.22208211 
   27100   -282.97244    16.544219   -266.42822    1196.1836    12725.304    9.5543683   0.28502217 
   27200   -282.35557    19.012982   -263.34259    1374.6806   -5296.7726    9.3138703   0.27030208 
   27300   -279.81581    19.511058   -260.30475    1410.6926   -1910.0306    9.2378367   0.27218662 
   27400   -282.40033    17.083599   -265.31673     1235.182    10719.798    9.5037169   0.28834596 
   27500   -283.58768    17.354747   -266.23293    1254.7866   -8545.5116      9.34924    0.2630668 
   27600   -284.32734    15.856207   -268.47114    1146.4388    5206.4114    9.5382319   0.23023445 
   27700   -288.91225    17.310745   -271.60151    1251.6052   -7378.4535    9.5538794   0.15854777 
   27800   -285.48494    18.945259   -266.53968    1369.7841    9916.4192    9.6018616   0.20889974 
   27900   -286.48851    21.210919   -265.27759    1533.5964    11188.091    9.6507575   0.18287394 
   28000   -283.75261     18.74768   -265.00493    1355.4988    10927.839    9.5703605    0.1903499 
   28100   -285.83887    18.778603   -267.06027    1357.7345   -10818.532    9.4084933   0.21146551 
   28200   -288.58714    16.384425   -272.20272    1184.6302   -5788.7129      9.57523    0.1699861 
   28300   -285.47357    16.801892   -268.67168    1214.8139   -1091.4152    9.5091489   0.21467319 
   28400   -281.47865    16.258735   -265.21992    1175.5425   -3112.2323    9.3116066   0.27524156 
   28500   -283.57386    17.113802   -266.46005    1237.3658   -746.73725    9.4184245   0.25448496 
   28600   -285.24896    15.246624   -270.00233    1102.3646    23375.257    9.7872019   0.19567147 
   28700   -285.93627    20.013108   -265.92317     1446.992    4237.0295     9.581163   0.20975219 
   28800   -283.70805    19.170296   -264.53776    1386.0548    2578.7332    9.4424598   0.22301228 
   28900   -284.17363    15.636662   -268.53696    1130.5653   -3372.8033    9.4243752   0.20917155 
   29000    -284.8196    17.929409   -266.89019    1296.3359    880.53968    9.4901673   0.20440244 
   29100   -281.15603     18.29798   -262.85805    1322.9844   -3245.3649    9.2728914   0.36281786 
   29200   -280.64831    17.530894   -263.11741    1267.5224    7799.9829    9.4053535   0.24257059 
   29300   -284.45639    17.851846   -266.60455     1290.728   -8393.6539     9.385176   0.20672243 
   29400   -283.57362    16.839873   -266.73374    1217.5601    5984.4055    9.4887416   0.19833066 
   29500   -285.50297    19.905181   -265.59779    1439.1886    470.22222    9.5133244   0.22832152 
   29600   -290.07927    19.370504   -270.70877    1400.5303   -1446.8242     9.682618   0.12050838 
   29700   -286.32255    18.185529   -268.13702     1314.854    4240.1525    9.5660442   0.17786779 
   29800   -283.23318    16.627402   -266.60577     1202.198    -858.4167    9.4092541   0.26737843 
   29900   -282.62332    19.476785   -263.14654    1408.2146    950.16118    9.3787141   0.27977554 
   30000   -284.46236    18.659491   -265.80286    1349.1225   -4106.1188    9.4172442   0.19771698 
   30100   -286.15383    18.535641   -267.61819    1340.1678   -6204.7686    9.4429226   0.19420196 
   30200   -285.79113    19.215373   -266.57576     1389.314     6457.685    9.5736513   0.20757963 
   30300   -284.13333    20.685829   -263.44751    1495.6312    8834.3235    9.5355496   0.22127078 
   30400   -282.76981    20.040097   -262.72971    1448.9434    1299.3704    9.4172283   0.26059723 
   30500   -286.12238    19.045011   -267.07737    1376.9964   -6423.9111    9.4797976   0.21105672 
   30600   -283.88996    18.539032   -265.35093     1340.413     2428.786    9.4712386   0.24773236 
   30700   -282.57359     17.81207   -264.76152     1287.852    3452.6758    9.4266817    0.2554913 
   30800    -285.6154    18.026846   -267.58855    1303.3809    25515.875    9.8140192   0.16865758 
   30900   -287.45476    17.444225   -270.01053     1261.256    16394.408    9.7690582    0.1391181 
   31000   -285.70363    20.242414   -265.46122    1463.5713   -6623.1572    9.4455948   0.23358497 
   31100   -284.58345    18.762694   -265.82076    1356.5843   -232.63495     9.461167   0.20987766 
   31200   -287.73079    17.479354   -270.25144    1263.7959   -760.88427    9.6011976   0.16677934 
   31300   -285.14619    17.916534   -267.22966     1295.405   -3709.0069     9.438043   0.20751671 
   31400   -284.20509    18.889081   -265.31601    1365.7223   -14553.695    9.2775805   0.22915486 
   31500   -286.93673    17.900585   -269.03614    1294.2519   -6121.6927    9.4937811   0.20411764 
   31600   -288.00196     17.06883   -270.93313    1234.1142   -10834.779    9.5010451   0.18540532 
   31700   -283.84205    18.068578   -265.77348    1306.3982    17403.341    9.6052934   0.20327167 
   31800   -284.37261    18.469739   -265.90287     1335.403   -4980.3564    9.4209779   0.21862426 
   31900    -285.2754    17.350975   -267.92442    1254.5139   -15436.891    9.3298094   0.19476987 
   32000   -286.35892    15.293942   -271.06498    1105.7858   -12325.116    9.3999614   0.20104398 
   32100   -283.61211    16.247564   -267.36455    1174.7348   -4419.2364    9.3833339   0.21615294 
   32200   -283.54894    16.972901   -266.57604    1227.1783    6590.2943    9.4799032    0.2104469 
   32300   -284.45176    18.666891   -265.78487    1349.6575   -4022.3596    9.4109348   0.20285513 
   32400   -288.18207    16.607519   -271.57455    1200.7604    2259.8037    9.6515988   0.16253635 
   32500   -286.66633      17.9822   -268.68413    1300.1529    -2103.044    9.5291064   0.17864111 
   32600   -286.18722    19.678111   -266.50911    1422.7709   -6179.9504    9.4649447   0.20310325 
   32700   -283.81344    19.662069   -264.15137    1421.6111   -8549.6859    9.3290279   0.24447819 
   32800   -280.26591    21.250642   -259.01527    1536.4684   -4843.6972    9.2220715   0.26941005 
   32900   -281.81894    18.603256   -263.21569    1345.0566   -827.18539     9.318827    0.3637327 
   33000    -284.4246    18.182619   -266.24198    1314.6436    8820.0198    9.5462326   0.23014535 
   33100   -285.32095    17.514761   -267.80619    1266.3559   -4392.2847     9.439271   0.22311241 
   33200   -282.91297    18.906469    -264.0065    1366.9795   -14559.764    9.2191134   0.25372243 
   33300   -283.24429    21.035727   -262.20856    1520.9296   -4055.1163    9.3423126   0.22456206 
   33400   -286.69758    19.277992   -267.41959    1393.8415   -2664.8065    9.5169233   0.19208341 
   33500   -284.54546    17.231803   -267.31365    1245.8975    1422.3888    9.4885818   0.19588252 
   33600    -284.4734    18.766963   -265.70644    1356.8929    422.96486    9.4900362   0.21549006 
   33700    -284.4577    16.436177   -268.02153     1188.372    3763.4421    9.5023332   0.23408449 
   33800   -288.33039     17.60391   -270.72648    1272.8016    3073.2162    9.6621904   0.17782368 
   33900   -284.18192    17.335438   -266.84648    1253.3905    9143.3687    9.5424319   0.23050301 
   34000    -284.2711    17.968503    -266.3026    1299.1625   -7879.0557    9.3617022   0.21637413 
   34100   -288.84873    18.224707   -270.62403    1317.6866    -1521.653    9.6168984   0.14789717 
   34200   -286.34757     16.99504   -269.35253     1228.779    9946.3537     9.652183   0.17583617 
   34300   -285.54915    18.963992   -266.58515    1371.1386    712.10485    9.5189449   0.17880018 
   34400   -284.56436    18.659468   -265.90489    1349.1208    5743.8804    9.5517024   0.20362145 
   34500   -284.61404    20.094478   -264.51956    1452.8752    4655.8283    9.5120746   0.22889952 
   34600   -278.28891    18.745939   -259.54297    1355.3729    2466.9214    9.2486157   0.35324168 
   34700   -284.13261    19.439407    -264.6932    1405.5121    -3823.061     9.392949   0.25208233 
   34800   -282.75343     17.99871   -264.75472    1301.3466   -13608.082    9.2357763   0.26630819 
   34900   -284.28548    17.416706   -266.86877    1259.2663    4030.1143    9.5073154   0.23956355 
   35000   -287.43408    18.253083   -269.18099    1319.7382    10301.985    9.7121888   0.18960263 
   35100   -284.49147    20.367415   -264.12406    1472.6092   -13423.783    9.2986941   0.23539105 
   35200   -281.28941    15.305979   -265.98343    1106.6562   -14448.861    9.1705038   0.31277702 
   35300    -285.2242    17.790963   -267.43324     1286.326   -16785.186    9.3075902   0.23773627 
   35400   -287.37443    15.359701   -272.01472    1110.5404    17871.526    9.7746285   0.16389852 
   35500   -284.41797    16.046215   -268.37176    1160.1768     6988.481    9.5381129    0.2451328 
   35600   -284.06189    17.267852   -266.79404    1248.5039   -7170.0906    9.3583246   0.23623832 
   35700   -284.46662    16.655924    -267.8107    1204.2602   -10306.251    9.3597838   0.22720053 
   35800   -288.52807    17.265264    -271.2628    1248.3168   -10533.437    9.5006982   0.18881236 
   35900   -283.49718    17.534007   -265.96318    1267.7475   -1684.0294    9.3854497   0.21666449 
   36000     -284.613    18.931001     -265.682    1368.7532   -8101.1524    9.3765015   0.20535465 
   36100   -286.82076     17.55721   -269.26355    1269.4251    7474.4106    9.6294736   0.17170204 
   36200   -285.22564    16.611896   -268.61375    1201.0768    5871.4681    9.5633454   0.21440499 
   36300   -283.53343    18.672499   -264.86093     1350.063   -7527.7759    9.3336316   0.21850557 
   36400   -284.34715    17.473186   -266.87396      1263.35   -1736.2707     9.433116   0.21932297 
   36500   -286.97746    17.209205   -269.76825    1244.2636    3940.9418    9.6119664   0.18435882 
   36600   -289.36005     16.58616   -272.77389    1199.2161    11392.471    9.7843448   0.14767018 
   36700    -286.6963    18.037201    -268.6591    1304.1295   -12003.149    9.4230249   0.18370879 
   36800   -285.12094    17.703757   -267.41719    1280.0208   -14068.867    9.3159465   0.21601208 
   36900    -284.1758    17.254682   -266.92112    1247.5517   -3300.3667    9.4191452   0.24134172 
   37000   -284.39204    20.725285   -263.66676    1498.4839    9585.5109    9.5339432   0.18862057 
   37100   -284.69502    21.526174   -263.16884      1556.39    1139.9573    9.4588593   0.21812668 
   37200   -286.70524    17.633591   -269.07165    1274.9477    5786.9246    9.6350979   0.17385712 
   37300   -284.94079    16.968044   -267.97274    1226.8271    8013.5159    9.5605543   0.19354753 
   37400   -282.40849    16.719367   -265.68912    1208.8472    3068.5314    9.4279462   0.23508533 
   37500   -281.03603    16.758334   -264.27769    1211.6646   -2162.3399    9.3080701   0.31330588 
   37600   -287.41369     16.99134   -270.42235    1228.5115   -898.20943     9.591441   0.17760422 
   37700   -286.59172    17.412763   -269.17896    1258.9813    2703.8304    9.5736267   0.16732285 
   37800   -282.34397    16.288198   -266.05577    1177.6727    3359.2362    9.4322872   0.26959653 
   37900   -281.53534    17.738372   -263.79697    1282.5236   -9232.1073    9.2428637   0.25908509 
   38000   -286.19029    17.870688    -268.3196    1292.0902    4842.9287    9.5944576   0.20786716 
   38100   -287.64073    19.211413   -268.42932    1389.0276    5694.6686    9.6499842   0.17677616 
   38200   -281.80143    18.353165   -263.44827    1326.9744   -8047.4306    9.2847437   0.31456767 
   38300   -284.07526    17.828692   -266.24657    1289.0539    -16761.61    9.2502862   0.24424507 
   38400   -285.67471    17.126582   -268.54812    1238.2898   -4778.4551    9.4609618   0.22999326 
   38500    -284.0627    18.627754   -265.43495    1346.8278   -1246.6039    9.4069898   0.26141681 
   38600   -279.35136    17.342286   -262.00907    1253.8856    7164.0682    9.3270928    0.3234236 
   38700   -285.17495    17.459912   -267.71504    1262.3902    6938.2584    9.5700956   0.19124728 
   38800   -285.29864     16.86428   -268.43436    1219.3248   -8313.7611    9.4007818   0.17551219 
   38900   -283.23365    17.499927   -265.73372    1265.2834   -12086.568     9.289629   0.24977386 
   39000   -282.09604    18.476844    -263.6192    1335.9167    4399.3896    9.3917351   0.27066199 
   39100   -284.78548    18.249831   -266.53565    1319.5032    13120.389      9.61644    0.1915126 
   39200   -286.26345    17.397857   -268.86559    1257.9035    -757.2218    9.5268444   0.20832793 
   39300   -283.08968    19.426265   -263.66341    1404.5619   -14325.435    9.2455657   0.25866863 
   39400     -284.538     18.65917   -265.87883    1349.0993   -8602.9518    9.3683326   0.27521745 
   39500   -287.63904    18.448557   -269.19048    1333.8715    17172.617    9.7881613   0.15965224 
   39600   -287.45091     17.34416   -270.10675    1254.0211     1388.705    9.6153215   0.16990541 
   39700   -284.01925    18.704296   -265.31495     1352.362   -9758.9751     9.336018   0.27126313 
   39800   -282.19654    18.142145   -264.05439    1311.7172    5619.3722    9.4516258   0.27578359 
   39900   -286.56755    19.024739   -267.54282    1375.5307    2624.0586    9.5760238   0.22303553 
   40000   -286.50948    17.136252   -269.37323    1238.9889    14564.727    9.7155954   0.16143026 
   40100   -283.74753    17.469008   -266.27852    1263.0479   -3068.0534    9.3952568   0.24165736 
   40200   -281.65096    17.230795   -264.42016    1245.8246    3291.7471    9.3973664   0.25011933 
   40300   -286.01971    17.269132   -268.75058    1248.5964   -3129.7263     9.474885      0.19436 
   40400   -285.76871     16.81844   -268.95027    1216.0104   -25630.264    9.2591814   0.22124773 
   40500   -281.29526      16.6946   -264.60066    1207.0565   -2755.4335    9.2688654   0.30268141 
   40600   -284.10232    20.353261   -263.74906    1471.5858    3318.9556    9.4634622   0.20595305 
   40700   -285.34967    17.337369    -268.0123    1253.5301    4895.9799    9.5594108   0.20690599 
   40800   -286.62344    19.885071   -266.73837    1437.7346    5398.0293    9.6099287    0.1665516 
   40900   -283.99013    19.706107   -264.28402    1424.7952     -1112.22    9.4264056   0.20637412 
   41000   -281.58242    20.324743   -261.25768    1469.5239    -1223.474    9.3264479     0.302582 
   41100   -286.63363    19.568422   -267.06521    1414.8402    2829.8114    9.5766955   0.19247833 
   41200   -285.68357    17.968308   -267.71526    1299.1484    5429.5088     9.564605   0.18552622 
   41300   -283.30162    17.064963   -266.23665    1233.8346   -6991.6122    9.3378101   0.26170962 
   41400   -280.52294    18.702039    -261.8209    1352.1988   -10600.652    9.1662459   0.30591663 
   41500   -282.75979    16.662619   -266.09717    1204.7442   -1410.4346    9.3887637   0.22181374 
   41600   -285.80893    18.243299   -267.56563    1319.0308    4857.6478    9.5654125   0.19626053 
   41700   -286.36655    17.977016   -268.38954     1299.778    1087.6611    9.5361511   0.17548045 
   41800   -288.54796    15.462083   -273.08588    1117.9428    12825.413    9.7813308   0.16225732 
   41900   -283.80884    14.801574   -269.00726    1070.1866    10594.221    9.5810543   0.20743679 
   42000   -283.89122    17.743822   -266.14739    1282.9176   -21080.328    9.2035227   0.26864226 
   42100   -283.71705    17.044169   -266.67288    1232.3311   -16695.324     9.267788   0.23627622 
   42200   -286.39222    16.993791   -269.39843    1228.6887    2148.3988    9.5780631   0.18112114 
   42300    -288.9981    17.072726   -271.92537    1234.3959   0.91451063    9.6646149   0.14167132 
   42400   -283.22859    16.896586     -266.332    1221.6606   -1524.7227    9.4017138   0.25109864 
   42500   -285.43975    18.993479   -266.44627    1373.2705   -7243.3164    9.4211258   0.21391036 
   42600   -285.77228    16.680558   -269.09173    1206.0412     241.5435    9.5111608   0.19294019 
   42700   -287.49631     16.83684   -270.65947    1217.3408   -6928.5318    9.5173785   0.19723453 
   42800   -282.48688    16.256672   -266.23021    1175.3933    -149.3361    9.3502738   0.26894493 
   42900   -284.69966    18.327032   -266.37263     1325.085   -2737.1394    9.4178557    0.2604181 
   43000   -286.72078    16.852879    -269.8679    1218.5004   -1840.9304    9.5356087   0.19637394 
   43100   -283.93136    18.782114   -265.14924    1357.9884    4111.0561     9.464836   0.20379016 
   43200   -283.10107    19.005102   -264.09597    1374.1109    2399.0499    9.4189965   0.23772214 
   43300   -288.52719    20.191267   -268.33592    1459.8732   -9217.5738    9.5330583   0.15791877 
   43400   -286.59982    17.916189   -268.68363    1295.3801    7641.4081    9.6654065   0.15999397 
   43500   -284.50458    19.802472   -264.70211    1431.7625     2519.594    9.4767762   0.21123605 
   43600   -284.62525    17.049925   -267.57532    1232.7473      3143.48    9.4799234   0.22267589 
   43700   -286.50959    16.727644   -269.78195    1209.4457    -12337.37    9.4148046   0.19271929 
   43800   -281.63348     16.53462   -265.09886    1195.4896    2599.3997    9.3732814   0.25291247 
   43900   -283.67467     17.03583   -266.63884    1231.7282    4209.3194    9.4743277   0.21519129 
   44000   -287.60895    17.797839   -269.81111    1286.8231    3927.6969    9.6313715    0.1785001 
   44100   -284.61039     19.06421   -265.54618    1378.3846    1342.6589    9.4968921   0.16826358 
   44200   -283.20185    16.640072   -266.56177     1203.114    9319.8606    9.5322821   0.20880055 
   44300   -286.20619    17.331501   -268.87469    1253.1059    -5168.678    9.4847226   0.18725782 
   44400   -283.46092    19.212738   -264.24818    1389.1234   -12133.398    9.2482545   0.28656735 
   44500   -280.79889    17.412619   -263.38627    1258.9709   -1124.8383    9.2968792   0.30501798 
   44600   -285.64141    18.261462   -267.37995    1320.3441    228.10407    9.4870495    0.2160013 
   44700   -285.53928    18.213981    -267.3253    1316.9111   -1265.5162    9.4717866   0.19930515 
   44800   -282.48123    19.376801   -263.10443    1400.9856   -4126.9048    9.3245655   0.24640213 
   44900   -282.05145    16.478076   -265.57338    1191.4013     926.5332    9.3650107   0.28175757 
   45000   -285.13004    16.586081   -268.54396    1199.2104   -2280.3335    9.4591927   0.19513497 
   45100   -283.76138     16.09237   -267.66901    1163.5139   -4502.1812    9.3934257   0.25236209 
   45200   -283.46321    20.488268   -262.97495    1481.3471    6837.8887    9.4549077     0.262026 
   45300   -283.75264    17.738137    -266.0145    1282.5066    6812.5333    9.4690404   0.27351893 
   45400    -283.8443    17.799806   -266.04449    1286.9654   -1566.2433    9.4227256    0.2286866 
   45500   -287.43558     17.61445   -269.82113    1273.5637   -21570.752    9.3794751   0.17988848 
   45600   -287.43728    17.213031   -270.22425    1244.5402   -6919.7912    9.5304534   0.20634441 
   45700   -284.32647     17.76982   -266.55665    1284.7973     8702.622    9.5608896   0.23042202 
   45800   -285.26696     19.26307   -266.00389    1392.7626     1180.251    9.5030419   0.22760524 
   45900   -286.71123      15.9205   -270.79073    1151.0874   -3414.7127    9.5163741   0.19374591 
   46000   -285.30253    16.296389   -269.00614     1178.265   -5561.6045    9.4240645   0.21775703 
   46100   -282.82867     16.80577    -266.0229    1215.0944   -7435.6557    9.3122802   0.26153405 
   46200   -285.21905    17.693557   -267.52549    1279.2833    4884.3993    9.5408335   0.22079432 
   46300    -285.3921    15.470391   -269.92171    1118.5435    19339.755    9.7317479    0.1737703 
   46400   -284.14809    19.523229   -264.62486    1411.5726    2737.7755    9.4306859   0.25058852 
   46500   -282.38496    16.956612   -265.42835    1226.0005    2273.4713    9.3816564    0.2669311 
   46600   -285.31247    15.671234   -269.64124    1133.0649   -8958.6043    9.3817677   0.21333193 
   46700   -284.75902    16.944798   -267.81422    1225.1464    -7098.412    9.4171983   0.22008573 
   46800   -280.60182    17.387294   -263.21453    1257.1398    17695.312     9.480003   0.23265666 
   46900   -284.91921    17.731541   -267.18767    1282.0296    9422.4962    9.5676889   0.20618071 
   47000   -285.43993    18.123994   -267.31594    1310.4049     5110.836     9.580511   0.16485684 
   47100   -284.72891    19.046339   -265.68258    1377.0924    2423.4527     9.506679   0.22853313 
   47200   -279.19097    17.619095   -261.57188    1273.8995    15744.274    9.4250188   0.27374875 
   47300   -283.46076    18.464127   -264.99663    1334.9972    6116.7921     9.485254   0.22926077 
   47400   -286.66319    19.202295   -267.46089    1388.3684    4104.4834    9.5809535   0.17801754 
   47500   -287.14614    17.432047   -269.71409    1260.3755    6443.2053    9.6615092    0.1931819 
   47600   -284.45416    19.537661    -264.9165    1412.6161   -2110.4688    9.3961249   0.25621628 
   47700   -282.19748    17.883343   -264.31414    1293.0053   -13414.113    9.2330926   0.28882388 
   47800   -286.77869    18.309297   -268.46939    1323.8026   -8522.7288    9.4659408   0.21663733 
   47900   -285.33618    16.654076    -268.6821    1204.1266    3679.2235    9.5195016   0.20918865 
   48000     -284.592    19.697688   -264.89431    1424.1864    -4370.171    9.4050615   0.20679531 
   48100   -287.18112    19.075507   -268.10561    1379.2013    550.78494    9.5765871   0.17702395 
   48200    -286.6129    17.129567   -269.48333    1238.5056    16143.136    9.7489958    0.1819281 
   48300   -282.73965    16.813718   -265.92593     1215.669    20632.581    9.6390611   0.19432377 
   48400   -285.46196    18.746267   -266.71569    1355.3965   -13519.366    9.3820354    0.1988464 
   48500   -286.70011    15.065212    -271.6349    1089.2481    1532.2615    9.5960388   0.19689565 
   48600   -284.74344    17.346335   -267.39711    1254.1784    1156.5936    9.4879023   0.18895895 
   48700   -285.06971    18.733369   -266.33634     1354.464    911.65142    9.4928723   0.20180114 
   48800   -283.18897    16.873598   -266.31538    1219.9984    15205.558    9.5869689   0.27381686 
   48900   -283.98161    22.007379   -261.97423    1591.1822    7398.7325    9.5184499   0.19292818 
   49000   -283.91279    18.526965   -265.38582    1339.5406    906.48878    9.4443188   0.21537658 
   49100    -284.9425    17.443041   -267.49945    1261.1705    -6243.161     9.429324   0.20582337 
   49200   -285.58397    16.622478   -268.96149    1201.8419    1622.8751    9.5295793   0.22761949 
   49300   -282.50633    19.190079   -263.31625    1387.4851    -3110.075    9.3185627   0.24731107 
   49400   -284.91523    19.080071   -265.83516    1379.5313   -6673.9082    9.4013717   0.21841249 
   49500   -284.96421    17.045124   -267.91909    1232.4002    12685.481     9.621166    0.1872122 
   49600   -286.53253    20.127715   -266.40481    1455.2783    6869.8259    9.6070502   0.17931224 
   49700   -279.60015    17.731007   -261.86914     1281.991   -5955.0123    9.2019747   0.28645807 
   49800   -283.35399    16.033182    -267.3208    1159.2345   -8487.7309    9.3256386    0.2498849 
   49900   -286.76912    19.366207   -267.40291    1400.2196   -11270.442    9.4262515   0.19317063 
   50000   -282.37303    16.500232    -265.8728    1193.0033    23138.951    9.6434094   0.20476603 
   50100   -282.11153    19.319638   -262.79189    1396.8526    5928.4569    9.4157734   0.26600282 
   50200   -286.08627    18.299446   -267.78682    1323.0904   -601.92291    9.5343233   0.19483225 
   50300   -287.35799    18.922381   -268.43561      1368.13    4951.8935    9.6201535   0.18518285 
   50400   -284.55082    19.117039   -265.43378    1382.2042    13381.659    9.5952916    0.2358383 
   50500   -282.20057    19.998368    -262.2022    1445.9262     5611.719    9.3951857   0.24260629 
   50600   -285.46413    19.341031    -266.1231    1398.3993    6401.8042    9.5692134   0.17118385 
   50700   -285.86183    17.307495   -268.55433    1251.3702     6448.169    9.5988322   0.18009299 
   50800   -284.53593    19.293298   -265.24263    1394.9481    470.38998    9.4616247   0.26292019 
   50900   -284.34553    20.076509   -264.26903     1451.576   -627.63624    9.4562613   0.20725791 
   51000   -285.74027    17.227388   -268.51288    1245.5782   -8199.9166     9.430929   0.19779548 
   51100    -285.4347    18.427378   -267.00732    1332.3402   -5071.4322    9.4440547   0.20640828 
   51200   -284.57458    19.837612   -264.73697    1434.3033   -6038.5015    9.3685395   0.27074131 
   51300   -283.18752    20.406064   -262.78146    1475.4035   -4156.5038    9.3318356   0.24202707 
   51400   -282.87164     16.68485   -266.18679    1206.3516    11330.629    9.5098586   0.24886629 
   51500   -285.34942    17.820237   -267.52919    1288.4426     5405.409    9.5750173   0.19646134 
   51600   -283.33903     18.29981   -265.03922    1323.1167    13594.358    9.5509335   0.24049562 
   51700   -281.83812    18.851481   -262.98664    1363.0038   -4891.5752    9.2602647   0.28651291 
   51800    -284.1145    16.114565   -267.99994    1165.1187   -5294.4682    9.4100695   0.23219029 
   51900   -284.25755     17.73984   -266.51771    1282.6297   -2624.0123    9.4270762    0.2164931 
   52000   -284.42098     19.24567   -265.17531    1391.5045    221.52707    9.4512268   0.26461135 
   52100   -288.90187    17.647721   -271.25415    1275.9693    2355.1738     9.678467   0.16138622 
   52200   -285.88848    17.092695   -268.79579    1235.8397   -1893.5416     9.515795   0.21030673 
   52300   -283.01945    16.630633   -266.38882    1202.4315   -8819.8146     9.303404   0.23851144 
   52400    -285.5191    18.593678   -266.92543     1344.364   -13385.355    9.3500667   0.22088547 
   52500   -287.87233    16.462351   -271.40998    1190.2644    14520.939    9.7823046   0.17648682 
   52600   -284.58753    17.538797   -267.04873    1268.0938   -6029.7211    9.4250901   0.23932937 
   52700   -284.19176    18.055406   -266.13635    1305.4458   -6163.4497    9.3777958    0.2197836 
   52800   -286.27472    18.394148   -267.88058    1329.9376    10166.786    9.6556291   0.17046052 
   52900   -286.73879    15.769713   -270.96908    1140.1851    2377.1008    9.6151749   0.14442373 
   53000   -283.25155    17.067119   -266.18443    1233.9904    12380.839    9.5098476   0.21816533 
   53100    -283.6437    19.254321   -264.38938      1392.13     4132.854    9.4606293   0.21697249 
   53200   -286.82036    18.208905   -268.61145    1316.5441   -6749.2161    9.4708216   0.17055333 
   53300   -286.24697    18.104972     -268.142    1309.0295     4105.661    9.5786922   0.19347322 
   53400   -284.88127    20.315213   -264.56606    1468.8349    7662.8049    9.5177575   0.20993538 
   53500   -287.53569    19.755012   -267.78068    1428.3311   -8963.4595    9.4823856   0.17087369 
   53600   -285.92741    16.871193   -269.05622    1219.8246    3844.0989    9.5657408   0.19874472 
   53700   -285.84789    20.246043   -265.60184    1463.8337    -2678.375    9.4943794   0.20429752 
   53800   -284.06474    18.522191   -265.54255    1339.1954    1796.4372    9.4688995    0.2408174 
   53900   -288.36626     17.14629   -271.21997    1239.7147   -262.08566     9.632595   0.14938043 
   54000   -285.34949    16.696017   -268.65347     1207.159   -6155.2976     9.424879   0.19588509 
   54100   -284.79214    18.728876   -266.06326    1354.1391   -15238.866    9.2948768   0.22955373 
   54200   -282.72238    16.787354   -265.93502    1213.7628    6845.4195    9.4964865    0.2624004 
   54300   -289.36562     18.58472    -270.7809    1343.7164    1384.4978     9.667558   0.15755122 
   54400   -286.69947     17.14077    -269.5587    1239.3156   -804.89762    9.5527491   0.16758747 
   54500   -284.46868    17.893797   -266.57488    1293.7611    -6653.904    9.3932634   0.18638737 
   54600   -284.69927    16.476677   -268.22259    1191.3002   -6449.6049    9.4304986   0.20187316 
   54700   -290.38198    18.304718   -272.07727    1323.4716    7781.1959    9.7830305   0.15698161 
   54800   -286.19517    18.430536   -267.76464    1332.5686    27458.189    9.8394212   0.20247936 
   54900   -285.11454    18.198736   -266.91581    1315.8089    3214.4707     9.523362   0.23407121 
   55000   -283.06175    17.381551    -265.6802    1256.7246   -1417.8106    9.3891498   0.22341176 
   55100   -284.74879    20.186607   -264.56219    1459.5364   -1119.3261    9.4406756   0.19740542 
   55200   -289.46573    19.860512   -269.60522     1435.959   -5207.4327    9.5909135    0.1540589 
   55300   -286.49323    18.321156   -268.17207    1324.6601    8331.9469    9.6493665   0.18638884 
   55400   -283.46635    18.327942    -265.1384    1325.1508    2303.4998    9.4432163   0.23639043 
   55500   -284.11599     16.65792   -267.45807    1204.4045   -13122.201    9.2953667   0.27602908 
   55600   -284.83134    15.272397   -269.55894    1104.2281   -9003.9538    9.3961869   0.23785418 
   55700   -283.54022     18.35998   -265.18024    1327.4671   -7204.3305     9.332855   0.21315355 
   55800   -284.53239     17.68958   -266.84281    1278.9958   -11681.164    9.3510441   0.21577767 
   55900   -288.19432    17.037339   -271.15698    1231.8373    4783.5418     9.670584   0.15876664 
   56000   -285.91166    18.665378   -267.24628    1349.5481     6924.853    9.5851457   0.19203482 
   56100   -284.19705    19.190875   -265.00617    1387.5427   -5242.9164    9.3722617    0.2466444 
   56200   -285.11772     18.92909   -266.18863    1368.6151   -1423.5972    9.4632825   0.20990278 
   56300   -288.88065    18.889898   -269.99076    1365.7814   -6519.0055    9.5704585   0.18326267 
   56400   -283.73436    17.509208   -266.22515    1265.9545    -4539.888     9.389584   0.25600965 
   56500   -282.26321    18.130698   -264.13251    1310.8896    257.33292    9.3985321   0.23201648 
   56600   -286.05534    17.158743   -268.89659    1240.6151    15803.377    9.7122276   0.17154641 
   56700   -284.53942    16.674764   -267.86466    1205.6223    7713.1894    9.5661886   0.21255011 
   56800   -282.73629    18.427031   -264.30926    1332.3151    1033.3367    9.3790418   0.27760301 
   56900   -283.01285    16.691081   -266.32177    1206.8021   -9274.2085    9.2804408   0.26098792 
   57000   -285.01241    15.348799   -269.66361    1109.7521   -17965.858    9.2691438   0.25086345 
   57100   -282.74629    16.313037   -266.43325    1179.4686   -9131.3891    9.2924941   0.30324352 
   57200   -284.47284    20.506367   -263.96647    1482.6557   -4245.0246    9.3982065   0.25083575 
   57300   -285.77761    17.560285   -268.21733    1269.6475    9673.1954    9.6542034   0.20169805 
   57400   -285.97797    16.129089   -269.84888    1166.1688   -622.18938     9.533577    0.2255829 
   57500   -282.65039    17.401764   -265.24862     1258.186    -11353.79    9.2877427   0.25588059 
   57600    -285.1684    19.281095   -265.88731    1394.0658   -6569.8568    9.4137267   0.20527385 
   57700   -286.06219    15.974689    -270.0875    1155.0053      10126.4     9.667727   0.20413505 
   57800   -285.25856    18.765005   -266.49356    1356.7513   -2491.2002    9.4751195   0.24601962 
   57900   -283.08692    18.514782   -264.57214    1338.6597   -5261.2515    9.3185393    0.2336703 
   58000   -285.88466    17.193698   -268.69096    1243.1424   -6468.6179    9.4470456   0.23584944 
   58100   -284.91186    17.102227   -267.80963    1236.5289   -2526.6436    9.4383003    0.2244794 
   58200    -282.5712     19.02635   -263.54485    1375.6472   -2767.3112    9.3131056   0.27963351 
   58300   -283.33962    16.812835   -266.52678    1215.6052    12769.937    9.5691493   0.19279142 
   58400   -285.83287    16.679803   -269.15307    1205.9867    6747.1767    9.6028347   0.18517074 
   58500   -285.22017    19.533675    -265.6865    1412.3279    133.04451    9.4867516   0.22728531 
   58600   -281.72363    17.940854   -263.78278    1297.1634    745.93262    9.3452487    0.2746941 
   58700   -285.17818    16.287907   -268.89027    1177.6517   -2505.5929    9.4603889   0.18086741 
   58800   -285.79477    16.949793   -268.84498    1225.5075    4918.4158    9.5859726   0.17635737 
   58900   -284.84701    19.488332   -265.35868    1409.0495    17913.669      9.66221   0.19728853 
   59000   -284.29988    19.949189   -264.35069    1442.3705    7775.1295      9.52108   0.25258498 
   59100   -287.04264    17.765436    -269.2772    1284.4803   -2504.1104    9.5361234   0.18343249 
   59200   -286.36518    17.132008   -269.23317     1238.682   -6582.8643    9.4728542   0.21584087 
   59300   -284.80982    18.545444   -266.26437    1340.8766    3655.4887    9.5082586   0.21760766 
   59400   -283.29956    17.713932   -265.58563    1280.7565    3658.2686     9.424246    0.3113513 
   59500   -282.28672    21.268874   -261.01785    1537.7866   -2506.4617    9.3486295   0.25984737 
   59600   -285.74422    19.522856   -266.22136    1411.5457   -573.19629    9.5013108   0.22364585 
   59700   -283.22331    15.963664   -267.25965    1154.2082   -4267.9348    9.4035189   0.26124447 
   59800   -281.31738    17.419444   -263.89794    1259.4643   -612.10304    9.3208411   0.27664485 
   59900    -282.3524    17.917051   -264.43535    1295.4424   -11925.293    9.2285678    0.3154746 
   60000   -286.98239    18.370619   -268.61178    1328.2364   -9975.6379    9.4547182   0.20657949 
   60100   -285.56198    18.816968   -266.74501    1360.5084    6977.6825    9.5587233   0.20157728 
   60200   -282.57076    19.816967   -262.75379    1432.8105    265.39299    9.3679336   0.25914504 
   60300   -286.13692     18.40439   -267.73253    1330.6781    1193.7141    9.5459605   0.19781467 
   60400   -284.35091    16.140445   -268.21046    1166.9899    6891.8873    9.5277146   0.21030905 
   60500   -285.74389    19.807895     -265.936    1432.1546      -8176.7    9.3928487   0.20891304 
   60600   -284.67687    16.958605   -267.71826    1226.1447   -13599.535    9.3223309   0.24957952 
   60700   -287.64919    16.690931   -270.95825    1206.7913   -20557.609    9.3812422   0.17857112 
   60800   -282.27687    16.261853   -266.01502    1175.7679    1595.2144    9.3972955    0.2572774 
   60900   -283.68694    18.169313   -265.51763    1313.6815   -5271.7379    9.3735244    0.2540345 
   61000   -286.15345    17.179607   -268.97385    1242.1236    1061.0884    9.5505905   0.16507594 
   61100   -287.40145    17.756269   -269.64518    1283.8175    5527.9381    9.6620374   0.17479201 
   61200   -285.43437    20.553054   -264.88132    1486.0312   -12135.916    9.3238105   0.19847493 
   61300   -283.99873    16.706754   -267.29197    1207.9353   -1449.8204    9.4317408   0.23236849 
   61400   -288.44463    17.880025    -270.5646    1292.7654   -4421.3893    9.5706626   0.14789214 
   61500   -283.42982    17.578663   -265.85116    1270.9762    8352.1968    9.5455482   0.20512567 
   61600    -281.0822     15.79352   -265.28868    1141.9064    19832.897    9.5492471   0.27439336 
   61700   -283.94532    16.470587   -267.47473    1190.8599   -3059.3593      9.42865   0.25975496 
   61800   -285.10698    17.766687    -267.3403    1284.5708   -8502.3692    9.3787569   0.25383194 
   61900   -280.85045    18.361625   -262.48882    1327.5861   -5002.7337     9.268461   0.29646036 
   62000   -284.84805    18.389716   -266.45833    1329.6171    4932.5562    9.5413211   0.19988928 
   62100   -285.21198    17.676351   -267.53562    1278.0393   -2783.7959    9.4780503   0.21911443 
   62200   -283.89978    19.748761   -264.15102    1427.8791     3549.765    9.4655929   0.25378948 
   62300   -279.28195      19.1173   -260.16465    1382.2231    8227.8259     9.340825   0.35086593 
   62400   -282.58936    18.870738   -263.71863    1364.3961    7740.6914    9.4517741   0.24216001 
   62500   -284.19573    17.742007   -266.45373    1282.7863    12962.715     9.592704   0.20654958 
   62600   -284.63393    18.006382   -266.62755    1301.9013   -3127.7977    9.4383845     0.178985 
   62700   -286.19992    16.962117    -269.2378    1226.3986   -14575.664    9.3864578   0.20216677 
   62800   -283.64461    17.701681   -265.94293    1279.8707    501.11304    9.4343534   0.21765612 
   62900   -281.03811    16.143007    -264.8951    1167.1751    19576.764    9.5756254   0.25627884 
   63000   -286.44418     18.30103   -268.14315    1323.2049    6789.0126    9.6172511   0.17378194 
   63100   -286.02171    16.980937   -269.04077    1227.7593   -5043.5342    9.4760107   0.22400288 
   63200     -283.094    18.491567   -264.60243    1336.9812   -792.38141    9.3847542   0.23686048 
   63300   -285.27774    17.676067   -267.60168    1278.0188   -8882.5855    9.4189747   0.21082246 
   63400   -286.40999    17.529909   -268.88008    1267.4512    3809.6475    9.6010912   0.16351951 
   63500   -284.09608    20.149226   -263.94685    1456.8336   -4660.6748    9.3676663   0.21415739 
   63600   -284.27285    19.476163   -264.79669    1408.1696   -10680.993    9.3203255   0.24042517 
   63700   -284.59276    17.559938   -267.03282    1269.6224   -5222.5551    9.4001102   0.25833739 
   63800   -284.39439    19.982816   -264.41157    1444.8018   -15521.025    9.2905857   0.24734136 
   63900   -283.28851    20.166187   -263.12232    1458.0599    5908.6788    9.4721778    0.2467632 
   64000    -281.5941    19.045795    -262.5483    1377.0531    13026.053    9.4337105   0.28376752 
   64100    -285.7255    18.268265   -267.45723     1320.836   -4914.3114    9.4539811   0.17835066 
   64200   -286.63313    19.281911   -267.35122    1394.1248   -8675.4185    9.4514825   0.19266621 
   64300    -285.9757     17.61154   -268.36416    1273.3533   -5227.0269    9.4587418   0.20787208 
   64400   -287.32859    15.437462   -271.89113    1116.1627   -12467.526    9.4461845   0.16053152 
   64500   -289.69139    17.694351   -271.99704    1279.3407    5639.5752    9.7368945   0.12496579 
   64600   -286.18228    17.330299   -268.85198    1253.0189    8403.8136    9.6328716    0.1872768 
   64700   -283.15982    16.589113   -266.57071    1199.4296    10816.215    9.5251906   0.20721306 
   64800   -283.45466    17.042223   -266.41243    1232.1904   -595.90134     9.409801   0.23997446 
   64900   -285.58897    14.179644   -271.40933    1025.2196   -658.42541    9.5166082   0.19700786 
   65000   -284.58823    15.811953   -268.77628    1143.2392    -7047.704    9.3972113   0.22416865 
   65100   -283.67578    17.083022   -266.59276    1235.1403    1874.0124    9.4422204    0.2398686 
   65200   -284.15564    18.097062   -266.05857    1308.4576    5434.0359    9.5250414   0.25029391 
   65300   -282.01033    20.767036    -261.2433    1501.5027    1097.1271    9.3611374   0.32122783 
   65400   -281.48128    21.200292   -260.28099     1532.828    2818.3779    9.3298598   0.28739455 
   65500    -283.4581    17.982703    -265.4754    1300.1892   -7795.7521    9.3414951   0.22302378 
   65600    -285.3731    18.523097      -266.85    1339.2609    3064.4803    9.5186691   0.16706472 
   65700    -286.7128     18.96799   -267.74481    1371.4276    -1774.186    9.5061957   0.19491702 
   65800   -280.32191    17.287853   -263.03405      1249.95   -5174.1265    9.2275259   0.28819521 
   65900   -281.56407    18.140635   -263.42344     1311.608   -7964.3494    9.2412942   0.28847784 
   66000   -284.82071    16.241826   -268.57889      1174.32    4162.2875    9.5192095   0.18093018 
   66100   -284.32092    16.649637   -267.67129    1203.8056    12880.154    9.5862441   0.19530777 
   66200   -282.82807    18.767733   -264.06034    1356.9486    7689.2028    9.4678345   0.24141574 
   66300   -284.87118    17.143237   -267.72794    1239.4939   -5242.9764    9.4463792   0.22036395 
   66400   -287.78465    18.604805   -269.17984    1345.1686   -1494.3474     9.568352   0.17117905 
   66500   -281.84479    16.773862   -265.07092    1212.7873    808.49091    9.3842629   0.30350947 
   66600    -285.4413    21.195893   -264.24541      1532.51   -2573.0922    9.4581917   0.19973502 
   66700    -286.2278    18.845015   -267.38279    1362.5363    12665.799    9.6677624   0.17196827 
   66800   -285.62028    18.094884    -267.5254    1308.3002    6983.9591    9.5763164    0.2060427 
   66900   -283.75604    20.752389   -263.00365    1500.4436   -19237.264    9.2094532   0.23562505 
   67000   -285.28693    18.166619   -267.12031    1313.4867   -3951.3086    9.4599845   0.19986702 
   67100   -286.26651    17.557996   -268.70851     1269.482    11418.737    9.6775661   0.15113682 
   67200   -284.36452    18.945986   -265.41853    1369.8367    14253.744    9.5936965   0.21734619 
   67300     -281.858    18.599107   -263.25889    1344.7566    1601.4859     9.354129     0.279281 
   67400   -285.51557    17.360651   -268.15492    1255.2134   -8306.1564    9.4128862    0.2127074 
   67500   -284.94975    17.269745   -267.68001    1248.6408   -1132.0141    9.4847674   0.19916178 
   67600   -284.89447    21.560123   -263.33435    1558.8446     8519.516    9.5457262   0.22467761 
   67700   -281.87163    16.734508   -265.13712    1209.9419    6034.7292    9.4221278   0.28475141 
   67800   -285.39846     15.81961   -269.57885    1143.7928    3560.6071    9.5461256   0.18670046 
   67900   -283.62668    16.744791   -266.88189    1210.6854    2499.4762     9.472797   0.21489918 
   68000   -281.84163    17.752347   -264.08929    1283.5339    10957.171    9.4877647   0.19870285 
   68100    -285.7314    18.459045   -267.27235    1334.6298    12521.914    9.6480993   0.20598409 
   68200   -286.17394    18.000382   -268.17355    1301.4675    -8220.233    9.4421547   0.20736097 
   68300   -281.73506    18.604365   -263.13069    1345.1367   -6914.5737    9.2526788   0.26968951 
   68400   -286.24238    19.183706   -267.05868    1387.0244   -7477.5051     9.432716   0.21063371 
   68500   -285.92079    17.215042   -268.70575    1244.6856    8677.2471    9.6136627   0.20589694 
   68600   -283.79678    19.244421   -264.55236    1391.4142    8043.7144    9.4737204   0.24225574 
   68700   -282.32493    19.920667   -262.40426    1440.3083    2526.9463    9.3494542   0.29983802 
   68800   -286.02909    18.455235   -267.57385    1334.3543   -14030.199    9.3570872   0.21200151 
   68900   -283.96072    16.456141   -267.50458    1189.8154   -12530.214    9.3080829   0.23305372 
   69000   -281.89875    19.213352    -262.6854    1389.1679    6278.1029    9.3661651   0.26979269 
   69100   -282.43185    18.235369   -264.19648    1318.4575    8661.5441    9.4432037   0.30343919 
   69200   -284.72713    16.990823   -267.73631    1228.4741     3775.564    9.5123029   0.20807968 
   69300   -285.38274    18.889885   -266.49286    1365.7805   -1484.8325    9.4721638   0.20182622 
   69400   -281.37683    19.598691   -261.77813    1417.0287   -2239.8542    9.2901023    0.2723264 
   69500   -285.13138    17.830574   -267.30081    1289.1899   -3918.8587    9.4479504   0.22627281 
   69600   -284.75523    17.183583   -267.57165    1242.4111   -13213.294    9.3159971   0.26681511 
   69700   -281.93451    16.358923   -265.57558    1182.7863   -1753.5924    9.3259781   0.24869216 
   69800   -286.19869    18.595966   -267.60272    1344.5295   -10083.517    9.4152389   0.21714999 
   69900   -288.04178    17.247981   -270.79379    1247.0672    14026.337    9.7649298   0.15248038 
   70000   -285.59893    19.634667   -265.96426    1419.6299    10674.409    9.6462172   0.18637294 
   70100    -285.5871    19.821058   -265.76604    1433.1063   -1847.5636    9.4617217   0.17959947 
   70200   -284.80632    15.172744   -269.63358     1097.023   -2786.3718    9.4614131   0.18416598 
   70300   -287.24631    19.130635   -268.11568    1383.1872     8650.212    9.6654327   0.16801251 
   70400   -283.59215    19.408596   -264.18355    1403.2844    20431.539    9.6450173    0.2053426 
   70500   -284.97926    18.066291   -266.91297    1306.2328    13705.585    9.6447164   0.19710699 
   70600   -286.35151    16.827434   -269.52408    1216.6607   -1515.8995    9.5257851   0.18395382 
   70700   -283.64038     19.27718    -264.3632    1393.7827   -11681.181      9.28672   0.27010111 
   70800    -282.8268    17.805889   -265.02091    1287.4051    684.45065     9.422479   0.31743505 
   70900   -286.15688    19.974422   -266.18246    1444.1949    5032.3967    9.5898073   0.19139133 
   71000   -287.04833    17.321646   -269.72669    1252.3933   -1812.8159    9.5674374    0.2008849 
   71100   -282.73382    16.967856   -265.76596    1226.8135   -5852.3759    9.3368553   0.29331723 
   71200   -282.36627    17.638837   -264.72743    1275.3269   -14011.047    9.2158276   0.28592851 
   71300   -284.36178    16.226612   -268.13516    1173.2199   -18098.428    9.2442973   0.25635335 
   71400   -285.57823    18.645394   -266.93284    1348.1032   -11090.242    9.3615715   0.20585186 
   71500   -283.50371    21.688064   -261.81565     1568.095   -7516.3851    9.3273055   0.24178103 
   71600   -282.83223    19.083275   -263.74896     1379.763   -698.43094    9.3969202   0.25222388 
   71700   -285.78077    18.670381   -267.11039    1349.9099    7404.3832    9.5683222   0.20654554 
   71800   -284.81024    18.187515   -266.62273    1314.9976   -6237.3793    9.4205689   0.25363112 
   71900   -280.90627    18.769334   -262.13693    1357.0644   -11043.199    9.2066193     0.279566 
   72000    -285.3649    18.115455   -267.24945    1309.7875    3289.4623    9.5452594   0.18779709 
   72100   -284.94299    16.944507   -267.99848    1225.1254    9450.3901    9.5904132   0.19385651 
   72200   -282.49146    17.892458     -264.599    1293.6643    1247.8973    9.3972399   0.22014683 
   72300   -283.11486    19.753004   -263.36186    1428.1859    4.1508967     9.374997   0.23517459 
   72400   -285.28979    16.697765   -268.59202    1207.2853    1898.5186    9.5310765   0.18317388 
   72500   -284.94349    17.623328   -267.32016    1274.2056    1655.1456     9.493221   0.20143047 
   72600   -281.44281    17.875637   -263.56717    1292.4481    5338.4701    9.3990289   0.33356041 
   72700   -280.23315    19.429994   -260.80315    1404.8316     6667.099    9.3388926   0.32517142 
   72800   -286.40269    20.026528   -266.37617    1447.9623   -7196.6027      9.45246    0.2262128 
   72900   -285.63016    18.360646   -267.26951    1327.5153    367.67095    9.5219581   0.19112996 
   73000   -283.05651     15.67996   -267.37655    1133.6958    3836.0475    9.4750453   0.29905264 
   73100   -281.91073     18.49169   -263.41904    1336.9901    680.98603    9.3855919   0.25369011 
   73200   -284.51569    18.523624   -265.99206     1339.299   -8329.2892    9.3626777   0.24343093 
   73300   -285.91789    16.586214   -269.33168      1199.22    3527.6858    9.5759582   0.21799962 
   73400   -285.93577     18.81635   -267.11942    1360.4638    11890.546    9.6569352   0.18060475 
   73500   -284.85529    21.286891    -263.5684    1539.0893   -71.474013    9.4613363   0.24178222 
   73600   -284.02133    15.323613   -268.69772    1107.9311    3820.5099    9.4886228   0.23115737 
   73700   -285.53624    17.181404   -268.35483    1242.2535   -18046.444    9.3194032      0.22386 
   73800   -283.23722    18.333748   -264.90347    1325.5705   -14607.348     9.223125   0.25345638 
   73900   -285.13058    20.304139   -264.82644    1468.0341    2851.2902    9.4953789   0.21607556 
   74000   -286.83822     18.06528   -268.77294    1306.1597    5417.6304    9.6216853   0.16589022 
   74100   -285.60582    19.454008   -266.15181    1406.5678    3199.6358    9.5269803   0.15775393 
   74200   -283.42881    20.013605    -263.4152    1447.0279   -598.72339    9.4285773   0.24408517 
   74300   -285.83608     17.48782   -268.34826    1264.4081    7390.5637     9.604598    0.2094048 
   74400   -285.29152     16.34916   -268.94236    1182.0805   -5691.7537    9.4553369    0.2310735 
   74500   -282.90739    16.439977   -266.46741    1188.6467   -5552.7168    9.3381003   0.29315018 
   74600   -283.40964     18.99589   -264.41375    1373.4448   -11889.542    9.2680173   0.26559855 
   74700   -287.09027     18.14481   -268.94546    1311.9099    11717.219    9.6800899   0.16145825 
   74800   -288.58613    19.851558   -268.73457    1435.3116    22094.985    9.8721386   0.12253977 
   74900   -284.96517    19.799493   -265.16568    1431.5471    9055.2132    9.6033386   0.20594315 
   75000   -283.15881    16.511605   -266.64721    1193.8256    8570.0565     9.523938   0.24569584 
   75100   -285.49033    17.774122   -267.71621    1285.1083   -10593.917    9.4175934   0.18894772 
   75200   -281.85657    18.912468    -262.9441    1367.4133   -12710.746    9.2359749    0.2604245 
   75300   -280.54769    17.720376   -262.82731    1281.2224    13434.133     9.409504   0.26695592 
   75400   -283.85579    17.343809   -266.51198    1253.9957    1265.0832    9.4673348   0.23793743 
   75500   -284.02334    16.273219   -267.75012    1176.5897    10084.929    9.5785353   0.22956439 
   75600   -283.48722    18.496378   -264.99084     1337.329    4510.0186    9.4648054   0.20177068 
   75700   -282.61403    19.082267   -263.53176    1379.6901   -3016.6863    9.3587214   0.23223815 
   75800   -285.24895    17.936498   -267.31246    1296.8485    -4121.093    9.4553169   0.21120756 
   75900    -286.2865    17.876664   -268.40983    1292.5224   -4255.1175    9.4879615   0.20560394 
   76000   -282.45779    19.099504   -263.35829    1380.9363   -7940.1257     9.276876   0.26726901 
   76100   -280.85528    16.258161   -264.59712     1175.501   -1069.9482    9.2733502   0.27743068 
   76200   -284.49297    16.987355   -267.50562    1228.2233   -18880.637    9.2714412   0.21752432 
   76300   -285.94568    17.008254   -268.93742    1229.7344    742.12824    9.5591189   0.22987577 
   76400   -283.61735    20.404048    -263.2133    1475.2578    405.10159    9.4211927   0.24324076 
   76500   -284.72663    18.598244   -266.12839    1344.6941    13387.996    9.6180364   0.19090373 
   76600   -285.31682    17.280478   -268.03635    1249.4168    4852.4592    9.5622557   0.20988099 
   76700   -283.12569    18.163013   -264.96268     1313.226   -10234.505    9.2881622   0.26654057 
   76800    -282.0563    18.639115   -263.41719    1347.6492    64.274036    9.3428424   0.26828513 
   76900   -286.42797    18.409788   -268.01819    1331.0684   -8001.9411    9.4489566   0.21292386 
   77000   -284.82511    17.051541   -267.77357    1232.8642    2576.5679    9.5163021   0.19021657 
   77100   -284.04129     21.36125   -262.68004    1544.4656    12548.491    9.5835771   0.22834278 
[...]
  481400   -288.96176    17.191247   -271.77051    1242.9652     3934.291    9.6993959   0.78010297 
  481500   -285.46611    18.167394   -267.29871    1313.5428    2916.1868    9.5518548   0.79435121 
  481600   -283.61651    17.887189   -265.72932    1293.2833    2454.6851    9.4437438   0.85089197 
  481700   -285.08386    18.352701   -266.73116    1326.9409   -13308.834    9.3522993   0.77539567 
  481800   -285.32602    14.667332   -270.65869    1060.4806   -2886.3261    9.4722357   0.86153314 
  481900   -285.74236    18.746231   -266.99613     1355.394   -5164.6691    9.4574908   0.82954891 
  482000   -284.65615    19.074741   -265.58141     1379.146    7390.0481    9.5564943   0.88854589 
  482100    -285.6108     17.60752   -268.00328    1273.0627    9034.2228    9.6272926   0.80466202 
  482200   -289.12142     17.18048   -271.94094    1242.1867    7887.3175    9.7414112   0.77022907 
  482300   -283.49887    15.829346   -267.66953    1144.4967    964.08197    9.4584725   0.91213816 
  482400   -285.00371    18.851454   -266.15226    1363.0018   -12270.724    9.3451037   0.87935542 
  482500    -285.1028    15.594363   -269.50844    1127.5069    2932.5121     9.517725   0.81007564 
  482600   -286.58949    16.246503   -270.34299    1174.6581   -1968.3513    9.5521441   0.83319821 
  482700   -285.88588    20.378424   -265.50746    1473.4051   -6505.7522    9.4180332   0.79358355 
  482800   -284.48581    17.194908    -267.2909    1243.2299     11258.54    9.5891396   0.88877922 
  482900   -287.06271    16.874271   -270.18844    1220.0471   -878.19177    9.5548046   0.84112777 
  483000    -286.3439    19.547256   -266.79664    1413.3098   -13758.211    9.3858787   0.79970546 
  483100   -285.63773     20.43651   -265.20122    1477.6049    2721.7208     9.511916   0.88085619 
  483200   -285.59181    18.478865   -267.11295    1336.0628    8040.1002     9.606143   0.81150957 
  483300   -283.69859    15.829989    -267.8686    1144.5432    1585.9688    9.4624419   0.78634401 
  483400    -282.8475    20.371599    -262.4759    1472.9116   -6777.8826    9.3229647   0.93354271 
  483500   -284.85799    19.592925   -265.26506    1416.6118    5572.3032      9.50895   0.75919722 
  483600   -285.43623    17.033466   -268.40276    1231.5573    11713.666    9.6462311   0.81823739 
  483700   -285.66208     19.34474   -266.31734    1398.6675   -1860.8268    9.4664876   0.93243508 
  483800   -284.66709    22.235904   -262.43119    1607.7051   -18536.984    9.2422027   0.82834271 
  483900     -285.632    18.525971   -267.10603    1339.4687   -16787.203    9.3295254   0.90024908 
  484000   -285.71929    17.878323   -267.84097    1292.6423   -3714.2244    9.4769498   0.84160038 
  484100   -281.65635    18.537916   -263.11844    1340.3323    21422.026    9.5885307   0.96207679 
  484200   -281.86455    20.808158    -261.0564    1504.4759    6836.0749    9.4006414   0.99394389 
  484300   -284.11785    16.681177   -267.43668     1206.086    8006.1939    9.5120326   0.87963598 
  484400   -283.25122    15.356315   -267.89491    1110.2956   -5045.6957    9.3684133   0.83513609 
  484500   -283.93539    18.439157   -265.49624    1333.1918   -8786.8109    9.3453769   0.86511555 
  484600   -281.95816    19.339244   -262.61892    1398.2701   -7754.4189    9.2570503    1.0751355 
  484700   -287.17106    19.882112   -267.28895    1437.5207   -4043.3569      9.50291   0.85208666 
  484800   -286.35042    18.473398   -267.87702    1335.6675      3099.71    9.5897936   0.87388634 
  484900   -279.42223     17.03859   -262.38364    1231.9277     3193.185    9.2948082    1.0486294 
  485000   -281.79984     19.67435   -262.12549     1422.499   -7404.0694     9.234049   0.93751038 
  485100   -285.39259    18.130516   -267.26207    1310.8764    -4194.354    9.4453186   0.84540831 
  485200   -283.25644    16.940261   -266.31618    1224.8183    24928.668    9.7052094   0.76928031 
  485300   -286.25139    19.070575   -267.18082    1378.8447    2264.2264    9.5477508   0.86128522 
  485400   -288.76196     16.51142   -272.25054    1193.8122   -3971.6868    9.6066173   0.78897236 
  485500   -284.33231    16.073044   -268.25926    1162.1166   -8479.2048    9.3702876   0.84631639 
  485600   -283.22528    16.521026   -266.70426    1194.5067    273.00344    9.4366317    0.8866096 
  485700   -285.11383    18.321786   -266.79205    1324.7057    -2515.799    9.4308196   0.85598205 
  485800   -286.29812    16.262095   -270.03602    1175.7854   -8872.8041    9.4502211    0.8361551 
  485900   -287.13829      16.2929   -270.84539    1178.0127   -6721.4652    9.5206365   0.80701356 
  486000   -286.76175    19.202047    -267.5597    1388.3505    3275.5927    9.5884241   0.68572096 
  486100   -285.86369    19.431201   -266.43249    1404.9188     7709.789    9.5998101   0.77564957 
  486200   -285.76174    17.857643    -267.9041    1291.1471    6259.5182    9.5998078   0.83392301 
  486300   -289.18145    17.064023   -272.11743    1233.7666    13214.841    9.8031021   0.70378064 
  486400   -286.85735    18.633836   -268.22352    1347.2676    1580.9182     9.582762   0.79662815 
  486500   -284.09864    18.656627   -265.44201    1348.9154   -4925.2623    9.3973637   0.88800356 
  486600   -283.41076    17.634682   -265.77608    1275.0265   -4398.3906    9.3680311   0.84066563 
  486700   -288.68404    18.532407   -270.15163     1339.934   -11278.482    9.5099638   0.77843562 
  486800   -286.22481     19.79575   -266.42906    1431.2765    19618.082     9.745654   0.83172219 
  486900   -283.24037    18.928052   -264.31232      1368.54   -2629.1973    9.3848782   0.82112435 
  487000   -285.00607    18.139808   -266.86626    1311.5483   -9966.9989    9.3637938   0.80850462 
  487100   -286.46955     16.11082   -270.35873    1164.8479   -19703.567    9.3546484   0.85948901 
  487200   -284.47491    17.398677   -267.07623    1257.9628    3849.4734    9.5095071   0.81601175 
  487300   -282.60893    17.247308   -265.36162    1247.0185    11832.908    9.5354366   0.88363363 
  487400   -287.60961    17.801268   -269.80834     1287.071   -1174.3097    9.5895337   0.83351093 
  487500   -288.66122    19.035657   -269.62556    1376.3201   -3822.4324    9.5562394   0.77828048 
  487600   -284.44155    18.431639   -266.00991    1332.6483    3831.4032    9.5139729   0.75283815 
  487700    -286.1178    20.123673   -265.99413     1454.986   -12063.434    9.3979069     0.763182 
  487800    -289.0154    17.807929   -271.20748    1287.5527   -2647.9304    9.6285427   0.79608006 
  487900   -285.30936    16.642201   -268.66716    1203.2679   -3001.2204    9.4822814   0.91123362 
  488000   -285.75113     19.37812   -266.37301    1401.0809     3646.753    9.5439143   0.76505977 
  488100   -283.09178    16.414209   -266.67757    1186.7836    16791.646    9.5995186    0.8634694 
  488200   -281.87775    19.952334   -261.92541    1442.5979   -3371.7593    9.3020793   0.87699754 
  488300   -282.96248    16.855458   -266.10702    1218.6869   -221.36776     9.374847   0.92116622 
  488400   -286.04822    16.496219     -269.552    1192.7131   -9698.5096    9.4271977    0.8001386 
  488500   -283.25165    16.631217   -266.62043    1202.4738    10592.473    9.5376297   0.88670216 
  488600   -283.48583    19.102065   -264.38376    1381.1215    585.06937    9.4266859   0.83317318 
  488700    -287.3302    19.055385   -268.27481    1377.7465   -3233.4876    9.5529441   0.78873866 
  488800   -286.59885    17.400348    -269.1985    1258.0837    7461.8674    9.6468703   0.84112493 
  488900   -284.32924    18.337547   -265.99169    1325.8452    9243.1244    9.5552625   0.90331188 
  489000   -284.58197    22.180606   -262.40136    1603.7069   -10982.362    9.3166442   0.83154408 
  489100   -284.24548    17.408703   -266.83678    1258.6877   -4270.6397    9.4085962   0.77495832 
  489200   -284.78361    16.203063   -268.58055    1171.5173     10177.88    9.5899821   0.92141925 
  489300   -284.52047      19.7975   -264.72297    1431.4031    3373.9849    9.4861044   0.82570144 
  489400   -285.51447    19.631876   -265.88259    1419.4281    12177.826    9.6253394   0.88378711 
  489500   -287.48707    19.779456   -267.70761    1430.0984    6097.0483    9.6546445   0.75819462 
  489600   -283.22462    16.332976   -266.89165    1180.9103    4268.8646    9.4598045   0.83159695 
  489700   -279.74893    18.053783   -261.69515    1305.3285    -16389.81    9.0664404   0.92789224 
  489800   -284.72124    19.420009   -265.30123    1404.1096   -10920.208    9.3411771   0.84760418 
  489900   -286.00913    18.075652   -267.93348    1306.9097    8378.4741    9.6158339   0.82836878 
  490000   -283.86769    18.587442   -265.28025    1343.9131    170.87056    9.4277239   0.87490076 
  490100   -280.14152     17.03348   -263.10804    1231.5583   -819.94568    9.2614828   0.92464301 
  490200   -285.51682    17.031428   -268.48539    1231.4099   -9094.2033    9.3950345   0.82529643 
  490300   -284.63018    17.981289    -266.6489     1300.087    970.28897    9.4377002   0.82127961 
  490400   -283.35737    17.165863   -266.19151    1241.1298    4666.1093    9.4464509   0.95816515 
  490500   -286.78565     22.24079   -264.54486    1608.0583   -1406.8959    9.5290976   0.77786322 
  490600   -287.39784    18.489003   -268.90884    1336.7958    17545.191    9.7805606   0.82567522 
  490700   -288.06669    17.787506   -270.27918     1286.076     9316.028    9.7131261    0.7545096 
  490800   -286.24116    18.360657    -267.8805    1327.5161     380.8757    9.5524665   0.79747514 
  490900   -284.70801    19.389265   -265.31874    1401.8867    3723.9248    9.5249877   0.83264649 
  491000   -284.44935    18.224447   -266.22491    1317.6679    5669.2496    9.5119768   0.78808964 
  491100   -287.67357    16.325069    -271.3485    1180.3386    1689.2724    9.6128437   0.69694259 
  491200   -285.14299     17.65293   -267.49006    1276.3459   -10340.283    9.3744786   0.82558493 
  491300   -282.49895    16.626137   -265.87281    1202.1065   -8484.3122    9.2814711   0.91087388 
  491400   -283.44087     14.75474   -268.68613    1066.8003   -209.03628     9.418588   0.84044711 
  491500   -288.85465    18.280215   -270.57444       1321.7   -9537.6474    9.5176966   0.81091285 
  491600   -284.75807    19.672732   -265.08533     1422.382     6875.177    9.5207912   0.89470801 
  491700   -283.96987    18.451432   -265.51844    1334.0794    1058.6789    9.4658352   0.80985674 
  491800   -286.00531    16.840895   -269.16442    1217.6339   -454.21514    9.5358306   0.72201978 
  491900    -286.4792    20.503142   -265.97606    1482.4225    -3616.746    9.4880655   0.79951766 
  492000   -284.72216    19.610596   -265.11157    1417.8895   -1395.3484    9.4446412   0.86958266 
  492100   -285.31022    16.437169   -268.87305    1188.4437   -4909.4466    9.4414156   0.84250448 
  492200   -283.84004    16.022803   -267.81723    1158.4841   -10378.936     9.328644   0.94061315 
  492300   -284.64566     20.94524   -263.70042    1514.3871    -7479.306    9.3487749    0.8141931 
  492400   -285.54657    18.410038   -267.13653    1331.0865    2881.6713    9.5221154   0.83337787 
  492500   -284.47912    17.148839   -267.33028     1239.899    8097.4991    9.5608761   0.81654882 
  492600   -283.06394    20.936362   -262.12757    1513.7453   -7954.4955    9.3132828   0.71959936 
  492700   -284.23041    18.301889   -265.92852     1323.267    12781.808     9.597606   0.92888336 
  492800   -286.27527    17.234465    -269.0408    1246.0899    1208.5801    9.5435975   0.81803892 
  492900   -284.16832     18.01422   -266.15411    1302.4679   -12553.993    9.3065403   0.83247475 
  493000   -280.57466    17.372351   -263.20231    1256.0594   -8982.5728    9.1814485   0.96258973 
  493100    -285.4019    17.829531   -267.57237    1289.1145   -476.31759     9.486262   0.76368647 
  493200    -286.2506    17.788447   -268.46215     1286.144    2168.4019    9.5637519   0.84058831 
  493300   -284.77555     20.70404   -264.07151    1496.9479    6829.5991    9.5276062   0.82640143 
  493400   -283.56103    17.807995   -265.75304    1287.5574    7705.9302    9.5256849   0.86722045 
  493500   -287.25177    17.544819   -269.70695    1268.5292   -7651.0334     9.494457   0.86195523 
  493600   -286.34929    18.114515   -268.23477    1309.7195   -7830.6493    9.4430179   0.81157102 
  493700   -283.74698       18.753   -264.99398    1355.8834    12385.325    9.5793089    0.8676217 
  493800   -284.88992     18.28037   -266.60955    1321.7112    10328.142     9.630389   0.85506617 
  493900    -285.7813    20.109678   -265.67162    1453.9742    15822.885    9.6691452   0.88407274 
  494000   -281.08224     19.03441   -262.04783    1376.2299    2575.4993    9.3443266   0.92287921 
  494100   -282.68395    16.780106   -265.90384    1213.2388    -5829.525     9.324774   0.90108432 
  494200   -283.33485    16.147641    -267.1872    1167.5102     10671.15    9.5597825   0.78270515 
  494300   -287.92723    17.918951   -270.00828    1295.5798    7347.5541    9.6817384   0.75657784 
  494400    -287.3674    14.152389   -273.21501     1023.249    4393.3384    9.6585072    0.8427483 
  494500   -284.02737    16.165864   -267.86151    1168.8277   -11413.435    9.3314619   0.82863104 
  494600   -286.64471     19.15753   -267.48718    1385.1318   -6416.2114    9.4850884   0.75954079 
  494700   -284.13241     17.12735   -267.00506    1238.3453    24915.375     9.728342   0.86359989 
  494800   -282.86853     20.58587   -262.28266    1488.4039    98.045678    9.3712536   0.86346984 
  494900   -284.77614    18.974138     -265.802    1371.8722    -7767.649    9.3666563   0.78186133 
  495000   -285.28514    17.581751   -267.70339    1271.1995   -9153.7455    9.4075403   0.90903236 
  495100   -283.75168    16.525201   -267.22648    1194.8086    4707.0564    9.4970444   0.78033309 
  495200     -281.141    19.253004     -261.888    1392.0347    2335.2418    9.3143159   0.90908366 
  495300   -285.66466    19.448411   -266.21625    1406.1631   -4213.9538    9.4558547   0.87093518 
  495400   -287.17955    18.709321   -268.47023    1352.7253    978.67431    9.5762535   0.74228404 
  495500   -286.46732    18.940531   -267.52678    1369.4423    5645.2475     9.598934   0.83115434 
  495600   -282.25863     19.53449   -262.72414    1412.3868   -1934.5544    9.3325586   0.84628728 
  495700   -284.66186    17.819922   -266.84193    1288.4198    -4307.787    9.4263256    0.8399486 
  495800   -285.57507    16.830041   -268.74503    1216.8492   -94.849983    9.4878565   0.85545747 
  495900   -282.99997    18.041069    -264.9589    1304.4092    963.85244    9.4200434   0.86802703 
  496000   -284.92953    20.959808   -263.96972    1515.4405   -3949.9575     9.392701   0.84671093 
  496100   -286.04803    17.001066   -269.04697    1229.2147   -5773.5425    9.4825886   0.79523809 
  496200    -285.4481    17.430767   -268.01734     1260.283   -5379.4968    9.4461928   0.85770703 
  496300   -283.49047    19.321845   -264.16863    1397.0121   -6700.6962    9.3424763   0.82682851 
  496400   -286.62994    18.454881   -268.17505    1334.3287    1945.5008    9.5631232   0.80850187 
  496500   -286.24383    17.273215   -268.97061    1248.8917    2051.9503    9.5472443   0.85122317 
  496600    -284.9971    19.521197    -265.4759    1411.4257    6043.6032    9.5450676   0.82252835 
  496700   -285.67523    17.546091   -268.12914    1268.6212   -6875.0751    9.4125798   0.84177936 
  496800   -285.97007    15.105887   -270.86418    1092.1891   -11275.259    9.4166857   0.88821321 
  496900    -283.9579    17.754768   -266.20314     1283.709   -656.97073     9.459242   0.85366494 
  497000   -284.98101    18.753731   -266.22728    1355.9362    10803.016    9.5729505   0.84566059 
  497100     -288.646    18.262639   -270.38336    1320.4292    1376.9837    9.6520156    0.7394505 
  497200   -287.53042    16.652304   -270.87812    1203.9984   -7806.6217    9.5175686   0.84184912 
  497300   -285.66569    18.400275   -267.26542    1330.3806   -11621.996    9.4018496    0.8219565 
  497400   -285.16545    18.539844   -266.62561    1340.4717   -1810.8259    9.4651209   0.79600919 
  497500   -284.33704    21.739843    -262.5972    1571.8387    6610.7898    9.5375258   0.83338746 
  497600   -282.82795    19.268003   -263.55994    1393.1192     16289.03    9.5711832    0.8174027 
  497700   -284.16318    16.711578   -267.45161     1208.284   -3917.9156     9.413341   0.91285146 
  497800   -286.05258    18.854611   -267.19797    1363.2301   -10936.978    9.3960602    0.8601275 
  497900   -280.71468    19.046953   -261.66773    1377.1368   -6486.2509    9.2491001    0.8690598 
  498000   -285.09027    19.218243   -265.87203    1389.5215    4979.0316    9.5398415   0.79280435 
  498100   -286.48272    18.996953   -267.48577    1373.5217    14841.907    9.7077772   0.74495891 
  498200   -286.44669    20.937528   -265.50916    1513.8296    8032.2522    9.6094666   0.82663956 
  498300   -283.33151    18.993893   -264.33762    1373.3005    -1194.263    9.3985613   0.82830055 
  498400   -285.47887    15.421808   -270.05706    1115.0308    12058.861    9.6666181   0.80158211 
  498500   -284.57052    16.537111   -268.03341    1195.6697    3523.4201    9.5005394   0.84307219 
  498600   -281.78859    16.752313   -265.03628    1211.2293    9123.4629    9.4483039   0.96540474 
  498700   -281.51743    16.472518   -265.04491    1190.9995   -11963.002    9.2240244   0.96939854 
  498800   -286.33395    16.309025   -270.02493    1179.1786   -15500.306     9.383172   0.78466925 
  498900   -285.68701    17.523398   -268.16362    1266.9804   -8859.4483    9.4359022    0.9144753 
  499000   -283.33556    18.907782   -264.42777    1367.0744   -3039.0001    9.3768172   0.83308667 
  499100   -285.91984    18.974584   -266.94526    1371.9044    4728.3117    9.5761907     0.844803 
  499200   -287.81627    18.733742   -269.08253     1354.491   -6765.0842     9.547534    0.7934531 
  499300   -283.93566    19.361055   -264.57461    1399.8471    4348.4446    9.5025888   0.87288207 
  499400    -284.4909    18.620627   -265.87028    1346.3125    1310.0547    9.4635482   0.85407467 
  499500   -285.95883    16.344924   -269.61391    1181.7741    8496.4992    9.6218692   0.82651427 
  499600   -285.84276     19.82185   -266.02091    1433.1636   -2091.9177    9.4720172   0.86383382 
  499700   -283.56283    17.487572   -266.07526    1264.3901   -6847.6859    9.3613257   0.91582438 
  499800   -286.73922    15.068801   -271.67042    1089.5076   -4357.6084    9.5224127   0.73128775 
  499900   -285.87091    16.646187   -269.22472    1203.5562    1936.8821    9.5517702   0.85364479 
  500000   -285.63352    20.146315   -265.48721    1456.6232    8810.4378    9.6086737   0.78754142 
Loop time of 147.758 on 1 procs for 500000 steps with 108 atoms

Performance: 1461.853 ns/day, 0.016 hours/ns, 3383.919 timesteps/s
100.0% CPU use with 1 MPI tasks x no OpenMP threads

MPI task timing breakdown:
Section |  min time  |  avg time  |  max time  |%varavg| %total
---------------------------------------------------------------
Pair    | 87.888     | 87.888     | 87.888     |   0.0 | 59.48
Neigh   | 5.346      | 5.346      | 5.346      |   0.0 |  3.62
Comm    | 2.4911     | 2.4911     | 2.4911     |   0.0 |  1.69
Output  | 0.10792    | 0.10792    | 0.10792    |   0.0 |  0.07
Modify  | 51.432     | 51.432     | 51.432     |   0.0 | 34.81
Other   |            | 0.4932     |            |       |  0.33

Nlocal:    108 ave 108 max 108 min
Histogram: 1 0 0 0 0 0 0 0 0 0
Nghost:    990 ave 990 max 990 min
Histogram: 1 0 0 0 0 0 0 0 0 0
Neighs:    4983 ave 4983 max 4983 min
Histogram: 1 0 0 0 0 0 0 0 0 0

Total # of neighbors = 4983
Ave neighs/atom = 46.1389
Neighbor list builds = 23588
Dangerous builds = 0
    
Total wall time: 0:02:27
