LAMMPS (3 Mar 2020)
Reading data file ...
  orthogonal box = (0 0 0) to (17.469 17.469 17.469)
  1 by 1 by 1 MPI processor grid
  reading atoms ...
  217 atoms
  read_data CPU = 0.000961287 secs
Reading potential file library.meam with DATE: 2012-06-29
Reading potential file LiSi.meam with DATE: 2020-11-07
1 atoms in group Li
Neighbor list info ...
  update every 1 steps, delay 10 steps, check yes
  max neighbors/atom: 2000, page size: 100000
  master list distance cutoff = 6
  ghost atom cutoff = 6
  binsize = 3, bins = 6 6 6
  2 neighbor lists, perpetual/occasional/extra = 2 0 0
  (1) pair meam/c, perpetual
      attributes: full, newton on
      pair build: full/bin/atomonly
      stencil: full/bin/3d
      bin: standard
  (2) pair meam/c, perpetual, half/full from (1)
      attributes: half, newton on
      pair build: halffull/newton
      stencil: none
      bin: none
Setting up Verlet run ...
  Unit style    : metal
  Current step  : 0
  Time step     : 0.00442933
Per MPI rank memory allocation (min/avg/max) = 9.27 | 9.27 | 9.27 Mbytes
Step PotEng KinEng TotEng Temp Press Density c_msdli[4] 
       0   -951.04357    50.256344   -900.78722         1800   -114161.75    1.8918427            0 
     100   -953.73492    40.402604   -913.33231    1447.0747   -34713.858    2.1036577   0.10656513 
     200   -949.78426    42.015954   -907.76831    1504.8591   -27357.371    2.1118665   0.18311656 
     300   -944.55807    41.691653   -902.86641    1493.2438    -20344.57     2.116833    0.2205257 
     400   -939.06962    40.744618     -898.325    1459.3245   -14160.918    2.1207627   0.28920237 
     500   -941.61773     47.44633    -894.1714    1699.3555   -14495.945    2.1223246  0.076428851 
     600   -935.61557    45.316107   -890.29946    1623.0586   -9616.6586    2.1252649   0.18153893 
     700   -939.01403    51.455958   -887.55807    1842.9658    -9488.093    2.1282829  0.078375842 
     800   -935.15021    49.166155   -885.98406    1760.9534   -4758.8254    2.1287678   0.14384664 
     900   -940.48223    43.912814   -896.56942    1572.7978   -708.06276    2.1596945   0.27483714 
    1000   -939.00183    48.152002   -890.84983    1724.6301    293.16475    2.1562092  0.088205599 
    1100   -936.14479    49.277908   -886.86688     1764.956    2872.4667    2.1528565    0.4272231 
    1200   -941.36862    51.567951   -889.80067     1846.977     654.2069    2.1587961    0.1961738 
    1300   -942.33234    46.242852   -896.08949    1656.2513    5043.3228    2.1738717    0.2475987 
    1400   -939.09097    51.424268   -887.66671    1841.8308    3543.4459    2.1667519   0.23593963 
    1500   -936.90681    49.734552   -887.17226    1781.3113    7351.5215    2.1709708   0.30491001 
    1600   -944.52055    48.798911   -895.72164       1747.8    8933.9959    2.1893973   0.26882867 
    1700   -937.74145    48.674336   -889.06711    1743.3382    12657.935    2.1851759  0.060555199 
    1800   -940.36893    53.905436   -886.46349    1930.6972    10480.832    2.1822546    0.1866366 
    1900   -938.53483    47.634795   -890.90003    1706.1056    13153.476    2.1901756   0.44012092 
    2000   -942.76029    47.534785   -895.22551    1702.5236    12059.138    2.1980684   0.48720654 
    2100   -936.03496    52.309125   -883.72584    1873.5232    9556.3883    2.1758963   0.32627101 
    2200     -937.945    50.389671   -887.55533    1804.7753     9813.914    2.1805053   0.29247559 
    2300   -941.05301    50.081958   -890.97106    1793.7541    10864.372    2.1846507   0.39216636 
    2400   -933.70362    50.403339   -883.30028    1805.2648    14040.992    2.1776917   0.23212322 
    2500   -935.89633    52.877618   -883.01871    1893.8845    11879.889    2.1748507   0.40381893 
    2600   -940.36319    50.814283   -889.54891    1819.9833    9146.9063    2.1842212    0.3250901 
    2700     -941.494    53.243133   -888.25086    1906.9759    9336.2228    2.1832976    0.2272906 
    2800    -934.5149    55.938153   -878.57675    2003.5018    7183.2182    2.1602556    0.2943567 
    2900   -938.16382    49.740665   -888.42316    1781.5302    9189.3528    2.1776687  0.032089157 
    3000   -938.45658    48.723536   -889.73304    1745.1004    9877.3719    2.1777988   0.22565608 
    3100   -934.02454    51.119005   -882.90553    1830.8974    7526.0325    2.1642564   0.33249743 
    3200     -938.232    54.293635   -883.93836    1944.6011    3168.2536    2.1606338  0.071393727 
    3300   -938.76955    47.985355   -890.78419    1718.6614    2814.8609    2.1653081    0.1371095 
    3400   -940.13925    52.647505   -887.49174    1885.6427   -614.25725    2.1540627    0.1351517 
    3500   -935.29827    55.198798   -880.09947    1977.0208   -179.52848    2.1425843    7.2686202 
    3600   -941.61617    51.484832   -890.13134         1844   -991.48138    2.1594344    6.0061341 
    3700   -938.83242    49.212412   -889.62001    1762.6101    2948.4228    2.1618607    6.7629512 
    3800   -936.71142    51.298944   -885.41247    1837.3421    2939.4071    2.1541556    10.000696 
    3900   -935.42071    50.466952   -884.95376    1807.5432    2375.5678       2.1501    9.2903311 
    4000    -940.1635    47.360741   -892.80276      1696.29   -681.72657    2.1603169    7.1294484 
    4100   -937.37079    50.662519   -886.70827    1814.5477   -621.52321    2.1493522    6.6463273 
    4200   -937.28612    52.305288   -884.98084    1873.3857   -5838.8276    2.1429906    6.5575154 
    4300   -939.75059    45.295071   -894.45552    1622.3052   -2408.1164    2.1578088    4.9964606 
    4400   -941.55247    53.396224   -888.15625    1912.4591   -6787.7702    2.1439112    7.3667827 
    4500   -935.08653     51.97514   -883.11139     1861.561   -6464.1439    2.1352807     15.31329 
    4516   -934.58902    50.822223    -883.7668    1820.2677   -6462.9199    2.1373322    12.578932 
Loop time of 3.21435 on 1 procs for 4516 steps with 217 atoms

Performance: 537.666 ns/day, 0.045 hours/ns, 1404.949 timesteps/s
100.0% CPU use with 1 MPI tasks x no OpenMP threads

MPI task timing breakdown:
Section |  min time  |  avg time  |  max time  |%varavg| %total
---------------------------------------------------------------
Pair    | 3.0155     | 3.0155     | 3.0155     |   0.0 | 93.82
Neigh   | 0.12734    | 0.12734    | 0.12734    |   0.0 |  3.96
Comm    | 0.022734   | 0.022734   | 0.022734   |   0.0 |  0.71
Output  | 0.0012995  | 0.0012995  | 0.0012995  |   0.0 |  0.04
Modify  | 0.040702   | 0.040702   | 0.040702   |   0.0 |  1.27
Other   |            | 0.006724   |            |       |  0.21

Nlocal:    217 ave 217 max 217 min
Histogram: 1 0 0 0 0 0 0 0 0 0
Nghost:    949 ave 949 max 949 min
Histogram: 1 0 0 0 0 0 0 0 0 0
Neighs:    4092 ave 4092 max 4092 min
Histogram: 1 0 0 0 0 0 0 0 0 0
FullNghs:  8184 ave 8184 max 8184 min
Histogram: 1 0 0 0 0 0 0 0 0 0

Total # of neighbors = 8184
Ave neighs/atom = 37.7143
Neighbor list builds = 218
Dangerous builds = 13
Total wall time: 0:00:03
