LAMMPS (3 Mar 2020)
Reading data file ...
  orthogonal box = (0 0 0) to (12.27 12.27 12.27)
  1 by 1 by 1 MPI processor grid
  reading atoms ...
  108 atoms
  read_data CPU = 0.000923529 secs
Reading potential file /usr/share/lammps-stable/potentials/Ag_u3.eam with DATE: 2007-06-11
Neighbor list info ...
  update every 1 steps, delay 10 steps, check yes
  max neighbors/atom: 2000, page size: 100000
  master list distance cutoff = 7.55
  ghost atom cutoff = 7.55
  binsize = 3.775, bins = 4 4 4
  2 neighbor lists, perpetual/occasional/extra = 1 1 0
  (1) pair eam, perpetual
      attributes: half, newton on
      pair build: half/bin/atomonly/newton
      stencil: half/bin/3d/newton
      bin: standard
  (2) compute rdf, occasional, copy from (1)
      attributes: half, newton on
      pair build: copy
      stencil: none
      bin: none
Setting up Verlet run ...
  Unit style    : metal
  Current step  : 0
  Time step     : 0.00945742
Per MPI rank memory allocation (min/avg/max) = 3.723 | 3.723 | 3.723 Mbytes
Step PotEng KinEng TotEng Temp Press Density c_msdall[4] 
       0       -307.8    4.1492507   -303.65075          300     2399.079    10.472245            0 
     100   -306.00344    2.3743827   -303.62906    171.67312    7908.5392    10.472245 0.0089208422 
     200   -305.79215    2.1668774   -303.62527    156.67003    8527.4263    10.472245 0.0084117286 
     300   -305.45315     1.831441   -303.62171    132.41724    9503.5416    10.472245 0.0099756853 
     400   -305.48234    1.8562031   -303.62614    134.20759     9337.555    10.472245  0.011280787 
     500   -305.51988    1.8944797    -303.6254    136.97507    9247.8127    10.472245  0.010484022 
     600   -305.62884    2.0028472   -303.62599    144.81028    8922.9624    10.472245  0.009911926 
     700   -305.67865    2.0542266   -303.62443    148.52513    8863.8306    10.472245 0.0089080872 
     800   -305.60239    1.9782182   -303.62418    143.02955     9125.724    10.472245 0.0098828744 
     900   -305.58686    1.9633522   -303.62351    141.95471    9057.1731    10.472245 0.0088186934 
    1000   -305.60158     1.977809   -303.62377    142.99996    9023.9494    10.472245 0.0098680981 
    1058   -305.62046    1.9948191   -303.62564    144.22983    8949.7005    10.472245  0.011073052 
Loop time of 0.202592 on 1 procs for 1058 steps with 108 atoms

Performance: 4267.274 ns/day, 0.006 hours/ns, 5222.330 timesteps/s
100.0% CPU use with 1 MPI tasks x no OpenMP threads

MPI task timing breakdown:
Section |  min time  |  avg time  |  max time  |%varavg| %total
---------------------------------------------------------------
Pair    | 0.13621    | 0.13621    | 0.13621    |   0.0 | 67.23
Neigh   | 0          | 0          | 0          |   0.0 |  0.00
Comm    | 0.0044791  | 0.0044791  | 0.0044791  |   0.0 |  2.21
Output  | 0.00018024 | 0.00018024 | 0.00018024 |   0.0 |  0.09
Modify  | 0.060714   | 0.060714   | 0.060714   |   0.0 | 29.97
Other   |            | 0.00101    |            |       |  0.50

Nlocal:    108 ave 108 max 108 min
Histogram: 1 0 0 0 0 0 0 0 0 0
Nghost:    990 ave 990 max 990 min
Histogram: 1 0 0 0 0 0 0 0 0 0
Neighs:    4644 ave 4644 max 4644 min
Histogram: 1 0 0 0 0 0 0 0 0 0

Total # of neighbors = 4644
Ave neighs/atom = 43
Neighbor list builds = 0
Dangerous builds = 0
Total wall time: 0:00:00
