LAMMPS (3 Mar 2020)

    # ---------- Initialize simulation ---------------------
    units metal
    atom_style atomic
    dimension  3
    boundary   p p p
    read_data /home/modeler/RemLabs/Lab4/Problem1C_v1/size_1/lammps.data
  orthogonal box = (0 0 0) to (4.09 4.09 4.09)
  1 by 1 by 1 MPI processor grid
  reading atoms ...
  4 atoms
  read_data CPU = 0.000849823 secs

    pair_style eam
    pair_coeff * * /usr/share/lammps-stable/potentials/Ag_u3.eam
Reading potential file /usr/share/lammps-stable/potentials/Ag_u3.eam with DATE: 2007-06-11

    velocity  all create 300 87287 dist gaussian

    # ---------- Describe computed properties------------------
    compute msdall all msd
    thermo_style custom step pe ke etotal temp press density c_msdall[4]
    thermo 100

    # ---------- Specify ensemble  ---------------------
    fix  1 all nve
    #fix  1 all nvt temp 300 300 0.05
    #fix 1 all npt temp 300 300 0.05 tchain 2 iso 1.0 1.0 1.0 pchain 2

    # --------- Compute RDF ---------------
    compute rdfall all rdf 100 1 1
    fix 2 all ave/time 1 2500 2500 c_rdfall[*] file /home/modeler/RemLabs/Lab4/Problem1C_v1/size_1/lammps.rdf mode vector

    # --------- Run -------------
    timestep 0.001
    run 10000
Neighbor list info ...
  update every 1 steps, delay 10 steps, check yes
  max neighbors/atom: 2000, page size: 100000
  master list distance cutoff = 7.55
  ghost atom cutoff = 7.55
  binsize = 3.775, bins = 2 2 2
  2 neighbor lists, perpetual/occasional/extra = 1 1 0
  (1) pair eam, perpetual
      attributes: half, newton on
      pair build: half/bin/atomonly/newton
      stencil: half/bin/3d/newton
      bin: standard
  (2) compute rdf, occasional, copy from (1)
      attributes: half, newton on
      pair build: copy
      stencil: none
      bin: none
Per MPI rank memory allocation (min/avg/max) = 3.584 | 3.584 | 3.584 Mbytes
Step PotEng KinEng TotEng Temp Press Density c_msdall[4] 
       0        -11.4   0.11633413   -11.283666          300    1816.1111    10.472245            0 
     100   -11.357907  0.074245979   -11.283661    191.46396      5062.81    10.472245 0.0035925163 
     200   -11.323633  0.039977288   -11.283656    103.09259    7714.2227    10.472245   0.00638592 
     300   -11.366306  0.082645344   -11.283661    213.12407    4595.0712    10.472245 0.0024322712 
     400     -11.3753  0.091639802    -11.28366    236.31879    4087.6767    10.472245 0.0012760819 
     500   -11.315065  0.031413441   -11.283651    81.008318    8742.9138    10.472245 0.0061057504 
     600   -11.305146  0.021497312   -11.283649    55.436815    9557.1323    10.472245   0.00666935 
     700   -11.352335    0.0686806   -11.283655    177.11208    6177.4097    10.472245 0.0024023455 
     800   -11.339861  0.056208245   -11.283653    144.94864    7196.0267    10.472245 0.0033635655 
     900   -11.292188 0.0085418255   -11.283646    22.027479    10687.519    10.472245 0.0074663344 
    1000   -11.316442  0.032792798    -11.28365    84.565376    8822.5388    10.472245  0.005458817 
    1100   -11.361903  0.078246318   -11.283657    201.77995    5373.5421    10.472245 0.0018147579 
    1200   -11.338456   0.05480102   -11.283655    141.31971    6991.3562    10.472245 0.0041943699 
    1300   -11.314999  0.031346484   -11.283653    80.835651    8607.4113    10.472245 0.0065029867 
    1400   -11.357629  0.073969925   -11.283659    190.75208    5296.9999    10.472245 0.0030587657 
    1500   -11.381699  0.098035961   -11.283663    252.81307    3377.7901    10.472245  0.001232162 
    1600   -11.345347   0.06168829   -11.283659    159.08046    6082.6165    10.472245 0.0045353615 
    1700   -11.338796  0.055138219   -11.283658    142.18927    6570.0423    10.472245 0.0051035011 
    1800   -11.375102   0.09144024   -11.283662    235.80416     3840.418    10.472245 0.0018691159 
    1900   -11.367234  0.083573304    -11.28366    215.51707    4536.4877    10.472245 0.0023525533 
    2000   -11.326721  0.043066918   -11.283654    111.06006    7713.1505    10.472245 0.0055879309 
    2100   -11.332819  0.049165126   -11.283654    126.78599    7306.3938    10.472245 0.0047573449 
    2200   -11.355636  0.071979429   -11.283657    185.61903    5726.9993    10.472245 0.0025608796 
    2300   -11.331376  0.047723218   -11.283653    123.06763    7691.6271    10.472245  0.004425414 
    2400   -11.308113   0.02446386   -11.283649    63.086886    9431.6097    10.472245 0.0062711815 
    2500    -11.32924  0.045588554   -11.283651     117.5628    7815.1358    10.472245 0.0043772008 
    2600   -11.343516  0.059862161   -11.283654    154.37128    6803.5224    10.472245 0.0032748374 
    2700   -11.324211  0.040558553   -11.283652    104.59154    8181.6188    10.472245  0.005140413 
    2800   -11.326099  0.042446168   -11.283653    109.45928    7889.8568    10.472245   0.00520395 
    2900   -11.352522  0.068865035   -11.283657     177.5877    5802.2584    10.472245 0.0031383984 
    3000   -11.355985  0.072326912   -11.283658    186.51511    5462.3748    10.472245 0.0031666171 
    3100   -11.344244  0.060586616   -11.283658    156.23949    6230.1723    10.472245 0.0044333917 
    3200   -11.355616  0.071955636    -11.28366    185.55767    5309.5253    10.472245  0.003582311 
    3300   -11.368929  0.085267464   -11.283662    219.88594    4281.0435    10.472245 0.0024903434 
    3400    -11.35646  0.072800682    -11.28366    187.73686    5232.0038    10.472245 0.0035289934 
    3500   -11.347929  0.064270709   -11.283658    165.73995    5954.4511    10.472245 0.0041236727 
    3600   -11.354238  0.070579132   -11.283658    182.00798    5538.5658    10.472245 0.0033315801 
    3700   -11.348911  0.065254057   -11.283657    168.27578    6053.5916    10.472245 0.0035825264 
    3800   -11.332461  0.048806679   -11.283654    125.86163    7442.6923    10.472245 0.0047042422 
    3900   -11.332129  0.048476509   -11.283653     125.0102     7559.852    10.472245 0.0044613318 
    4000   -11.333496  0.049844148   -11.283652    128.53704    7465.4701    10.472245 0.0041067676 
    4100    -11.32308  0.039428923   -11.283651    101.67847     8364.451    10.472245 0.0049842895 
    4200   -11.322099  0.038447805   -11.283651    99.148389    8464.9921    10.472245 0.0050512173 
    4300   -11.334508  0.050854976   -11.283653    131.14374    7425.6168    10.472245  0.004062244 
    4400   -11.332892  0.049238985   -11.283653    126.97646    7465.8542    10.472245 0.0043449329 
    4500   -11.328892  0.045238342   -11.283653    116.65968    7734.8115    10.472245 0.0049620048 
    4600   -11.346047  0.062390274   -11.283657    160.89072    6317.8288    10.472245 0.0037770373 
    4700   -11.357473  0.073813758   -11.283659    190.34936    5330.5666    10.472245 0.0029972854 
    4800   -11.346084  0.062425855   -11.283658    160.98248    6143.2239    10.472245 0.0041837192 
    4900   -11.347658   0.06399941   -11.283658    165.04033    5960.4804    10.472245 0.0041663601 
    5000   -11.367109  0.083448226   -11.283661    215.19452    4479.2284    10.472245 0.0025215026 
    5100   -11.359847  0.076187047    -11.28366    196.46955    5051.9041    10.472245 0.0030468103 
    5200   -11.337644  0.053987265   -11.283657    139.22122    6782.5798    10.472245 0.0048788841 
    5300   -11.345484  0.061827259   -11.283657    159.43883    6278.1935    10.472245   0.00397552 
    5400   -11.358289  0.074631003   -11.283658    192.45685    5421.3295    10.472245 0.0026081018 
    5500    -11.33291   0.04925661   -11.283654    127.02191    7355.4116    10.472245 0.0045544345 
    5600   -11.315875  0.032223551   -11.283651    83.097413    8729.6417    10.472245 0.0059173199 
    5700   -11.340106   0.05645254   -11.283654    145.57862    7009.1882    10.472245  0.003727332 
    5800   -11.347481  0.063826257   -11.283655     164.5938     6406.497    10.472245 0.0030337556 
    5900   -11.317236  0.033585159   -11.283651      86.6087    8610.1339    10.472245 0.0057139181 
    6000   -11.321407  0.037754833   -11.283652    97.361367     8310.882    10.472245 0.0055333389 
    6100   -11.360801  0.077142608   -11.283658    198.93373    5261.3887    10.472245 0.0023715858 
    6200   -11.355786  0.072127393   -11.283658     186.0006    5491.0409    10.472245 0.0030209508 
    6300   -11.325854  0.042198755   -11.283655    108.82126    7693.9372    10.472245 0.0057968016 
    6400   -11.349296  0.065637606   -11.283658    169.26487    5884.8883    10.472245 0.0039387801 
    6500   -11.382371   0.09870837   -11.283663    254.54706    3331.5609    10.472245 0.0011605103 
    6600   -11.351889  0.068230308   -11.283659    175.95088    5659.6461    10.472245 0.0037698609 
    6700   -11.325102  0.041446276   -11.283655    106.88078    7727.6595    10.472245 0.0059952909 
    6800   -11.358608  0.074949286   -11.283659    193.27764     5267.714    10.472245 0.0029057668 
    6900   -11.368547  0.084887747   -11.283659    218.90673    4642.5112    10.472245 0.0017558787 
    7000   -11.318785  0.035133084   -11.283652    90.600455    8470.1453    10.472245 0.0057829776 
    7100   -11.309128  0.025478097    -11.28365    65.702379    9274.9289    10.472245 0.0064302524 
    7200   -11.351996   0.06834122   -11.283655     176.2369    6171.7894    10.472245  0.002549419 
    7300   -11.342856  0.059202633   -11.283653     152.6705     6872.245    10.472245 0.0032307267 
    7400   -11.297119  0.013471415   -11.283647    34.739799    10221.721    10.472245  0.007183806 
    7500   -11.319323   0.03567236   -11.283651     91.99113    8560.5017    10.472245 0.0054323523 
    7600   -11.366785   0.08312739   -11.283658    214.36716    4929.3636    10.472245 0.0015700945 
    7700   -11.343221   0.05956552   -11.283656    153.60631    6541.6036    10.472245 0.0039114758 
    7800   -11.314392  0.030738809   -11.283653    79.268593    8589.6096    10.472245 0.0066631125 
    7900   -11.359576  0.075916503   -11.283659    195.77188    5107.5534    10.472245 0.0030267304 
    8000   -11.389337   0.10567296   -11.283664    272.50719    2745.5205    10.472245 0.00067342149 
    8100    -11.34636   0.06270104   -11.283659    161.69212    5967.1966    10.472245 0.0045083136 
    8200    -11.33258  0.048923043   -11.283657    126.16171      7018.28    10.472245 0.0056868545 
    8300   -11.378626  0.094963728   -11.283663    244.89046    3569.7944    10.472245 0.0015858183 
    8400   -11.374162  0.090500635   -11.283661    233.38113    4019.8424    10.472245 0.0017320261 
    8500   -11.319895  0.036241514   -11.283653     93.45885    8221.1187    10.472245 0.0061140853 
    8600   -11.324259  0.040605838   -11.283653    104.71348    7985.8351    10.472245 0.0054580425 
    8700   -11.361837  0.078179417   -11.283657    201.60743    5326.3739    10.472245 0.0019297431 
    8800   -11.335071  0.051418478   -11.283653    132.59688    7459.2559    10.472245 0.0039844517 
    8900   -11.294117  0.010470017   -11.283647    26.999859    10496.874    10.472245 0.0073379331 
    9000   -11.323127  0.039477105    -11.28365    101.80273    8350.4779    10.472245 0.0048161487 
    9100   -11.354611  0.070955641   -11.283655    182.97891    6020.2279    10.472245 0.0022546602 
    9200    -11.32521  0.041558048   -11.283652    107.16902    8103.1349    10.472245 0.0050179624 
    9300   -11.310765  0.027114025   -11.283651    69.921076    9033.8115    10.472245 0.0064773947 
    9400   -11.354769  0.071112015   -11.283657    183.38216    5649.2048    10.472245 0.0029840262 
    9500   -11.372357  0.088696205   -11.283661     228.7279    4188.7532    10.472245  0.001820705 
    9600   -11.341744  0.058085593   -11.283658     149.7899    6387.8088    10.472245 0.0047617157 
    9700   -11.342945   0.05928631   -11.283659    152.88629    6229.8106    10.472245 0.0047635993 
    9800    -11.37903  0.095366944   -11.283663    245.93026    3475.3182    10.472245 0.0017149971 
    9900   -11.372018  0.088356669   -11.283662    227.85231    4035.7987    10.472245 0.0022474645 
   10000   -11.336902  0.053245458   -11.283657    137.30826     6772.518    10.472245 0.0051080459 
Loop time of 0.12057 on 1 procs for 10000 steps with 4 atoms

Performance: 7165.957 ns/day, 0.003 hours/ns, 82939.319 timesteps/s
100.1% CPU use with 1 MPI tasks x no OpenMP threads

MPI task timing breakdown:
Section |  min time  |  avg time  |  max time  |%varavg| %total
---------------------------------------------------------------
Pair    | 0.06387    | 0.06387    | 0.06387    |   0.0 | 52.97
Neigh   | 0          | 0          | 0          |   0.0 |  0.00
Comm    | 0.017006   | 0.017006   | 0.017006   |   0.0 | 14.10
Output  | 0.00074615 | 0.00074615 | 0.00074615 |   0.0 |  0.62
Modify  | 0.035253   | 0.035253   | 0.035253   |   0.0 | 29.24
Other   |            | 0.003694   |            |       |  3.06

Nlocal:    4 ave 4 max 4 min
Histogram: 1 0 0 0 0 0 0 0 0 0
Nghost:    360 ave 360 max 360 min
Histogram: 1 0 0 0 0 0 0 0 0 0
Neighs:    172 ave 172 max 172 min
Histogram: 1 0 0 0 0 0 0 0 0 0

Total # of neighbors = 172
Ave neighs/atom = 43
Neighbor list builds = 0
Dangerous builds = 0
    
Total wall time: 0:00:00
