LAMMPS (3 Mar 2020)

    # ---------- Initialize simulation ---------------------
    units metal
    atom_style atomic
    dimension  3
    boundary   p p p
    read_data /home/modeler/RemLabs/Lab4/Problem2A_size_7/temp_1900/lammps.data
  orthogonal box = (0 0 0) to (28.63 28.63 28.63)
  1 by 1 by 1 MPI processor grid
  reading atoms ...
  1372 atoms
  read_data CPU = 0.00187541 secs

    pair_style eam
    pair_coeff * * /usr/share/lammps-stable/potentials/Ag_u3.eam
Reading potential file /usr/share/lammps-stable/potentials/Ag_u3.eam with DATE: 2007-06-11

    velocity  all create 1900 87287 dist gaussian

    # ---------- Describe computed properties------------------
    compute msdall all msd
    thermo_style custom step pe ke etotal temp press density c_msdall[4]
    thermo 100

    # ---------- Specify ensemble  ---------------------
    #fix  1 all nve
    fix  1 all nvt temp 1900 1900 0.05

    # --------- Compute RDF ---------------
    compute rdfall all rdf 100 1 1
    fix 2 all ave/time 1 2500 2500 c_rdfall[*] file /home/modeler/RemLabs/Lab4/Problem2A_size_7/temp_1900/lammps.rdf mode vector

    # --------- Run -------------
    timestep 0.001
    run 10000
Neighbor list info ...
  update every 1 steps, delay 10 steps, check yes
  max neighbors/atom: 2000, page size: 100000
  master list distance cutoff = 7.55
  ghost atom cutoff = 7.55
  binsize = 3.775, bins = 8 8 8
  2 neighbor lists, perpetual/occasional/extra = 1 1 0
  (1) pair eam, perpetual
      attributes: half, newton on
      pair build: half/bin/atomonly/newton
      stencil: half/bin/3d/newton
      bin: standard
  (2) compute rdf, occasional, copy from (1)
      attributes: half, newton on
      pair build: copy
      stencil: none
      bin: none
Per MPI rank memory allocation (min/avg/max) = 3.83 | 3.83 | 3.83 Mbytes
Step PotEng KinEng TotEng Temp Press Density c_msdall[4] 
       0      -3910.2    336.70975   -3573.4903         1900    15325.304    10.472245            0 
     100   -3704.7606    186.82904   -3517.9315    1054.2468    63254.028    10.472245   0.11245968 
     200    -3663.034    268.42601    -3394.608    1514.6856    77705.742    10.472245   0.14388531 
     300   -3593.8402    331.03432   -3262.8059    1867.9744     98356.35    10.472245   0.18532045 
     400   -3542.2067    352.87989   -3189.3268    1991.2456    112430.33    10.472245   0.22141003 
     500   -3551.4567    333.15388   -3218.3028    1879.9348    108684.82    10.472245   0.23039425 
     600   -3586.1316    335.08147   -3251.0501    1890.8119    100344.57    10.472245   0.21314441 
     700   -3574.9079     336.5543   -3238.3536    1899.1228     103389.3    10.472245   0.20473535 
     800    -3558.882    334.15389   -3224.7281    1885.5777    107224.27    10.472245   0.20087873 
     900   -3567.3995    319.03837   -3248.3612    1800.2832    104581.81    10.472245   0.20337472 
    1000   -3566.5062    347.78826   -3218.7179    1962.5143    105804.72    10.472245   0.19124321 
    1100   -3571.2646    336.79935   -3234.4652    1900.5056     104340.2    10.472245   0.17923711 
    1200   -3577.6844    328.84629   -3248.8381    1855.6277    103041.25    10.472245   0.17133217 
    1300   -3566.0577    338.67264   -3227.3851    1911.0763    106214.17    10.472245   0.18126402 
    1400   -3559.8163    334.85957   -3224.9568    1889.5597    107195.95    10.472245    0.1991171 
    1500   -3563.0974    338.26406   -3224.8333    1908.7707    106493.76    10.472245   0.20344153 
    1600   -3565.1049    332.39452   -3232.7104    1875.6498    105953.97    10.472245   0.20519093 
    1700   -3578.4953    347.08515   -3231.4102    1958.5467    103154.92    10.472245   0.19720364 
    1800   -3573.5368    335.59967   -3237.9371     1893.736    103615.55    10.472245   0.19385254 
    1900   -3564.0579    333.24061   -3230.8173    1880.4242    106206.16    10.472245   0.18938446 
    2000   -3576.5808    342.13623   -3234.4446    1930.6208    102945.39    10.472245   0.17891717 
    2100   -3579.4952    333.71504   -3245.7802    1883.1013    101604.18    10.472245   0.17252057 
    2200   -3559.7936    330.13547   -3229.6582    1862.9024    107259.08    10.472245   0.17463346 
    2300   -3565.2103    337.67967   -3227.5307    1905.4731    106128.91    10.472245   0.16909455 
    2400   -3582.1067    333.61053   -3248.4962    1882.5116    101996.35    10.472245   0.16796125 
    2500   -3570.0099    332.68382   -3237.3261    1877.2823    104669.06    10.472245   0.17733739 
    2600   -3557.1515    333.40738   -3223.7441    1881.3652    107242.81    10.472245   0.19544558 
    2700   -3572.5884    347.39938    -3225.189    1960.3199    104474.94    10.472245   0.19295328 
    2800   -3585.4456    343.63035   -3241.8153    1939.0518    100849.41    10.472245   0.18819016 
    2900   -3573.4155    343.77275   -3229.6428    1939.8554    104407.24    10.472245   0.18933133 
    3000   -3566.0947    353.64338   -3212.4513    1995.5538    106576.89    10.472245    0.1909594 
    3100   -3573.7527    340.75297   -3232.9997    1922.8152    103999.67    10.472245   0.18658371 
    3200   -3564.4993    332.42511   -3232.0741    1875.8225    106084.85    10.472245   0.18048593 
    3300   -3570.8225    344.56545    -3226.257    1944.3285    104579.01    10.472245   0.16957388 
    3400   -3579.5421    333.74406   -3245.7981    1883.2651    102569.94    10.472245   0.17659346 
    3500   -3561.1709    336.54316   -3224.6277    1899.0599    106377.62    10.472245   0.18712506 
    3600     -3571.11    337.19923   -3233.9108     1902.762     104823.1    10.472245    0.1853865 
    3700   -3570.6957    327.20074   -3243.4949    1846.3422    104233.19    10.472245   0.17671414 
    3800   -3580.7474    334.12797   -3246.6194    1885.4314    102087.14    10.472245   0.16655212 
    3900   -3565.6745    333.05336   -3232.6211    1879.3675    105724.84    10.472245   0.17016896 
    4000   -3575.6611    356.72623   -3218.9348    2012.9498    104117.82    10.472245   0.16741045 
    4100   -3564.6296    330.35289   -3234.2767    1864.1292    106119.19    10.472245   0.18606012 
    4200   -3561.2098    347.75346   -3213.4563    1962.3179    107174.86    10.472245   0.18835663 
    4300   -3571.7685    334.33473   -3237.4338    1886.5982    104005.91    10.472245   0.19000418 
    4400   -3572.7176    342.67538   -3230.0422    1933.6631    104769.71    10.472245   0.18648771 
    4500   -3575.3909    324.74868   -3250.6422    1832.5055    102850.93    10.472245   0.19033661 
    4600   -3577.1088    347.55174   -3229.5571    1961.1796    103314.07    10.472245   0.18708428 
    4700   -3572.7307    339.94197   -3232.7888    1918.2389    103829.76    10.472245   0.18632162 
    4800   -3581.3907    329.90103   -3251.4897    1861.5794    101595.52    10.472245   0.17928176 
    4900   -3567.1039    330.05528   -3237.0486    1862.4499     105292.3    10.472245   0.18028216 
    5000   -3568.2017    342.65699   -3225.5447    1933.5593    105369.64    10.472245    0.1773213 
    5100   -3566.4507    321.02723   -3245.4234     1811.506    104303.07    10.472245   0.18129389 
    5200   -3574.7419    339.95833   -3234.7836    1918.3312    104093.49    10.472245   0.17877455 
    5300   -3580.9186     323.7746    -3257.144     1827.009    101634.39    10.472245   0.19081786 
    5400   -3554.6173    326.07044   -3228.5469     1839.964     107844.9    10.472245    0.2009503 
    5500   -3555.6067    332.83326   -3222.7735    1878.1256    108347.97    10.472245   0.20376989 
    5600   -3572.1214    326.66435    -3245.457    1843.3154    104085.63    10.472245   0.19823054 
    5700   -3571.8195    338.18158   -3233.6379    1908.3053     104791.5    10.472245   0.19315465 
    5800   -3569.9665    337.55483   -3232.4117    1904.7687    104896.35    10.472245   0.19176148 
    5900   -3577.8179    329.81642   -3248.0015     1861.102     102687.9    10.472245   0.18888313 
    6000   -3577.0765     338.6196   -3238.4569     1910.777    103033.56    10.472245   0.18250843 
    6100   -3571.6125    333.66372   -3237.9488    1882.8117     104220.4    10.472245    0.1800261 
    6200   -3571.8829    346.02593    -3225.857    1952.5697    104540.17    10.472245   0.18333447 
    6300   -3562.6338    340.72131   -3221.9125    1922.6366    106459.59    10.472245   0.19060156 
    6400   -3569.6986    336.37424   -3233.3244    1898.1068    104576.54    10.472245   0.18707321 
    6500    -3565.973    328.58997    -3237.383    1854.1813    105161.26    10.472245   0.18506733 
    6600   -3564.1132    339.26212   -3224.8511    1914.4026    105776.73    10.472245    0.1859228 
    6700   -3570.2924    340.42578   -3229.8666     1920.969    105247.47    10.472245   0.18707502 
    6800   -3576.9373    339.29287   -3237.6445    1914.5761    103017.52    10.472245   0.17894791 
    6900   -3573.8455    327.54214   -3246.3034    1848.2686    103667.06    10.472245   0.18078117 
    7000   -3569.7395    341.20053   -3228.5389    1925.3408    105008.48    10.472245   0.18328702 
    7100   -3567.9692    333.76425   -3234.2049     1883.379     105251.1    10.472245   0.18760636 
    7200   -3577.8368    348.47841   -3229.3583    1966.4087    102919.56    10.472245   0.17768626 
    7300   -3578.6435    338.21962   -3240.4238    1908.5199    102117.25    10.472245   0.17901766 
    7400   -3577.5736    345.76158   -3231.8121     1951.078    102921.71    10.472245   0.17670658 
    7500    -3559.977    323.57394    -3236.403    1825.8767    106735.27    10.472245   0.18500589 
    7600   -3571.9593    342.09394   -3229.8654    1930.3821    104294.31    10.472245   0.17729606 
    7700   -3576.9242    339.96014   -3236.9641    1918.3415    103585.28    10.472245   0.17084252 
    7800   -3584.2914    324.93763   -3259.3537    1833.5718     100582.3    10.472245   0.17009869 
    7900   -3563.8258    336.58275   -3227.2431    1899.2833    106651.28    10.472245   0.18229398 
    8000   -3561.7942    339.25498   -3222.5392    1914.3623    107310.81    10.472245    0.1860582 
    8100   -3570.5274    331.27596   -3239.2514     1869.338    104289.61    10.472245   0.18307596 
    8200   -3572.4888    349.17728   -3223.3115    1970.3523    104719.62    10.472245   0.17061135 
    8300   -3562.0055    334.97964   -3227.0259    1890.2372     106974.4    10.472245   0.17691048 
    8400   -3568.5209    325.80444   -3242.7164     1838.463    104557.26    10.472245   0.18259287 
    8500    -3567.017    341.42878   -3225.5882    1926.6287    105373.55    10.472245   0.18091252 
    8600   -3572.6406    327.61747   -3245.0231    1848.6937    103619.98    10.472245   0.18022385 
    8700   -3579.0979    337.14546   -3241.9525    1902.4586    102605.28    10.472245    0.1757382 
    8800   -3561.2574    334.59476   -3226.6627    1888.0654    107030.28    10.472245   0.18621404 
    8900   -3561.6034    349.09261   -3212.5108    1969.8745    107714.25    10.472245   0.18365424 
    9000   -3574.7968    345.75852   -3229.0382    1951.0608    103630.98    10.472245   0.17722281 
    9100   -3572.4139    324.79385   -3247.6201    1832.7604    103696.71    10.472245   0.17585457 
    9200    -3580.795    347.04171   -3233.7533    1958.3016    102656.99    10.472245   0.16818693 
    9300   -3570.8674    326.40575   -3244.4617    1841.8561    104228.53    10.472245   0.17250189 
    9400   -3563.2128    345.20312   -3218.0096    1947.9267    107029.12    10.472245    0.1728752 
    9500   -3575.2395    343.54044    -3231.699    1938.5445    104385.89    10.472245    0.1706503 
    9600    -3569.075    324.18782   -3244.8872    1829.3407    104465.94    10.472245    0.1708104 
    9700    -3577.584    337.05248   -3240.5315    1901.9339    103530.33    10.472245   0.16846894 
    9800   -3572.0748    339.79734   -3232.2775    1917.4227    104154.34    10.472245   0.17767056 
    9900   -3569.2108    342.64679    -3226.564    1933.5018    105118.55    10.472245   0.19192388 
   10000   -3554.9665    345.14267   -3209.8238    1947.5856    109040.06    10.472245   0.19759697 
Loop time of 37.9609 on 1 procs for 10000 steps with 1372 atoms

Performance: 22.760 ns/day, 1.054 hours/ns, 263.429 timesteps/s
100.0% CPU use with 1 MPI tasks x no OpenMP threads

MPI task timing breakdown:
Section |  min time  |  avg time  |  max time  |%varavg| %total
---------------------------------------------------------------
Pair    | 23.754     | 23.754     | 23.754     |   0.0 | 62.57
Neigh   | 0.42653    | 0.42653    | 0.42653    |   0.0 |  1.12
Comm    | 0.17943    | 0.17943    | 0.17943    |   0.0 |  0.47
Output  | 0.0048873  | 0.0048873  | 0.0048873  |   0.0 |  0.01
Modify  | 13.525     | 13.525     | 13.525     |   0.0 | 35.63
Other   |            | 0.0713     |            |       |  0.19

Nlocal:    1372 ave 1372 max 1372 min
Histogram: 1 0 0 0 0 0 0 0 0 0
Nghost:    3263 ave 3263 max 3263 min
Histogram: 1 0 0 0 0 0 0 0 0 0
Neighs:    70721 ave 70721 max 70721 min
Histogram: 1 0 0 0 0 0 0 0 0 0

Total # of neighbors = 70721
Ave neighs/atom = 51.5459
Neighbor list builds = 139
Dangerous builds = 0
    
Total wall time: 0:00:37
