LAMMPS (3 Mar 2020)
Reading data file ...
  orthogonal box = (0 0 0) to (17.469 17.469 17.469)
  1 by 1 by 1 MPI processor grid
  reading atoms ...
  217 atoms
  read_data CPU = 0.000986441 secs
Reading potential file library.meam with DATE: 2012-06-29
Reading potential file LiSi.meam with DATE: 2020-11-07
1 atoms in group Li
216 atoms in group Si
Neighbor list info ...
  update every 1 steps, delay 10 steps, check yes
  max neighbors/atom: 2000, page size: 100000
  master list distance cutoff = 6
  ghost atom cutoff = 6
  binsize = 3, bins = 6 6 6
  2 neighbor lists, perpetual/occasional/extra = 2 0 0
  (1) pair meam/c, perpetual
      attributes: full, newton on
      pair build: full/bin/atomonly
      stencil: full/bin/3d
      bin: standard
  (2) pair meam/c, perpetual, half/full from (1)
      attributes: half, newton on
      pair build: halffull/newton
      stencil: none
      bin: none
Setting up Verlet run ...
  Unit style    : metal
  Current step  : 0
  Time step     : 0.003
Per MPI rank memory allocation (min/avg/max) = 8.895 | 8.895 | 8.895 Mbytes
Step Temp E_pair E_mol TotEng Press Volume 
       0         1550   -951.04357            0   -907.76727   -115560.29    5330.9442 
    3200    1527.6675   -948.63483            0   -905.98206   -5738.2516    4651.7986 
Loop time of 2.3096 on 1 procs for 3200 steps with 217 atoms

Performance: 359.127 ns/day, 0.067 hours/ns, 1385.522 timesteps/s
100.0% CPU use with 1 MPI tasks x no OpenMP threads

MPI task timing breakdown:
Section |  min time  |  avg time  |  max time  |%varavg| %total
---------------------------------------------------------------
Pair    | 2.2305     | 2.2305     | 2.2305     |   0.0 | 96.58
Neigh   | 0.030449   | 0.030449   | 0.030449   |   0.0 |  1.32
Comm    | 0.014389   | 0.014389   | 0.014389   |   0.0 |  0.62
Output  | 2.5111e-05 | 2.5111e-05 | 2.5111e-05 |   0.0 |  0.00
Modify  | 0.029373   | 0.029373   | 0.029373   |   0.0 |  1.27
Other   |            | 0.004835   |            |       |  0.21

Nlocal:    217 ave 217 max 217 min
Histogram: 1 0 0 0 0 0 0 0 0 0
Nghost:    957 ave 957 max 957 min
Histogram: 1 0 0 0 0 0 0 0 0 0
Neighs:    4185 ave 4185 max 4185 min
Histogram: 1 0 0 0 0 0 0 0 0 0
FullNghs:  8370 ave 8370 max 8370 min
Histogram: 1 0 0 0 0 0 0 0 0 0

Total # of neighbors = 8370
Ave neighs/atom = 38.5714
Neighbor list builds = 51
Dangerous builds = 0
Setting up Verlet run ...
  Unit style    : metal
  Current step  : 3200
  Time step     : 0.003
Per MPI rank memory allocation (min/avg/max) = 9.663 | 9.663 | 9.663 Mbytes
Step PotEng KinEng TotEng Temp Press Density c_msdli[4] c_msdsi[4] 
    3200   -948.63483     42.65277   -905.98206    1527.6675   -5738.2516    2.1680448            0 1.0009129e-31 
    3300   -950.20385    43.922793   -906.28106    1573.1552   -1101.9251     2.180249  0.015931001   0.09793227 
    3400   -954.33466    40.604355    -913.7303    1454.3007    3907.2709    2.2080183  0.043489417   0.10410398 
    3500   -951.50559    40.370287    -911.1353    1445.9173    2390.7452    2.1948219  0.042176276  0.099283841 
    3600   -950.50212    44.063469   -906.43865    1578.1937    -4062.438    2.1750792   0.14394872   0.11505519 
    3700   -947.47423     42.27197   -905.20226    1514.0287   -1530.7211    2.1766469   0.03175168  0.092397756 
    3800   -950.76789    40.622152   -910.14574    1454.9382    3167.0376    2.1957724  0.012597146   0.10129761 
    3900   -954.71007    42.665345   -912.04473    1528.1179    893.40091    2.1996513   0.22879545   0.10967459 
    4000   -950.22712    44.517978   -905.70915    1594.4725   -1867.9851    2.1768877   0.13720172   0.11455559 
    4100   -954.65827     48.87982   -905.77845    1750.6979   -6797.4036    2.1723505  0.050890882  0.088040784 
    4200    -951.4776    38.375108    -913.1025    1374.4572    1945.4942    2.1963163   0.19551082   0.10371622 
    4300   -950.45878     41.91845   -908.54033    1501.3669    3852.2802    2.1962112  0.080830994  0.099375365 
    4400   -948.23045     43.36505    -904.8654    1553.1788    641.00641    2.1804522   0.21458678  0.099736758 
    4500   -946.21401    39.132339   -907.08167    1401.5785   -2814.3389    2.1702755   0.03400821   0.13292517 
    4600   -953.75787    39.859967   -913.89791    1427.6395   -2775.4768    2.1876902   0.13014178  0.083646166 
    4700   -950.87114    44.714394   -906.15675    1601.5074    4153.6943    2.1949811  0.074038489   0.10888743 
    4800   -949.52087    44.690277    -904.8306    1600.6436    5550.8714    2.1952042   0.29041123   0.12561467 
    4900   -950.23411    42.525692   -907.70842    1523.1161   -5818.6431    2.1713497  0.093660884   0.11431046 
    5000   -952.17545    43.619382   -908.55607    1562.2881    -6668.014    2.1706115  0.084517534   0.11359746 
    5100   -945.34827    45.869705   -899.47857    1642.8865    144.14924    2.1758897   0.10479733   0.11501032 
    5200   -948.40526    44.369916   -904.03535    1589.1695    5737.2043    2.1956525   0.16788191   0.10904762 
    5300   -952.28668    45.055184    -907.2315    1613.7133   -3113.7203     2.181071  0.067677342   0.10099655 
    5400   -948.41044    43.745829   -904.66461     1566.817   -6124.9326     2.166169  0.035843899   0.13123133 
    5500   -944.28832    45.528184   -898.76013    1630.6545    260.92458    2.1680408   0.24175583   0.11443555 
    5600   -950.04417    43.817972   -906.22619    1569.4009     8426.488    2.2027744   0.01257678   0.12663523 
    5700   -949.38153    42.627484   -906.75405    1526.7619    2112.6738    2.1881302   0.23314143   0.10199855 
    5800   -947.71889    48.187319   -899.53157     1725.895   -9086.7996    2.1562694   0.08859619   0.10891643 
    5900   -948.91149    45.021304   -903.89018    1612.4999   -3304.8513    2.1756902   0.21814246   0.13743388 
    6000    -951.5484    44.608949   -906.93945    1597.7308    3159.3807    2.1979736   0.16102689   0.11807797 
    6100   -947.03788    41.943816   -905.09406    1502.2754    3826.1082    2.1913875  0.034373254   0.14073432 
    6200   -942.90864     44.00177   -898.90687    1575.9838   -3987.6772    2.1625316   0.08722625   0.12445589 
    6300   -948.55025     44.55597   -903.99428    1595.8333   -5446.2285    2.1656542   0.13000986   0.11062624 
    6400   -950.43494    43.442718   -906.99222    1555.9606     1835.175    2.1923998  0.037263238   0.11948723 
    6500   -948.61975    43.333537   -905.28622    1552.0502    7015.1133    2.2026318  0.098743844    0.1469663 
    6600   -949.72216    43.476257    -906.2459    1557.1619   -1926.8515     2.178299  0.054335752   0.11752149 
    6700   -950.98839    36.231832   -914.75656    1297.6928   -4497.6889    2.1808234   0.07548725   0.11180253 
    6800   -950.75845    42.642248    -908.1162    1527.2907   -1896.4681    2.1825881  0.020387253    0.1173913 
    6900   -948.94158    44.137544   -904.80403    1580.8468    6296.2066    2.1995885   0.12665606   0.12005636 
    7000   -947.32776    39.742257    -907.5855    1423.4235    945.77593    2.1865491   0.14368579   0.13921681 
    7100   -952.61987    38.046544   -914.57333    1362.6892   -6186.9174    2.1780169    0.1421722   0.10262038 
    7200   -949.50431    42.541873   -906.96244    1523.6956    -1965.496     2.176809  0.093827968   0.12120475 
    7300   -949.43159    44.735901   -904.69569    1602.2777    9680.9984    2.2062224   0.13282155    0.1294032 
    7400   -951.84771    42.589599   -909.25811     1525.405    5380.6166    2.2018953  0.010874844   0.11895669 
    7500   -954.66997     40.02883   -914.64114    1433.6875   -11441.834    2.1659493  0.030506907   0.11417441 
    7600   -947.23604    40.275659   -906.96038    1442.5281   -8662.1694    2.1616555  0.085589414    0.1252075 
    7700   -948.08011    43.168805    -904.9113      1546.15    12361.738    2.2120377   0.22170889   0.12621211 
    7800   -954.15044     46.14233   -908.00811    1652.6509    6517.5901    2.2084434  0.055063128   0.12158735 
    7900   -955.73831    39.940859   -915.79745    1430.5367   -9666.7421    2.1753308  0.065165499   0.11726355 
    8000   -951.68717    43.292408   -908.39476    1550.5771   -9892.1851    2.1679717    0.1745581   0.11100283 
    8100   -946.37637    40.764762   -905.61161    1460.0459    8283.3149    2.2005477  0.089128443   0.12953345 
    8200   -949.06691    43.508073   -905.55884    1558.3014    6031.0745    2.1948125   0.08528498   0.11517724 
    8300   -953.10834    51.245445   -901.86289     1835.426   -7874.7879    2.1697643   0.10335913   0.11210015 
    8400   -943.56627    45.536827   -898.02944     1630.964   -6479.6495     2.155165  0.066258348   0.15111944 
    8500   -946.86595    41.766892   -905.09906    1495.9386    3204.1964    2.1854861  0.087569174   0.11574664 
    8600   -948.37603    42.097062   -906.27896    1507.7641    8222.5829    2.1993449  0.093071853   0.12436507 
    8700   -950.37116    43.298886   -907.07227    1550.8091   -1018.1454    2.1837352   0.14069829    0.1130285 
    8800   -944.27422    47.663942   -896.61028    1707.1495   -10811.058    2.1454174    0.1524075   0.11761262 
    8900   -945.56408    41.557279    -904.0068     1488.431    5548.9044     2.191608   0.24404354   0.12476373 
    9000   -950.13497    43.879842   -906.25513    1571.6168    8135.7743    2.2024893  0.042273991   0.11400399 
    9100   -950.97604    43.041227   -907.93481    1541.5807   -3820.8289    2.1770291  0.093361627   0.10738897 
    9200   -943.69652    45.841401   -897.85512    1641.8727   -6634.6387     2.153261   0.21177191   0.11074592 
    9300   -944.79813    41.617379   -903.18075    1490.5836    9940.0021    2.1947391  0.079425595   0.11344035 
    9400   -948.86318    42.298347   -906.56484    1514.9734    5554.6806    2.1957193  0.033185203   0.12279609 
    9500   -952.10156    45.646418   -906.45514    1634.8892   -6201.1425    2.1733593  0.034735114   0.11333142 
    9600   -945.04634    47.793956   -897.25238    1711.8062   -6243.5827    2.1553968   0.08754734   0.13010216 
    9700   -951.57608    45.524178    -906.0519    1630.5109    3569.7075    2.1957941  0.082853008   0.11678764 
    9800   -949.91021    43.030661   -906.87955    1541.2022    3001.4001    2.1892991   0.12564957    0.1078516 
    9900   -949.46055    46.098658   -903.36189    1651.0868   -2783.0288    2.1735592   0.15962125   0.11057033 
   10000   -945.12992    47.508923     -897.621    1701.5973   -3027.6499    2.1651083   0.14186171   0.10587831 
   10100   -951.68429    44.088644   -907.59564    1579.0953    2691.1595    2.1958059   0.11072578    0.1094245 
   10200   -947.48528    41.246305   -906.23897    1477.2931    3185.3423    2.1878844   0.02499019   0.10515804 
   10300   -952.94896    49.358816   -903.59014    1767.8538   -7727.3355    2.1725181   0.12431315   0.10459393 
   10400   -939.81659    44.145638   -895.67095    1581.1367    980.30396    2.1649358   0.12620919   0.13665212 
   10500   -946.88883    44.654288   -902.23454    1599.3547    4681.0563    2.1891519   0.17741147   0.12896309 
   10600   -946.47135    41.387402   -905.08395    1482.3466   -2002.4679    2.1726436   0.25566063   0.11516535 
   10700   -949.71173    43.221978   -906.48975    1548.0545    -3596.072       2.1735   0.14919738    0.1063955 
   10800   -950.20907    43.275248   -906.93382    1549.9624    3350.1156    2.1954402   0.16691848   0.11639433 
   10900   -943.44353    46.639207   -896.80432    1670.4472    3999.1926    2.1794416    0.1411293   0.11176656 
   11000   -947.35797    44.831199   -902.52677     1605.691   -618.02517     2.175795   0.25845166   0.10466914 
   11100   -947.92474    41.155052   -906.76969    1474.0247   -4907.2463    2.1672604   0.16746296    0.1144388 
   11200   -947.91862    41.559155   -906.35947    1488.4982    2686.1508    2.1867812   0.15229621    0.1065674 
   11300   -942.81155    46.019103   -896.79245    1648.2374    8046.2698    2.1885963   0.10168213   0.12160902 
   11400   -949.87206    45.884257    -903.9878    1643.4077   -540.98788    2.1848025   0.26298194   0.11937873 
   11500   -946.81045    39.463501   -907.34695    1413.4395   -8739.3547     2.158075   0.10632997   0.12244224 
   11600    -946.3065    42.491095   -903.81541    1521.8769   -1115.2077    2.1732578   0.35514079   0.11250596 
   11700   -944.06072     47.70914   -896.35158    1708.7684     10067.72     2.197419  0.039303163   0.11142418 
   11800   -948.59235    43.228527   -905.36382    1548.2891    6130.1521    2.1984489   0.13394714   0.11570304 
   11900   -949.21178     42.16129   -907.05049    1510.0645   -10316.118    2.1595633  0.088401282   0.10421229 
   12000   -944.19757    41.478404   -902.71916     1485.606   -3168.3811    2.1652205   0.43815707   0.11593254 
   12100   -944.38837    48.593924   -895.79444    1740.4581    6831.4041    2.1883008  0.065366495   0.10514109 
   12200   -950.34698    44.383187   -905.96379    1589.6448    7245.9517    2.2046517  0.080362511   0.10258604 
   12300   -949.02765    42.569133   -906.45852     1524.672   -5962.1233    2.1672261   0.30500292   0.10797297 
   12400   -947.06744    42.555125   -904.51232    1524.1703   -3754.6657    2.1686464   0.17260894   0.11549754 
   12500   -952.21624    41.474095   -910.74215    1485.4517    1952.1624    2.1958102   0.21374662   0.11514536 
   12600   -952.12511    40.839729   -911.28538     1462.731    2801.2706    2.1980672  0.095330113   0.10531826 
   12700   -949.16846    42.923474   -906.24499    1537.3632   -274.09466    2.1803968  0.031323425  0.099455751 
   12800   -946.87996    42.172855   -904.70711    1510.4787   -961.09697    2.1748802  0.073701714   0.10566789 
   12900    -950.5979    38.396652   -912.20125    1375.2288    334.17229     2.190625    0.1242003   0.11508635 
   13000   -949.83238    40.107773   -909.72461     1436.515    2027.7215    2.1900392  0.045332912   0.10739908 
   13100   -950.85501    46.144917   -904.71009    1652.7436    758.16092    2.1860064   0.02219677  0.097367611 
   13200   -951.51709    44.852545   -906.66454    1606.4555   -2873.6083    2.1804251  0.032242788   0.11122691 
   13300   -953.08699    39.019235   -914.06775    1397.5275   -2244.1711    2.1890546   0.08667139  0.093461421 
   13400   -951.06921    45.295116   -905.77409    1622.3068   -3465.1285    2.1766785     0.109094   0.10927493 
   13500   -947.89037    42.832405   -905.05796    1534.1014    5315.1017    2.1969968   0.22791083   0.14485739 
   13600   -951.15226     41.73154   -909.42072    1494.6724    3134.5594    2.1962492  0.018513077   0.10089691 
   13700   -951.07529     37.27579    -913.7995    1335.0836   -6623.1638    2.1743577   0.25359425   0.10945461 
   13800    -949.5786    44.894957   -904.68364    1607.9745   -9573.0783    2.1601094  0.027350252   0.11566919 
   13900   -950.87666    45.477497   -905.39916     1628.839    8468.2327    2.2065818   0.11954011   0.11302421 
   14000   -948.73092    41.490935   -907.23998    1486.0548    9659.8322    2.2085271   0.12731412   0.12092296 
   14100   -947.68181    48.837599   -898.84421    1749.1857   -7777.2935    2.1543773  0.041589199   0.10561489 
   14200   -946.86176    44.984254    -901.8775    1611.1728   -5763.3052    2.1614851  0.086504088    0.1044134 
   14300     -950.665    44.295587   -906.36942    1586.5073    3026.4613    2.1959556   0.33303141   0.11513139 
   14400   -952.56669    45.555679   -907.01101    1631.6392    4372.5777    2.1997889   0.13785935   0.12361065 
   14500   -942.84355    45.122885   -897.72066    1616.1381   -2752.4809    2.1628335  0.019052111   0.12662699 
   14600   -947.80699     43.04012   -904.76687     1541.541   -1912.9509    2.1735615  0.098156027   0.11647073 
   14700   -950.91917    43.732475   -907.18669    1566.3386    402.75878    2.1886668   0.11240364   0.10438244 
   14800   -950.46786    46.492004   -903.97586     1665.175     2011.743    2.1883916   0.07872773   0.11532893 
   14900   -946.02756    47.734159    -898.2934    1709.6645   -3633.5663    2.1641974   0.19921084   0.12506612 
   15000   -949.58364    41.934316   -907.64933    1501.9351   -2567.6174    2.1771654  0.092909025    0.1186187 
   15100   -952.30517    46.077764    -906.2274    1650.3384    1488.9906    2.1923428   0.18609029  0.099477864 
   15200   -949.28501    47.092041   -902.19297    1686.6661    2810.5785    2.1901184  0.094983716    0.1138125 
   15300   -945.24354    46.516389   -898.72715    1666.0484   -8838.1872    2.1515684  0.028889959    0.1070533 
   15400   -948.50832    40.284022    -908.2243    1442.8276   -2452.0186      2.17626   0.15265757   0.11679086 
   15500   -949.84326    44.006242   -905.83702     1576.144    9417.5945    2.2098228   0.09007665   0.13074175 
   15600   -948.81872    44.231442   -904.58728    1584.2099    4572.9206    2.1924075   0.18061887   0.11870775 
   15700   -941.21738    45.415382     -895.802    1626.6143   -8167.0769    2.1424004  0.069202269   0.12671635 
   15800   -945.93329    43.244882   -902.68841    1548.8749   -663.65499    2.1686161  0.046597926   0.11661288 
   15900    -950.6794    45.403187   -905.27622    1626.1775    5572.7308    2.1971264   0.14270855    0.1309891 
   16000   -947.86091    41.857909     -906.003    1499.1985    4161.3641    2.1904707  0.093856716   0.11969027 
   16100   -950.96327    44.101718   -906.86155    1579.5636   -8007.8876     2.167807   0.11746445   0.11797896 
   16200   -953.85181    37.710003   -916.14181    1350.6356    456.62184    2.1968024  0.068329929   0.11139945 
   16300   -952.14097    42.687823   -909.45315     1528.923    3720.7436    2.1986616   0.25028054   0.10870052 
   16400   -950.32093    44.553313   -905.76762    1595.7381    933.91652     2.188374   0.60783433   0.12132463 
   16500   -946.52423    41.269421   -905.25481     1478.121   -4855.8077    2.1670141   0.31840312   0.12867303 
   16600   -953.02731    39.154049   -913.87326     1402.356   -3316.5684    2.1838782  0.061723655   0.10695197 
   16700   -949.55544    40.320781   -909.23466    1444.1442    8427.7322    2.2046018  0.066243888   0.11682385 
   16800   -948.63968    44.407516   -904.23216    1590.5162    8179.4441     2.200617   0.12140122   0.11529264 
   16900    -951.3957    44.078042   -907.31766    1578.7156   -9686.8996    2.1609611  0.070458231   0.11913625 
   17000   -953.81466    39.467343   -914.34732    1413.5771   -9069.6288    2.1722303  0.067567031   0.11852638 
   17100   -951.28407    44.664322   -906.61975     1599.714    6265.2213    2.2034532  0.033841187   0.10070933 
   17200   -950.30224    45.754285   -904.54796    1638.7526     9412.232    2.2096188   0.24483944    0.1182194 
   17300    -949.2323    40.662021   -908.57028    1456.3661   -4478.4143     2.172184   0.12187494   0.10717614 
   17400   -953.58668    40.838978   -912.74771    1462.7041   -10272.834    2.1698021  0.052328735   0.11622458 
   17500   -949.04537    44.196267   -904.84911      1582.95    4597.2354    2.1952403   0.18110573   0.11859665 
   17600   -954.33067    50.044446   -904.28623    1792.4106    7554.7921    2.2077213  0.018924028    0.1104178 
   17700   -953.16574    46.574559   -906.59118    1668.1318   -6169.1466    2.1749251   0.23822846   0.10302255 
   17800   -951.12821    43.893945   -907.23426    1572.1219   -8143.2428    2.1657014   0.31293924   0.10078246 
   17900   -954.88519    38.015643   -916.86955    1361.5825    2195.9596    2.2051913    0.1401024   0.12420923 
   18000   -953.21201    42.091319   -911.12069    1507.5584    3023.2512    2.2006626   0.10761294   0.11132426 
   18100   -949.49485    42.638302   -906.85655    1527.1494    873.60846    2.1863321   0.02606044   0.10749141 
   18200   -948.08625    43.217305   -904.86895    1547.8871   -1413.1977    2.1766471   0.16532134   0.10690524 
   18300   -950.36177    44.595363   -905.76641    1597.2442   -831.74282    2.1795247   0.10710431  0.094163024 
   18400   -951.88055    39.167992   -912.71256    1402.8554    7440.9723    2.2067705   0.15218244   0.11856249 
   18500   -950.93803    44.716764   -906.22127    1601.5923    1008.6182    2.1896911   0.25407313   0.11714775 
   18600   -951.34171    46.094761   -905.24695    1650.9472    -8912.953    2.1636733  0.062901064   0.11195964 
   18700   -951.64428    41.938366   -909.70592    1502.0802   -6497.3701    2.1737467   0.23660667   0.10303612 
   18800   -953.16803    42.137929   -911.03011    1509.2278    10735.282    2.2210863  0.033326558   0.10187639 
   18900   -947.47993    43.937448   -903.54248    1573.6801    10665.067    2.2037687     0.124002   0.12992086 
   19000   -948.94559    42.495543   -906.45005    1522.0363   -13944.418    2.1489214  0.062405537   0.11228293 
   19100   -951.13244    41.490667   -909.64178    1486.0452   -10117.165    2.1642108  0.092282694   0.11106639 
   19200   -956.23659    41.970535   -914.26606    1503.2324    11266.953    2.2273999   0.18338074   0.11161345 
   19300   -949.41807    44.521925   -904.89615    1594.6139     3866.564    2.1904684   0.14549286  0.090454249 
   19400   -947.78498     42.04263   -905.74235    1505.8145     -6078.09    2.1631286   0.21024292   0.10978573 
   19500   -950.62103    44.162707   -906.45832     1581.748   -3805.6315    2.1750083   0.18314739   0.12032761 
   19600   -956.36322    41.050641   -915.31258    1470.2851    3419.0636    2.2094397   0.15774489   0.10765668 
   19700   -948.51763    39.240579   -909.27705    1405.4552    792.06004    2.1881476    0.2716858   0.12302865 
   19800   -949.07106    42.907751   -906.16331       1536.8   -3664.6221     2.176544   0.55939863    0.1148177 
   19900     -947.874    42.562407    -905.3116     1524.431     -183.047    2.1785893   0.14403619   0.11195456 
   20000   -955.15803     42.03749   -913.12054    1505.6304   -85.090594    2.1983235   0.29709303   0.11670189 
   20100   -948.55274    38.318341    -910.2344     1372.424    2072.2035    2.1886244   0.14337393   0.11599592 
   20200   -945.65571    40.143258   -905.51245    1437.7859    1643.4529    2.1827258   0.22290998   0.10352534 
   20300   -947.23011    41.567812    -905.6623    1488.8083    2137.4009    2.1819539  0.039653431    0.1208556 
   20400   -951.65124    37.873113   -913.77813    1356.4776     1383.038    2.1930328  0.071055068    0.1180682 
   20500   -949.30683    40.868413   -908.43842    1463.7583    -888.9325     2.181348  0.093617804   0.12052212 
   20600   -948.57789    43.464354   -905.11354    1556.7355    4532.2682     2.190393   0.48284422   0.11936427 
   20700    -948.5875    43.362175   -905.22533    1553.0758    3477.1977    2.1921855   0.15698639   0.11849092 
   20800   -953.24302      39.6025   -913.64052    1418.4179   -6166.8143    2.1809906  0.075593013   0.11233835 
   20900   -948.36258    40.097079   -908.26551    1436.1319    -6702.458    2.1667915   0.10986169   0.12404648 
   21000   -949.37604    44.764073   -904.61197    1603.2868    7998.1513    2.2018829   0.18313028   0.12797184 
   21100   -953.26817    46.090132   -907.17804    1650.7814    5433.2088    2.2054538   0.10448956   0.10663749 
   21200   -955.02762    40.443622     -914.584    1448.5439   -9304.9431    2.1753072   0.08982929   0.11241791 
   21300   -947.15086    39.914523   -907.23634    1429.5935   -7161.0777    2.1629409   0.22218125   0.12245201 
   21400   -948.21325    43.461103   -904.75214    1556.6191    10200.869    2.2048159 0.0050399898   0.12827594 
   21500   -949.85551    43.109808    -906.7457     1544.037    7887.9711    2.2023411  0.088090307   0.12360812 
   21600   -950.77575    38.533792   -912.24195    1380.1407   -7092.4036    2.1713635   0.17470438   0.10112239 
   21700   -953.79464    41.241769   -912.55287    1477.1306   -2837.9484    2.1832533  0.010605776    0.1158289 
   21800   -948.28166    42.043647   -906.23801     1505.851    6175.3971     2.197845   0.28185645   0.12687656 
   21900   -950.43882    44.697242   -905.74158    1600.8931    518.58026    2.1855915  0.087737707   0.13059282 
   22000   -947.82123    41.272925    -906.5483    1478.2465   -3781.6217    2.1717113  0.092318645   0.11516796 
   22100   -952.79072    37.917548   -914.87317    1358.0691    3038.6419    2.1983425  0.051832494   0.10667657 
   22200   -951.75874    44.264858   -907.49389    1585.4067    1420.9228    2.1882673   0.14699924   0.10356816 
   22300   -950.18032    44.891614   -905.28871    1607.8548    -1735.454    2.1792648  0.060959494   0.11637324 
   22400    -952.2218    45.794233   -906.42757    1640.1834   -4335.0495    2.1765662   0.19313204   0.11968318 
   22500   -953.24335     39.06339   -914.17996     1399.109    4855.9873    2.2025446    0.0151282   0.10050976 
   22600   -950.94149    44.497062   -906.44442    1593.7234    765.68309    2.1848265    0.5774116      0.10486 
   22700    -948.7734    43.421255   -905.35214    1555.1919   -3929.5315    2.1705118   0.16279867   0.11020306 
   22800   -951.53352    43.388497   -908.14502    1554.0186   -4213.6078    2.1781487  0.082181694   0.12736509 
   22900   -954.25674    40.658171   -913.59857    1456.2282    8271.1316    2.2174679   0.22002946   0.12598222 
   23000   -947.89493    42.934087   -904.96085    1537.7433    2955.1676    2.1902439  0.020648935   0.13162609 
   23100   -948.63349    42.701303   -905.93218    1529.4058   -10078.342    2.1543177  0.092941828   0.10687513 
   23200   -952.30059    44.454877   -907.84571    1592.2125    -6967.304    2.1729089   0.02519031    0.1140482 
   23300   -956.63492    41.757685   -914.87724    1495.6089    12978.055    2.2315394  0.052955674    0.1237204 
   23400   -950.00694    44.223348    -905.7836    1583.9199    973.07498    2.1853624  0.084193162   0.09950063 
   23500   -946.83191    41.019162   -905.81275    1469.1576   -6130.0159    2.1588047   0.10545705   0.11778085 
   23600   -950.16158    44.140258   -906.02132     1580.944    -4025.889     2.175932  0.030984522   0.10790828 
   23700   -953.24773    39.005691   -914.24204    1397.0424    6880.3981     2.210349   0.44135545   0.11803756 
   23800   -950.66809    40.076943   -910.59114    1435.4108    3716.5013    2.1924858   0.10606185   0.11765594 
   23900   -950.26492    43.797282   -906.46763    1568.6598   -3925.7397    2.1727442  0.057251456   0.12079301 
   24000   -947.09225    42.168047    -904.9242    1510.3065   -18.801689    2.1762658  0.050222261   0.12079703 
   24100   -953.08232    41.614449   -911.46787    1490.4786    3030.3853    2.1986226  0.038629722   0.12109914 
   24200   -952.52502    41.686421    -910.8386    1493.0564    1170.8682    2.1916018  0.035443126   0.11797318 
   24300   -949.67887    44.132364   -905.54651    1580.6612   -3784.3919    2.1733286   0.39326895   0.11056912 
   24400   -949.13684    43.506861   -905.62998     1558.258   -2357.5511    2.1753578  0.030488181   0.11098582 
   24500   -953.82688    40.072374   -913.75451    1435.2471    6567.7188    2.2077781  0.045755107   0.09500843 
   24600   -950.16146    42.767212   -907.39425    1531.7664    936.26848    2.1883451  0.070488601   0.11148477 
   24700   -949.99599    44.465755   -905.53024    1592.6021   -6548.6024    2.1689179  0.038090402   0.12887237 
   24800   -950.51013    43.513991   -906.99613    1558.5134   -3463.5366    2.1790626   0.21604461   0.12383571 
   24900   -953.85966    39.487124   -914.37253    1414.2856    5815.0883    2.2121493   0.08761751    0.1269038 
   25000   -949.08862    42.723332   -906.36529    1530.1948    1894.8892    2.1883088  0.064302127   0.13484498 
   25100   -949.26866    43.664221   -905.60444     1563.894   -4625.7542    2.1713721   0.18265067   0.13398383 
   25200   -950.64353    43.857549   -906.78598    1570.8183   -2629.1946    2.1802794   0.17925817   0.12449525 
   25300   -955.17572    42.571654   -912.60406    1524.7623    3967.7703    2.2077582   0.14776812   0.11821134 
   25400   -951.65396    39.348696   -912.30526    1409.3276    4765.4426    2.2039884   0.10777576   0.11794352 
   25500   -947.95546     41.38099   -906.57447     1482.117   -4717.2332    2.1714046   0.11862538   0.11063071 
   25600   -947.79322    41.636154   -906.15707     1491.256   -5516.6518    2.1697968  0.075378592   0.12298395 
   25700   -948.22009    44.725225   -903.49487    1601.8953      7410.17    2.1978588  0.041035784   0.11398904 
   25800   -941.55917    46.661143   -894.89803    1671.2329    5255.3694    2.1767274   0.09580366   0.12481749 
   25900   -946.76788    42.574472    -904.1934    1524.8632   -6193.1027    2.1629685  0.086758027   0.11515579 
   26000   -947.74628    41.307076    -906.4392    1479.4697   -3970.2588     2.166886  0.037426018   0.12236644 
   26100   -949.75102    44.592722    -905.1583    1597.1496    9559.4804    2.2023333   0.14424806   0.12345627 
   26200   -945.42064    49.763058   -895.65758    1782.3323    9319.3782    2.1898637  0.030124265   0.13003406 
   26300   -948.55332    45.999382   -902.55394     1647.531   -6864.7289    2.1617956   0.14399146   0.11356328 
   26400   -949.92898      42.9817   -906.94728    1539.4486   -11796.043    2.1531092   0.26336122  0.099829203 
   26500   -948.46173    42.967363   -905.49437    1538.9351    5712.5237     2.198884   0.06321512   0.10406334 
   26600   -948.57949    51.767618   -896.81188    1854.1283    10575.688    2.2040527   0.30155467   0.11935543 
   26700   -949.40668    45.894337   -903.51234    1643.7687   -5296.6391    2.1676453   0.01149257    0.1101641 
   26800    -950.3913    42.772368   -907.61894    1531.9511   -10709.769    2.1578517   0.10902981    0.1044612 
   26900   -949.10182    44.965889   -904.13593    1610.5151     1283.349    2.1852111   0.15826295   0.12267309 
   27000   -947.88393    50.653021   -897.23091    1814.2075    2283.2702    2.1811771   0.16121124   0.12242657 
   27100   -947.15485    40.316411   -906.83844    1443.9876    3188.1848    2.1874059   0.05546647   0.13028112 
   27200   -947.90413    41.289888   -906.61424     1478.854   -4658.7535     2.171237  0.052181385   0.11963458 
   27300   -947.66503    44.410597   -903.25443    1590.6265   -1833.6465    2.1716703    0.2027958   0.10724111 
   27400   -942.49165    45.125624   -897.36603    1616.2362    7510.2835    2.1841065    0.1526751   0.11448169 
   27500   -941.90747    44.327758   -897.57971    1587.6595    867.25769    2.1686316    0.1338947   0.12004902 
   27600   -948.08286    43.686235   -904.39662    1564.6825   -5989.1656    2.1645845  0.018788842   0.11070963 
   27700   -951.05753    45.151931    -905.9056    1617.1784     519.4795    2.1895777  0.051840303    0.1202584 
   27800   -951.45496    44.973236   -906.48172    1610.7782    6163.4083     2.201881  0.024890729   0.10981383 
   27900   -947.41921    45.674375   -901.74484    1635.8905   -1431.1616    2.1735365   0.11628789   0.11867936 
   28000   -945.10893    45.486009   -899.62292    1629.1439   -9994.4131    2.1487812   0.11325696   0.12432637 
   28100   -947.83686    41.628869   -906.20799    1490.9951    500.41116    2.1827433   0.12275493   0.12420305 
   28200   -950.57328    45.066457   -905.50682    1614.1171    10612.699    2.2142033  0.072176904   0.13489777 
   28300   -945.39097    42.244029   -903.14694    1513.0279    1747.6448    2.1782958  0.098699805   0.10065683 
   28400   -943.52216    45.854312   -897.66785    1642.3352    -17502.36    2.1245026   0.18445773   0.12186755 
   28500   -949.42283    42.178419   -907.24441     1510.678    724.75472    2.1887677   0.23351639   0.11194635 
   28600   -948.24301    43.158705   -905.08431    1545.7883    15944.914    2.2208169  0.090888116   0.10974531 
   28700   -952.44572    46.886462   -905.55926     1679.303   -2853.1748    2.1819881   0.20045237   0.10209216 
   28800   -941.43763    44.028443   -897.40919    1576.9391    -4145.787    2.1591662  0.057821211   0.12775749 
   28900   -946.54911    47.286383   -899.26273    1693.6268   -809.55592    2.1733414   0.11433227   0.10571047 
   29000   -949.77551    45.385605   -904.38991    1625.5478   -424.03466    2.1833438   0.21623135   0.11455219 
   29100   -950.45747    43.536113   -906.92135    1559.3057     1204.146     2.186186  0.094922541   0.12836522 
   29200   -948.85554    42.953615   -905.90192    1538.4427    441.36592     2.183532   0.13456534   0.10489387 
   29300   -945.65616     47.57376    -898.0824    1703.9196     -4547.98    2.1649748 0.0083476737   0.12754371 
   29400   -946.07139    40.456637   -905.61475      1449.01    5358.8873    2.1896968   0.31355337   0.10307459 
   29500   -949.56492    42.676624   -906.88829    1528.5219    3957.2338    2.1947778  0.024018005   0.11123052 
   29600   -946.96707    45.339803   -901.62727    1623.9073   -1472.7765    2.1750353   0.41627826   0.12351174 
   29700    -945.1423    44.419795    -900.7225     1590.956   -3517.5938     2.162524  0.097101014    0.1139467 
   29800   -949.80864    42.407234   -907.40141    1518.8733    542.57164    2.1887452  0.037861605   0.11045131 
   29900   -949.57571    44.420118   -905.15559    1590.9675    7922.2315     2.206264   0.19419594   0.11508663 
   30000   -947.18256    48.933929   -898.24863    1752.6359   -1304.9513    2.1739119  0.086551053   0.11317002 
   30100   -945.04277    39.899641   -905.14313    1429.0604   -7112.9775     2.157211   0.13741904   0.12209962 
   30200   -948.76607    41.652167    -907.1139    1491.8296   -3831.8279    2.1740554   0.17179644    0.1262026 
   30300   -947.77416     44.06045   -903.71371    1578.0855    12290.976    2.2133231  0.039966509   0.12320462 
   30400   -948.83765    43.123658   -905.71399     1544.533    5885.0904    2.1986247   0.14990613   0.11697623 
   30500   -954.14409    41.817504   -912.32659    1497.7514   -9449.1135    2.1722936   0.31084734   0.11837761 
   30600   -951.61567    44.045281   -907.57039    1577.5422   -6336.6548     2.177824   0.38218196   0.12210365 
   30700   -948.99448     45.20701   -903.78747    1619.1512    7571.3459    2.2001492  0.073729645    0.1346885 
   30800   -951.80805     42.38212   -909.42593    1517.9738     2640.801     2.200337  0.028113577    0.1110503 
   30900   -946.41158    34.918596   -911.49299    1250.6575   -635.86091    2.1834525   0.21293945   0.12681703 
   31000   -948.77922    43.625034   -905.15418    1562.4905   -3547.3803    2.1776112   0.23548204   0.11861092 
   31100    -952.0317    46.420137   -905.61156    1662.6009   -89.316476    2.1924341   0.28373709   0.12781026 
   31200   -955.03132    41.739259   -913.29206    1494.9489   -280.79305    2.2028485  0.086303751   0.12018336 
   31300    -947.7404    41.772413   -905.96799    1496.1363   -2020.0067    2.1796045   0.32531559   0.12020129 
   31400   -949.61636    44.837265    -904.7791    1605.9082    602.55772    2.1870044  0.072361781   0.13077376 
   31500   -949.30042    41.105393   -908.19503    1472.2461    1947.2224    2.1944915  0.081663844   0.11720208 
   31600   -952.88511    39.496234   -913.38888    1414.6119   -1152.1021    2.1958896   0.22819719   0.13470542 
   31700   -947.52931    43.502725   -904.02659    1558.1098    -3485.464    2.1742258    0.1158658   0.11328741 
   31800   -945.31008     40.38205   -904.92803    1446.3386    5667.2393    2.1960888  0.033421003   0.12298343 
   31900   -946.71679     39.90094   -906.81585     1429.107    6378.9361    2.1986274   0.08299792   0.12646386 
   32000   -949.64886    41.988063    -907.6608    1503.8602   -2444.2558    2.1789561   0.20875119   0.12253364 
   32100   -944.27999    46.210525   -898.06946    1655.0934   -8789.3421    2.1540937    0.3178683   0.13356913 
   32200   -947.53142    43.702329   -903.82909    1565.2589    7723.8189    2.2009078   0.32402507   0.13678525 
   32300    -948.2519     41.86651   -906.38539    1499.5066    9972.6843      2.20626   0.12011463   0.11570446 
   32400   -950.35497    43.150288   -907.20468    1545.4868    -10620.63    2.1612084  0.084113643   0.11781046 
   32500   -941.99468    44.339713   -897.65497    1588.0877   -16950.489    2.1268696   0.16034471   0.14843879 
   32600   -950.77406    45.151166    -905.6229     1617.151    17005.855    2.2290459    0.2213298   0.12443817 
   32700   -948.94512    42.924854   -906.02027    1537.4126    15664.178     2.220501  0.085893679   0.11792782 
   32800   -945.83229    39.696955   -906.13533     1421.801   -6334.7963    2.1625282  0.034530835   0.11573009 
   32900   -943.85493    45.308049   -898.54688      1622.77   -8290.1469    2.1545074  0.018285029   0.12144071 
   33000    -951.4356    45.178596   -906.25701    1618.1335    3377.9207    2.1979347  0.022874744   0.11291381 
   33100   -949.63081    42.628923   -907.00189    1526.8134    4139.9746    2.1950612  0.068062475   0.11301352 
   33200   -949.91094    44.711869   -905.19907     1601.417   -4604.1118    2.1756198    0.2176609   0.11569203 
   33300   -948.28037    48.650327   -899.63005    1742.4783    -5787.872    2.1650155  0.020130818   0.11964125 
   33400   -944.95684    40.718041    -904.2388    1458.3725     3079.413    2.1832052  0.017882895   0.11863044 
   33500   -946.47206    39.070818   -907.40124     1399.375    5902.2702    2.1937818   0.22029597   0.12759927 
   33600   -950.46143    44.433752   -906.02768    1591.4559    1779.3261    2.1890782  0.062136933    0.1208782 
   33700   -949.09489     43.72778   -905.36711    1566.1705   -4549.0977    2.1758968  0.054481194   0.11937465 
   33800   -950.30449    42.209876   -908.09461    1511.8047   -1352.7432    2.1812771   0.14037005   0.11246434 
   33900   -954.19424    41.433802   -912.76044    1484.0085    4964.7643    2.2101979 0.0045304036   0.10905146 
   34000   -950.96546    43.844925   -907.12054    1570.3662    5706.2516    2.2049211  0.089084952   0.11800756 
   34100   -948.38454    43.290421   -905.09412    1550.5059   -5669.2255    2.1687303  0.098154567   0.12146572 
   34200   -945.72644    42.179712   -903.54673    1510.7243     -8466.64    2.1580319   0.18003768   0.12880615 
   34300   -953.89573    41.083229    -912.8125    1471.4523    7842.9548    2.2173411   0.10287085   0.11254122 
   34400   -946.96869    40.947916   -906.02077    1466.6059    9479.1621    2.2035161   0.99225947   0.15140515 
   34500   -947.78124    43.834949   -903.94629    1570.0089   -9317.8703    2.1569122   0.18251418   0.13368987 
   34600   -950.97377    43.831372    -907.1424    1569.8808   -8852.0801    2.1656869   0.06354873   0.11994307 
   34700   -952.89125    42.792102   -910.09915    1532.6579    6190.6367    2.2093128   0.10328798   0.11893656 
   34800   -944.79406    42.890751   -901.90331    1536.1912    6651.3159    2.1882094   0.16391618   0.11416352 
   34900   -949.11947    42.362895   -906.75658    1517.2853   -3591.8079    2.1753053  0.035675726   0.11552997 
   35000   -951.73225    41.600405   -910.13184    1489.9756   -3253.1539    2.1819273   0.23351843   0.11383968 
   35100   -946.32277    45.169867    -901.1529    1617.8208   -45.139782    2.1757487  0.083471205   0.10971267 
   35200   -945.45915    39.808244    -905.6509    1425.7869    5551.4737    2.1924621   0.13993886    0.1145043 
   35300   -947.64689    38.573857   -909.07303    1381.5757    1899.6675    2.1875513   0.14889017   0.11052864 
   35400    -945.1601    44.546692   -900.61341     1595.501    -3755.311    2.1650962  0.073628743   0.11191309 
   35500   -950.17142    44.796634   -905.37479     1604.453    426.65658    2.1841448  0.070792001    0.1169563 
   35600   -953.00392    44.645854   -908.35807    1599.0526    52.241437    2.1915221  0.036311584   0.11588253 
   35700   -943.69784    42.015829   -901.68201    1504.8546    396.08827    2.1729424   0.26489842   0.12505447 
   35800   -947.31826    42.482827   -904.83543    1521.5808   -806.16475     2.173313  0.089982532   0.11389013 
   35900   -951.91673    42.821646   -909.09509    1533.7161   -2043.9755     2.183652 0.0052889787    0.1245134 
   36000   -947.88965    45.040643   -902.84901    1613.1925    4869.9359    2.1907374   0.10747357    0.1179214 
   36100   -951.42416    45.762437   -905.66172    1639.0445    788.51444    2.1862271  0.050032752   0.10270958 
   36200    -951.9666    41.140174   -910.82643    1473.4918   -8775.9375     2.168711   0.05024953   0.10791272 
   36300   -948.74177    43.786185   -904.95559    1568.2624   -1595.7857    2.1763225 0.0087559672   0.10531781 
   36400    -949.8316    46.363626   -903.46797    1660.5769    9619.5081    2.2035164  0.023023137   0.10881905 
   36500   -953.80266    41.953318   -911.84934    1502.6157    4152.1043    2.2030024   0.11406089   0.10411783 
   36600   -947.94729     42.59229     -905.355    1525.5014   -10962.639    2.1533205  0.028830297   0.12387138 
   36700    -948.5683    44.196683   -904.37162    1582.9649   -5416.8622    2.1696783   0.27028898   0.12363812 
   36800   -951.59318    41.509586   -910.08359    1486.7228    9174.6978    2.2125683   0.05607695   0.11790127 
   36900   -950.04577    43.699288   -906.34648      1565.15    6259.0851    2.1965567  0.091553292   0.12047538 
   37000   -946.02746    42.784055    -903.2434    1532.3697    -7310.731    2.1554787  0.058139358   0.11816468 
   37100   -952.43696    43.528591   -908.90836    1559.0363   -6940.8106    2.1694685   0.17543366  0.099229483 
   37200    -951.6224    44.703529   -906.91887    1601.1183     6561.504    2.2010907  0.023350518   0.10371995 
   37300    -945.7978     45.40999   -900.38781    1626.4212    5047.9802    2.1823709   0.24893666   0.11805809 
   37400   -948.92181    40.783706    -908.1381    1460.7245   -4720.9211    2.1732447  0.023634664   0.11497404 
   37500   -949.46726    42.923594   -906.54367    1537.3675   -3428.5985    2.1733317   0.18789806   0.11001426 
   37600   -947.79959    48.149118   -899.65047    1724.5268    318.25288    2.1781335    0.1105773    0.1164297 
   37700   -951.26651    43.176284   -908.09022    1546.4179    2802.7277    2.1944766   0.18443232   0.12706091 
   37800   -945.92365    38.815986   -907.10766    1390.2479    1128.5719    2.1778567  0.030890279   0.12688636 
   37900     -946.697    45.760295   -900.93671    1638.9678    -3824.361    2.1659681   0.21956436   0.14161436 
   38000   -949.74032    40.315156   -909.42516    1443.9427    4504.3473    2.1968966   0.16245401   0.11852809 
   38100   -947.83549    40.176166   -907.65932    1438.9645    2656.3634    2.1873301   0.12784243   0.12586129 
   38200   -947.24967    44.525151   -902.72452    1594.7294   -4297.5686     2.166857   0.10328171   0.11058426 
   38300   -949.01564    39.643067   -909.37257    1419.8709    19.876344    2.1831091   0.19733789   0.10417345 
   38400    -951.7283    42.681314   -909.04699    1528.6899    2571.6866    2.1940353  0.042819866   0.11195233 
   38500   -949.18706    45.996971   -903.19009    1647.4447    1806.2518    2.1841027  0.073140121   0.11022658 
   38600   -948.06123    39.903122   -908.15811    1429.1851    -503.7758    2.1810695   0.31764728    0.1288261 
   38700   -952.42679    41.462331   -910.96446    1485.0303   -3918.7993    2.1828254  0.060839483   0.10650126 
   38800   -948.02276    44.611535   -903.41122    1597.8234    3789.4775    2.1906038  0.035257697   0.12985663 
   38900   -949.48003    42.783545   -906.69649    1532.3514     5449.288    2.1969215  0.067993611   0.12185268 
   39000   -951.45038    39.119231   -912.33115     1401.109   -7099.9281    2.1743827   0.19043804     0.124327 
   39100   -947.62223    44.077691   -903.54454     1578.703   -9849.9039    2.1550614   0.11089578    0.1346583 
   39200   -950.19507    45.381507   -904.81357     1625.401    7894.4113    2.2040478  0.038079464   0.11127339 
   39300   -953.56646    44.713277   -908.85319    1601.4674    7396.0532    2.2104907  0.065150847   0.10737971 
   39400   -943.49845    43.013222   -900.48523    1540.5776   -4700.3618     2.158857   0.10601105   0.11061779 
   39500   -948.55642    43.871383   -904.68503    1571.3138   -7241.7203    2.1644503  0.091906339   0.11593576 
   39600   -949.27845    41.308561   -907.96989    1479.5229    3758.4606    2.1975666   0.23438743    0.1224038 
   39700   -946.84884    44.520891   -902.32795    1594.5769    7838.5514    2.1988308  0.031051366   0.13098046 
   39800   -948.83391    46.037386   -902.79652    1648.8922   -6133.4976     2.163827   0.01356688   0.11311103 
   39900   -952.95629    43.326006   -909.63028    1551.7804   -8597.9958    2.1697672  0.090768375    0.1118352 
   40000   -950.66637    46.398791   -904.26758    1661.8364    3822.9429    2.1932665  0.067898196   0.12644071 
   40100   -949.09028    45.958669   -903.13161    1646.0729    5916.5714    2.1958979  0.056597798   0.11307687 
   40200   -952.92192    41.391903   -911.53002    1482.5079   -2693.9434    2.1869218   0.22106245   0.11237854 
   40300   -950.80159    44.638754   -906.16284    1598.7983   -8179.4967    2.1663847  0.061771057   0.10931946 
   40400   -944.42928    41.211144   -903.21814    1476.0337    2576.2182    2.1805471     0.277129   0.11289322 
   40500   -955.24501    43.820326   -911.42469    1569.4852    5157.8244    2.2094391   0.19694184    0.1160221 
   40600   -950.64901    44.447595   -906.20141    1591.9517   -3235.1479    2.1780228  0.078426782   0.11005601 
   40700   -947.90216    43.608154     -904.294    1561.8859   -7613.4978    2.1595462   0.12054001   0.11023078 
   40800   -950.57316    41.402655   -909.17051     1482.893    2393.0854     2.191386   0.10299549   0.10953722 
   40900   -952.53773    43.593032   -908.94469    1561.3443    16159.619     2.228108   0.08983717   0.11973784 
   41000   -947.60041    45.725226   -901.87518    1637.7118   -3688.9209    2.1667463  0.090162484   0.10749659 
   41100   -949.89763    42.542225   -907.35541    1523.7082    -20788.88    2.1324853   0.37997084   0.11570296 
   41200   -947.57555    42.703883   -904.87167    1529.4982    2434.2182     2.186491   0.17841156   0.11150158 
   41300   -944.24574    47.146178   -897.09956    1688.6051    12184.888    2.1993732    1.8388987    0.1485039 
   41400   -948.24426    42.559661    -905.6846    1524.3327   -3180.7981    2.1789157    1.3658397   0.14149553 
   41500   -950.95186    43.902771   -907.04909     1572.438   -9587.4806    2.1611185   0.17877612   0.10615592 
   41600   -945.07759    44.583698   -900.49389    1596.8264    2109.9264    2.1785398   0.20663274   0.11155903 
   41700   -946.87243    43.504544   -903.36789     1558.175    7819.8486    2.1990546  0.013215173    0.1073525 
   41800   -950.24684    42.237249   -908.00959    1512.7851   -1312.0323     2.185037 0.00066336305   0.10750901 
   41900    -949.8138    44.126574   -905.68722    1580.4539   -5249.9547    2.1694141   0.11581634   0.11462299 
   42000   -944.51976    45.123365    -899.3964    1616.1553    1624.5813    2.1767717    2.6464793     0.123192 
   42100   -948.33374    48.197036    -900.1367    1726.2431    860.34248    2.1862099    8.1472807   0.14533507 
   42200   -948.16916    42.394833   -905.77433    1518.4292   -612.38489    2.1795354    5.6755502   0.13962039 
   42300   -949.51878    44.138695   -905.38009     1580.888    -2414.934    2.1751731    4.8126158   0.13209567 
   42400   -948.82219    47.638664   -901.18352    1706.2442    1233.2641    2.1857805    5.7707807   0.14700792 
   42500   -943.52498    47.524844   -896.00014    1702.1676    4016.5514     2.181276    7.8387339   0.13538334 
   42600   -952.27148    45.857406   -906.41408     1642.446   -1656.9176    2.1824604    5.8380153   0.13508191 
   42700    -946.4491    41.640127   -904.80898    1491.3984   -4663.9373    2.1623892    8.6731893   0.13438583 
   42800   -948.53822    44.516727   -904.02149    1594.4277    1443.9041    2.1872038   0.84586045    0.1159622 
   42900   -954.36102    42.939838   -911.42118    1537.9493    6998.0099    2.2127733   0.61690987     0.119231 
   43000   -950.49477    42.301553   -908.19322    1515.0882   -1016.9602    2.1839237    1.0838035   0.13737767 
   43100   -948.78384    44.540094   -904.24375    1595.2646   -6157.4519    2.1696011   0.30030892   0.13123064 
   43200   -944.37662    40.950025    -903.4266    1466.6814    1952.1878    2.1832754    7.9060736   0.14186898 
   43300   -951.59425    40.363425   -911.23082    1445.6715    6795.0767     2.207676    5.9796567   0.12863434 
   43400   -950.12484    42.429999   -907.69484    1519.6887   -2517.4584    2.1829614    5.5079111   0.12132481 
   43500   -945.70475     40.99465    -904.7101    1468.2797   -1423.4541    2.1761295    6.5324624   0.14901831 
   43600   -947.23248    40.087936   -907.14454    1435.8045    4647.6154    2.1968223    4.4880892    0.1238114 
   43700   -951.95897     38.94264   -913.01633    1394.7841    7548.3434    2.2125804    6.1775586   0.13006179 
   43800   -946.93719    43.392306   -903.54488     1554.155   -7223.4715    2.1641374    6.9665401   0.11604712 
   43900   -948.07222    42.417227     -905.655    1519.2312   -7837.9747    2.1645336    4.6588165   0.11182567 
   44000   -952.61366    44.843963    -907.7697    1606.1481    6626.2714    2.2066761    5.2124034   0.11725432 
   44100   -957.67293    43.384893   -914.28803    1553.8895    7501.3974     2.219881    5.4263772   0.11019518 
   44200   -952.33559    39.973727   -912.36186    1431.7139   -7750.1262    2.1748099    6.0781138   0.11704686 
   44300   -950.05741    42.402268   -907.65514    1518.6955   -7050.6715    2.1665601    6.5710343   0.10158671 
   44400   -950.06305    43.872425   -906.19062    1571.3512    5654.6463    2.1978546    4.8305766   0.11911845 
   44500   -947.52134    43.102223   -904.41911    1543.7653     8799.436    2.2026536    4.5686057    0.1227303 
   44600   -944.92305    48.721978   -896.20107    1745.0446   -5257.9153    2.1604732    5.2473466   0.12805129 
   44700    -947.4011    44.045436   -903.35567    1577.5478   -5805.5615    2.1628626    6.2893309   0.11760484 
   44800   -949.74667    43.753142   -905.99352    1567.0789    54.347466    2.1840963    5.8923924   0.11206175 
   44900   -947.06451    41.666448   -905.39806    1492.3411    11273.297    2.2038375    6.6838606   0.11551196 
   45000   -948.79291    41.040738   -907.75218    1469.9304    1832.5427    2.1863817    4.8703221   0.11140402 
   45100   -952.84744    37.967812   -914.87963    1359.8693   -12098.969    2.1620664    6.4561264   0.11155156 
   45200   -948.45077    40.178871    -908.2719    1439.0614   -1429.6098    2.1740874    8.0168315   0.13348063 
   45300   -946.25052    42.913933   -903.33658    1537.0214     22831.84    2.2282098    4.6489072   0.15461642 
   45400    -949.9406     44.75444   -905.18616    1602.9417    5011.9306    2.1957156    6.7848438   0.13759135 
   45500   -944.77686    45.663979   -899.11288    1635.5181   -15680.653    2.1324429    5.9275154   0.14877266 
   45600   -944.59226    46.054864    -898.5374    1649.5182   -7390.0694    2.1516822    5.9093224   0.14331456 
   45700   -949.67158    45.503215   -904.16836    1629.7601    6553.7071    2.2021377    11.600693   0.12076587 
   45800   -952.98584    46.776522   -906.20932    1675.3654    3153.9287     2.198427    14.253923   0.11692109 
   45900   -954.52557    44.544959   -909.98061    1595.4389   -8058.3664    2.1747169    16.141423  0.099088025 
   46000   -954.77927    38.156679   -916.62259    1366.6339   -4271.5496     2.188301    16.216195   0.10672718 
   46100   -951.79936     44.20176    -907.5976    1583.1467    395.56599     2.190209    17.574853    0.1222775 
   46200   -949.98041    43.959587   -906.02083     1574.473     5205.979    2.1982862    15.179126   0.11581107 
   46300   -948.84364    42.938061   -905.90558    1537.8856   -2988.5776    2.1791896     15.48511   0.12379771 
   46400   -941.39532    43.095637   -898.29968    1543.5294    -3363.924    2.1629627    15.931192   0.11828853 
   46500   -943.69342    43.255656   -900.43776    1549.2607    3561.5098    2.1847287    13.389586   0.12449598 
   46600   -949.42163    44.119118   -905.30252    1580.1868    1484.4702    2.1890666    16.417648   0.11561794 
   46700   -949.60838    42.742297   -906.86609    1530.8741    -2381.595    2.1793279    16.913199   0.11181618 
   46800   -948.64158     44.66917   -903.97241    1599.8877   -2185.4106    2.1738182    17.959615   0.12060595 
   46900   -947.18175    48.785142    -898.3966    1747.3069     609.8986    2.1753057    14.807749   0.10604333 
   47000   -950.22113    44.815695   -905.40544    1605.1357    3475.4409    2.1940236    17.723139   0.11487399 
   47100   -951.09102    44.128786   -906.96223    1580.5331   -1584.0692    2.1847276    14.630849   0.11592329 
   47200   -945.47808    44.741397   -900.73669    1602.4746    -3254.501    2.1663862    15.451935   0.11130739 
   47300   -944.57964      43.8554   -900.72424    1570.7414    1240.3377    2.1771509    16.332579   0.11902771 
   47400   -952.50375     45.91189   -906.59186    1644.3974    520.46427    2.1925054    13.128194   0.10642227 
   47500    -949.0455    42.932365   -906.11314    1537.6816    526.82936     2.184947    15.321926   0.11673634 
   47600   -942.75456     44.57853   -898.17603    1596.6413    415.59019    2.1683139      17.6523   0.11779333 
   47700   -946.37165    41.905836   -904.46581    1500.9151    1195.3848    2.1853238    18.848855   0.13546534 
   47800   -950.70422    43.857491   -906.84673    1570.8163   -1184.2085    2.1868111    15.518026   0.11565264 
   47900   -949.12897    43.837447   -905.29153    1570.0984   -282.00533     2.183238    17.109291    0.1128081 
   48000   -941.31302     43.41162    -897.9014    1554.8468    1620.1334    2.1727114    14.019372   0.13820863 
   48100   -949.79321    46.158702    -903.6345    1653.2373    272.94805    2.1846321     15.05958   0.11730551 
   48200   -951.86125    45.356966   -906.50428     1624.522   -4205.1175    2.1758162    15.696913   0.11036133 
   48300    -948.3101    42.144608    -906.1655     1509.467   -473.54458    2.1835461    18.251662   0.12104853 
   48400   -946.42009    44.679528   -901.74057    1600.2587    6114.8776    2.1954421    15.677122   0.11614052 
   48500   -945.07385    46.152383   -898.92147     1653.011    137.42397    2.1743501    16.456454   0.13231464 
   48600   -948.23579    41.806149   -906.42964    1497.3447   -7696.3571    2.1654513    17.520033   0.12407252 
   48700   -949.38552    43.158776   -906.22674    1545.7908     1384.711    2.1901547    16.029687   0.11850496 
   48800   -947.31108     43.82998    -903.4811    1569.8309    9142.2852    2.2075369    16.921192   0.13486613 
   48900   -942.05267    44.771872    -897.2808    1603.5661   -3527.7281    2.1607308    15.347219   0.11214486 
   49000   -947.43935    40.991229   -906.44812    1468.1572   -8209.0433    2.1646244    13.931498   0.13519879 
   49100   -951.83457    45.769816   -906.06476    1639.3088    4500.6155    2.1988025    16.942343   0.11110737 
   49200   -953.29095    47.949704   -905.34125    1717.3845    8684.9537    2.2104358    16.798213   0.11643713 
   49300   -942.28154    46.436138    -895.8454    1663.1741   -8599.7123    2.1468761    16.189542   0.15137632 
   49400   -947.69967    42.943259   -904.75641    1538.0718   -4966.1934    2.1646507    16.515713   0.10363326 
   49500   -952.01061    45.749944   -906.26067    1638.5971    3973.6273    2.1955586    13.478216   0.12436787 
   49600   -950.75245    44.864355    -905.8881    1606.8785    4411.0989    2.1971383    16.174903   0.10855794 
   49700   -945.56323    49.054437   -896.50879     1756.952    -6055.729    2.1562248    16.691817   0.11281501 
   49800   -948.38828    43.527254   -904.86103    1558.9884   -956.03277    2.1803153    14.363228   0.11554644 
   49900   -951.22638    44.689324   -906.53705    1600.6095    663.67979    2.1877528    14.842978   0.11037704 
   50000   -948.26369    42.332136   -905.93156    1516.1836   -269.56165    2.1836187    14.136543   0.11881737 
   50100   -942.30354    45.915727   -896.38781    1644.5348    -23.92349    2.1656925    12.128766   0.13194663 
   50200   -941.67358    40.121821   -901.55176    1437.0181    7405.6078      2.18495    12.830051    0.1275009 
   50300   -947.07771    42.042599   -905.03511    1505.8134    669.44688    2.1853194    13.615929   0.12511043 
   50400   -948.43664    43.725678   -904.71096    1566.0952   -2465.9639    2.1719846    12.468953   0.12346753 
   50500   -944.78285    48.828501   -895.95435    1748.8598   -276.00743    2.1729482    12.678678   0.12848675 
   50600   -947.80964    46.685635   -901.12401    1672.1102    4423.5477    2.1947219    11.422867   0.13840859 
   50700   -946.45933    41.349533   -905.10979    1480.9903   -8189.9764    2.1662524    13.241569   0.13791615 
   50800   -948.92284    43.445415   -905.47742    1556.0572   -7401.7177    2.1660674    15.012151   0.11908419 
   50900   -954.96048    41.288328   -913.67215    1478.7982    6369.1751    2.2150539    14.500023   0.13163271 
   51000   -952.51745    43.459616   -909.05783    1556.5658    8289.7708     2.215509    15.169005   0.12525702 
   51100   -945.42079    40.248349   -905.17244    1441.5499   -5073.9167    2.1668878    18.865037   0.13424061 
   51200   -948.47728    42.018564   -906.45871    1504.9526   -15742.031    2.1435756    17.937194   0.11452506 
   51300   -953.31267    41.592051   -911.72061    1489.6764    7422.5451    2.2108492    15.395946    0.1210108 
   51400   -951.88188    42.681628   -909.20026    1528.7011    18902.029     2.237488    16.072032   0.14336518 
   51500   -949.51241    44.604229   -904.90818    1597.5617    -3889.191    2.1734542    16.068465   0.11274876 
   51600   -952.66834    45.971347     -906.697    1646.5269   -12298.255    2.1598335    13.359987   0.10946562 
   51700   -952.14668    44.554001   -907.59268    1595.7627    1225.8631    2.1899102     16.94034   0.11345599 
   51800   -948.21935    50.409963   -897.80938    1805.5021    5256.3009    2.1908529    14.598565   0.13033276 
   51900   -948.69704     46.77689   -901.92015    1675.3785      2525.49    2.1854188    15.914669   0.13014671 
   52000    -951.0038    44.489761   -906.51404    1593.4619   -8029.2084    2.1673445    17.747687   0.12622965 
   52100   -949.24689    42.098279   -907.14861    1507.8077   -2845.4948    2.1758761    17.456358   0.12139629 
   52200   -945.89628    46.734383    -899.1619    1673.8561    7835.6014    2.1921856    16.723107   0.12181007 
   52300   -950.27664    48.216332   -902.06031    1726.9342    2491.1859    2.1910961    15.079214   0.10764573 
   52400   -948.33018      40.9693   -907.36088    1467.3717   -7430.6626    2.1626973    14.935071   0.12226945 
   52500   -947.12415    41.539296   -905.58485     1487.787   -905.58248    2.1720139    16.741015   0.12101872 
   52600   -947.39522     50.15621   -897.23901    1796.4135    8683.9689    2.1943602    13.566701    0.1196079 
   52700    -952.1922    47.131444   -905.06075    1688.0774    5002.2098    2.1988427    15.586022   0.13459085 
   52800   -950.97279    43.494402   -907.47838    1557.8118   -10577.371     2.158113    16.535474   0.10977321 
   52900   -947.14634    43.176827   -903.96951    1546.4374   -3383.4789    2.1669413    16.361539   0.13313848 
   53000   -946.96657     44.75052   -902.21605    1602.8014     6663.054    2.1948676    15.688162   0.12239653 
   53100    -953.3132    42.043407   -911.26979    1505.8424    7466.6197    2.2077416    15.020476   0.11530394 
   53200   -951.56004    44.111154   -907.44889    1579.9016   -4038.0382      2.17175     13.59288    0.1105317 
   53300   -948.10202    43.382138   -904.71988    1553.7909   -5111.1309    2.1657151    15.255568   0.10693494 
   53400    -951.7889    45.319661   -906.46924    1623.1859     1460.651    2.1885272    13.038404   0.11593509 
   53500   -952.76222    40.515486   -912.24673    1451.1178    7568.5161    2.2088152    15.363946   0.12271222 
   53600   -946.97151    41.503183   -905.46833    1486.4935    -272.7803    2.1768307    16.611437   0.12299583 
   53700   -947.31845    41.963245   -905.35521    1502.9712   -5243.1638    2.1650847    14.226118   0.12480663 
   53800   -953.19063    40.344225   -912.84641    1444.9838     734.9084    2.1952367    16.227912   0.12209294 
   53900   -953.02487    45.078484   -907.94639    1614.5478    3269.2168    2.1981772    14.582339   0.12345584 
   54000   -948.38897    43.730321   -904.65865    1566.2615    499.44283    2.1825406    15.602473    0.1135867 
   54100     -950.615    42.373015   -908.24199    1517.6477   -4856.5537    2.1701884    16.031982   0.11995823 
   54200   -952.80601    39.492455   -913.31356    1414.4765   -86.343364    2.1896451    14.438088   0.12403916 
   54300   -952.64791    48.350906     -904.297    1731.7541    1823.6754     2.191114    11.981408   0.12917184 
   54400   -951.51092    46.667974   -904.84295    1671.4776    5509.9406    2.1986559    16.932496   0.11175439 
   54500   -950.16351    42.240919   -907.92259    1512.9165   -8175.9266     2.159829    16.673976   0.12371764 
   54600   -948.65986    46.357748   -902.30211    1660.3664   -14819.599    2.1390006    17.072825   0.11426862 
   54700   -946.68123    47.155207   -899.52602    1688.9285    13506.794    2.2050712    11.454176   0.12574494 
   54800   -947.20039    42.657984    -904.5424    1527.8543    12350.546    2.2071276    13.507664   0.14819078 
   54900   -948.84337    41.278562   -907.56481    1478.4484   -10536.334    2.1578701    16.481563   0.10159603 
   55000   -946.16888    43.951318   -902.21756    1574.1768   -7460.2139    2.1558545    14.601046   0.14176894 
   55100   -943.17745    44.338394   -898.83905    1588.0405    5555.1126    2.1879777    14.331583   0.12212769 
   55200   -949.21699    43.159837   -906.05715    1545.8288    6227.1468    2.2001388    14.308279   0.13232916 
   55300   -949.82123    43.099711   -906.72152    1543.6753   -3834.1311    2.1768046    14.909976   0.13105518 
   55400   -945.21892    44.207952   -901.01097    1583.3685   -4796.1989    2.1661953    15.344745   0.13049544 
   55500   -945.83855    46.109214   -899.72933    1651.4648    760.97934     2.178678    16.099768   0.12912795 
   55600   -952.07278    45.543337   -906.52944    1631.1972    2630.5273    2.1954089    15.649794   0.11358184 
   55700   -949.69293    43.920616   -905.77231    1573.0772    829.37507    2.1893194    17.600248   0.13790449 
   55800   -947.42719    43.711015   -903.71618      1565.57   -5166.7001     2.167203    17.805587    0.1201083 
   55900   -944.47312    50.266935   -894.20618    1800.3793   -4978.8646    2.1588056    16.994316    0.1306989 
   56000   -949.78306    46.087627   -903.69544    1650.6916    13550.499     2.216209    15.699932   0.12639671 
   56100   -949.76943    44.090001   -905.67943     1579.144    1873.4519    2.1882088    14.616943   0.11359658 
   56200   -949.03336    41.449681   -907.58368    1484.5773   -13880.142    2.1471102    17.520309   0.11218598 
   56300   -951.92146    49.026055    -902.8954    1755.9355    -4554.273     2.176035    15.989144   0.11780602 
   56400   -942.70739    43.273994   -899.43339    1549.9175      15685.6    2.2074887    16.737253   0.12463501 
   56500   -951.13812    45.621582   -905.51654    1633.9996   -493.53787    2.1832046    15.599239   0.11514329 
   56600   -950.22908    42.669387   -907.55969    1528.2627   -6704.3751    2.1695249    15.903574   0.11954794 
   56700   -945.87149    43.854212   -902.01728    1570.6988     401.2476    2.1811673    17.958636   0.12364499 
   56800   -945.20402    44.696465   -900.50756    1600.8653    3458.8652    2.1826071    17.593063   0.12648126 
   56900   -949.49792    42.547515   -906.95041    1523.8977   -2360.1574    2.1809542    15.396773   0.12597528 
   57000   -947.16639    41.253271   -905.91312    1477.5426   -1199.5076    2.1795064    15.661745   0.11560867 
   57100     -941.973    43.929518   -898.04348     1573.396    3151.6636    2.1763389    14.275296   0.12352463 
   57200   -948.61886    42.936732   -905.68213     1537.838    3184.3375    2.1919488    17.806325   0.11218997 
   57300    -950.8125    43.564141   -907.24836    1560.3096   -6971.7957    2.1692683    16.741375   0.10599191 
   57400   -949.79247    44.970524   -904.82194    1610.6811   -4174.1181    2.1702083    15.715868   0.11373091 
   57500   -944.56386    45.925385   -898.63848    1644.8807    8255.1645    2.1900347    15.984486   0.11227989 
   57600   -949.36875     48.23345    -901.1353    1727.5472    496.63404    2.1780497    16.891598   0.11303207 
   57700   -943.80693    37.413252   -906.39368     1340.007   -8487.0617    2.1503057    15.455916   0.10473615 
   57800   -946.99931     40.71404   -906.28527    1458.2293    2155.7383    2.1833871    18.514343   0.11261078 
   57900   -949.04344    44.523588   -904.51985    1594.6735    13229.525    2.2132489     15.04158   0.11510184 
   58000   -943.89122    48.813009   -895.07821    1748.3049   -1939.8415    2.1629681     14.47851   0.12505835 
   58100   -946.30802    43.622773   -902.68525    1562.4095    -7075.803    2.1516568    17.424451   0.10385329 
   58200   -951.72506     45.50795   -906.21711    1629.9297   -2527.0143    2.1779455    17.601711   0.10585469 
   58300   -947.67329    41.707577   -905.96572    1493.8142    10343.676    2.2025863    16.112353   0.11344461 
   58400   -946.63915    48.170498   -898.46865    1725.2925    2480.1573    2.1757865    17.629433   0.11298585 
   58500   -947.24159    45.000824   -902.24077    1611.7663   -5556.1946    2.1608038    15.399946    0.0986963 
   58600   -951.34579    44.217023   -907.12877    1583.6934   -3266.2896    2.1774797    13.278179   0.12244021 
   58700    -945.8978    40.199214   -905.69859    1439.7901    5566.4271     2.189999    16.588825   0.12226669 
   58800    -942.8156    45.820039   -896.99556    1641.1076    634.89765    2.1683562      14.8039     0.110034 
   58900   -950.95605    45.365367   -905.59068    1624.8229   -815.68162    2.1822278    17.425697     0.118771 
   59000   -949.52347     42.67905   -906.84442    1528.6088   -928.24235    2.1785805    15.309842   0.10238701 
   59100   -952.60639    48.550008   -904.05638    1738.8852   -3453.4749    2.1796206    16.833934   0.10514456 
   59200   -944.92737    48.801939   -896.12543    1747.9085    803.16201    2.1732421    17.083859   0.11999243 
   59300   -952.01238      46.0325   -905.97988    1648.7172    2396.9193     2.192462     19.66298   0.11995535 
   59400   -947.77683    41.322077   -906.45475    1480.0069    -2550.802    2.1739004    17.146724   0.11267385 
   59500   -947.89615    43.635115   -904.26104    1562.8516   -3620.5878    2.1686409    16.772992   0.11324915 
   59600   -943.31584    48.182127   -895.13372    1725.7091    6810.8027    2.1778573    15.260846   0.10808863 
   59700   -946.45398      43.1846   -903.26938    1546.7158    11759.491    2.2018785    16.339062   0.12359912 
   59800   -948.60165    42.418061   -906.18358    1519.2611      -8855.9     2.158367    18.583348   0.12026538 
   59900   -948.98208    42.040791   -906.94129    1505.7487   -9769.1162    2.1599542    14.914434   0.12639439 
   60000   -951.26577    42.450473   -908.81529     1520.422    8208.5761    2.2094128    17.128584     0.121792 
   60100   -959.82504    41.565918   -918.25912    1488.7404    6307.1099    2.2196219    12.516082    0.1074742 
   60200   -953.61765    41.729862   -911.88779    1494.6123   -10037.554    2.1656002    15.671954   0.10251509 
   60300   -949.65007    41.424573    -908.2255     1483.678   -2540.8182    2.1752389    14.310202   0.12160627 
   60400   -949.17759    44.210778   -904.96681    1583.4697    4705.1799    2.1926196    13.810029    0.1165063 
   60500   -950.43823    44.538762   -905.89947    1595.2169     1028.497     2.187901    14.929065   0.13321712 
   60600   -951.49894     37.70449   -913.79445    1350.4381    99.075225    2.1917695    15.672613   0.12239443 
   60700   -949.62355    42.903377   -906.72017    1536.6434   -3426.3995    2.1740992    15.047527   0.11716909 
   60800   -947.72594    43.064554   -904.66139    1542.4161    1721.4738    2.1857582    15.610754   0.13833236 
   60900   -949.73337    39.189426   -910.54395    1403.6231    4249.8537    2.1970451    15.817863   0.11351512 
   61000   -954.02014    43.321814   -910.69833    1551.6303    -2814.295     2.187036    13.264661   0.12644454 
   61100   -947.64369    42.876981   -904.76671     1535.698   -2910.2665    2.1727671     14.71647   0.13564196 
   61200   -949.54494    42.817085   -906.72785    1533.5527     888.7761    2.1863307    13.959205   0.12726027 
   61300   -954.73869     42.10802   -912.63067    1508.1566    4427.4559    2.2068344    15.205984   0.12120531 
   61400   -948.33455    43.667246   -904.66731    1564.0024    -3839.339    2.1739747    15.323888    0.1194457 
   61500   -947.55851    42.919436   -904.63907    1537.2185   -4288.4444    2.1681662    14.267223   0.12819179 
   61600   -947.30601    40.213382   -907.09263    1440.2975    2713.7215    2.1884653    15.384203   0.12565362 
   61700   -949.85732    39.689771   -910.16754    1421.5437    8451.4285    2.2097787    16.946097   0.13095648 
   61800   -943.72569    43.689459   -900.03623     1564.798    -3155.011    2.1637057    13.802427   0.14017124 
   61900   -947.54371    43.499949   -904.04376    1558.0104   -6625.9011    2.1659996    14.947647   0.12558305 
   62000   -954.03284     46.56451   -907.46833    1667.7719     1266.494    2.1944816    15.126569   0.11826748 
   62100   -949.95473    43.179691   -906.77503    1546.5399    6751.0633    2.2031786    14.411038   0.12761715 
   62200   -945.17123    45.977348   -899.19388    1646.7419   -6403.5137    2.1535721    18.071941    0.1117036 
   62300   -951.17261    43.705135   -907.46747    1565.3595   -9369.3464    2.1661974    17.201632   0.11391501 
   62400   -952.05816    45.552403   -906.50576    1631.5219    5700.1992    2.2009857    16.822635   0.11922042 
   62500   -945.20732    45.267076   -899.94025    1621.3025    8505.9695    2.1934601    14.414128   0.11667306 
   62600   -945.16258    40.935882   -904.22669    1466.1748   -4399.8105    2.1607339    17.517093   0.11975718 
   62700   -951.68767    43.100492   -908.58718    1543.7033   -10589.852    2.1619029    16.550121   0.11520818 
   62800   -946.34755    42.859509   -903.48804    1535.0722    5900.5583    2.1925311    17.672825   0.13869725 
   62900   -945.86094    41.900354   -903.96059    1500.7187    7842.3724    2.1981304    15.245269   0.13404829 
   63000   -952.57039    41.490438   -911.07996     1486.037   -2447.0221    2.1857393    15.282938   0.11897418 
   63100   -950.16283    44.015147   -906.14768     1576.463    -3726.415    2.1718061    15.201139   0.11669918 
   63200   -944.97489    41.606827   -903.36806    1490.2057    2722.6096    2.1813911    17.662836   0.10794855 
   63300   -951.83219    39.714414   -912.11777    1422.4263    3891.3976    2.1997323    15.575748   0.11860035 
   63400   -949.07091    41.835926   -907.23499    1498.4112   -938.37888     2.182959    14.262253   0.11325158 
   63500   -946.06556    41.953456   -904.11211    1502.6207   -583.99503    2.1765991    16.961705   0.12058712 
   63600   -950.17778     40.37937   -909.79841    1446.2426      2301.21    2.1940907    15.502713   0.12214639 
   63700   -950.65451    40.495795   -910.15871    1450.4125    1890.4286    2.1934519    16.825477   0.10767139 
   63800    -948.4506    44.695277   -903.75533    1600.8227    -2358.344    2.1739225    19.504851   0.12529459 
   63900   -953.21606    45.528503   -907.68755    1630.6659   -4842.4407    2.1796356    17.176849   0.10911449 
   64000   -949.27961    38.108719   -911.17089    1364.9161    5304.3731    2.1991955    14.363161   0.12555923 
   64100   -947.23553    45.488195   -901.74734    1629.2222    2274.1025    2.1830876    16.501642   0.11483038 
   64200   -952.26594    46.472741    -905.7932    1664.4851    -3279.768    2.1809925    17.072609    0.1054578 
   64300   -950.54517    41.420269    -909.1249    1483.5238   -2656.8654    2.1848047    17.730033   0.11783068 
   64400    -946.9718    46.280344   -900.69145    1657.5941     4948.379    2.1899721    16.266774    0.1245179 
   64500    -948.9565    45.890162   -903.06634    1643.6192    6524.9852    2.1985069    14.832027   0.13012273 
   64600   -947.87607    39.549146   -908.32692     1416.507   -4634.9833    2.1724926    15.661185   0.12282806 
   64700   -948.41155    44.727949    -903.6836    1601.9929   -7652.7285    2.1613971    19.053648   0.11943886 
   64800   -948.25686    48.747343   -899.50952    1745.9531    4685.6457    2.1843419    16.952616   0.10947314 
   64900   -951.00211    43.720648   -907.28146     1565.915    9937.5839    2.2103561    14.395725   0.11082236 
   65000   -950.38163    44.352885   -906.02875    1588.5595    -3892.817    2.1730368    15.082935   0.12032858 
   65100   -950.01289    49.249158   -900.76373    1763.9263   -13627.698     2.146765     16.17806   0.10676443 
   65200   -949.69658    39.204257   -910.49232    1404.1543    7690.4742    2.2057086    14.685634   0.10871049 
   65300   -947.93172    41.021992   -906.90973     1469.259    9704.8845    2.2076093    16.085843   0.12944271 
   65400   -948.31509    45.663138   -902.65195     1635.488   -5748.3294    2.1689248    24.502178   0.11917299 
   65500   -944.27225    44.095596   -900.17666    1579.3443   -6996.0201    2.1585896    27.676922   0.13395119 
   65600   -949.35954    40.449584   -908.90996    1448.7574    5247.8692    2.2025312    20.799098   0.12855768 
   65700   -949.38388    45.308283   -904.07559    1622.7784    2241.8482    2.1892923    27.660282   0.13637188 
   65800   -943.18997    39.876516   -903.31345    1428.2322   -997.24152    2.1718032    14.092882   0.14535742 
   65900   -949.71736    38.599912   -911.11745    1382.5089   -833.30674     2.185354    16.765816   0.12249566 
   66000   -951.13281      46.5649   -904.56791    1667.7858   -65.628297    2.1859537    14.193144   0.11748338 
   66100   -946.52581    42.587102   -903.93871    1525.3155    5597.1612    2.1889442    15.938215   0.11028942 
   66200   -953.25542    41.779962   -911.47546    1496.4067    843.19417    2.1933769    17.187976   0.10652299 
   66300   -948.00579    43.790041   -904.21575    1568.4005   -1703.5521     2.174917    17.613579   0.11484876 
   66400   -947.16516    42.949195   -904.21597    1538.2844    519.20892    2.1811539    14.229484   0.12337935 
   66500   -955.26932    44.365395   -910.90392    1589.0075   -528.24211    2.1969112    15.232601   0.10861854 
   66600    -950.8264    47.579368   -903.24703    1704.1204   -3145.0384    2.1787807    18.116501   0.12232409 
   66700   -945.81643    41.502185   -904.31425    1486.4577    733.66828    2.1792235    16.800967   0.11602378 
   66800    -953.9568    44.041678   -909.91513    1577.4132   -1336.4304    2.1908436    15.233144   0.11576308 
   66900   -947.80429    45.303185    -902.5011    1622.5958    1307.0602    2.1830546    14.409193    0.1302959 
   67000   -948.55085    45.038232   -903.51261    1613.1061   -9.8162808    2.1814597    14.885581   0.10874355 
   67100   -950.95736    41.576447   -909.38091    1489.1175   -1467.9656    2.1830742    14.657085   0.12543711 
   67200   -949.90717    46.960467    -902.9467    1681.9536     -2070.81    2.1776175    16.789337   0.10753531 
   67300   -948.36091    45.047428   -903.31348    1613.4355    640.73713    2.1804396    16.413052   0.10941792 
   67400   -952.28784    42.780417   -909.50742    1532.2394   -1162.0595    2.1870607    17.362318   0.11826692 
   67500   -947.07394    43.613728   -903.46021    1562.0856    271.12198    2.1747139     13.79671   0.12029217 
   67600   -947.89249    44.890649   -903.00184    1607.8203    1578.8622    2.1799882     16.77884   0.11971178 
   67700   -952.49564    42.592152   -909.90348    1525.4964    3668.0371    2.1978846    17.912532   0.12166211 
   67800   -947.26199    43.297899   -903.96409    1550.7737   -880.79116    2.1760017    15.703572   0.12265114 
   67900   -948.65881    44.157588   -904.50122    1581.5647   -5510.3257    2.1707785    14.971315   0.11521743 
   68000   -954.95827    44.002349   -910.95592    1576.0045   -496.19449    2.1953643    15.529145   0.12130829 
   68100   -948.92349    45.671843   -903.25165    1635.7998    3549.1585    2.1911443    15.457695   0.12444011 
   68200   -949.19143    44.203663   -904.98776    1583.2149   -170.30009    2.1828672    15.847304   0.11867528 
   68300   -951.72223    40.162607   -911.55962    1438.4789    -3040.551    2.1794929    16.498991   0.11376693 
   68400   -949.38036    45.556785   -903.82357    1631.6788   -2651.4732    2.1741292    16.478297   0.11742869 
   68500    -949.4729    45.058369   -904.41453    1613.8274     6627.563    2.1991319    17.556987   0.12963149 
   68600   -954.39959    43.730338   -910.66925    1566.2621    1108.1098    2.1978897    16.106941   0.11391001 
   68700   -947.68171    45.005269   -902.67644    1611.9255   -7752.4148    2.1576291    15.975664   0.12405705 
   68800   -949.19785    44.373029   -904.82482     1589.281   -4344.7739     2.171907    15.183914   0.11302543 
   68900    -951.8396    42.860169   -908.97943    1535.0958     8031.108    2.2082446    15.001506   0.11444903 
   69000   -945.56552    44.387123   -901.17839    1589.7858    5944.6123    2.1880549    13.197976   0.12456197 
   69100   -947.51584     42.62498   -904.89086    1526.6722   -7452.6532    2.1629386    18.737598   0.11494438 
   69200   -950.97428    41.068508   -909.90577     1470.925   -6450.8741    2.1742293    16.787381   0.12078595 
   69300   -948.03619    45.746494    -902.2897    1638.4735    10389.498    2.2010662    15.501294   0.11161403 
   69400   -945.60275      41.6708   -903.93195    1492.4969    10889.726    2.2037538    15.168333   0.12095678 
   69500   -950.33331     39.99944   -910.33387    1432.6349   -4653.2695    2.1745709     13.18652   0.12363196 
   69600   -950.23498    46.465443   -903.76954    1664.2237   -11937.494    2.1570042    14.688742   0.12321241 
   69700   -948.08412    43.985072   -904.09905    1575.3858    4071.5187    2.1936215    15.486095   0.12269339 
   69800   -951.84984    42.059217   -909.79062    1506.4086    8810.6325    2.2112933     16.09229   0.13231286 
   69900   -944.95035    41.951725   -902.99863    1502.5586   -1453.6318    2.1753509     14.35821   0.13181735 
   70000   -947.90204    43.134619   -904.76742    1544.9256    -5443.772    2.1698929    16.057179   0.12629227 
   70100   -954.59871    44.399057   -910.19966    1590.2132   -1749.8391    2.1922178    15.821019   0.12041221 
   70200   -947.35146    45.100124   -902.25133    1615.3229    4082.1451    2.1869935    16.333227   0.11755989 
   70300   -948.82351    44.030296   -904.79322    1577.0055     510.8162    2.1830898    16.975094   0.11893385 
   70400   -951.16049     40.87983   -910.28066    1464.1673   -3355.7053    2.1807449    15.109741   0.12316444 
   70500    -949.0218    46.354583   -902.66722    1660.2531   -1197.1698    2.1769558    15.538347   0.11448532 
   70600   -946.39753    41.662913   -904.73462    1492.2145    5903.6317    2.1948837    14.907466   0.14062792 
   70700   -952.06362     42.19994   -909.86368    1511.4488    1561.9429    2.1964165    17.707834   0.13043596 
   70800   -944.94661    42.064554   -902.88205    1506.5998   -2435.2426    2.1682013    14.404858   0.12855182 
   70900   -946.69048    41.863197   -904.82728    1499.3879   -1773.2347    2.1752613    15.591972   0.13683172 
[...]
  186800    -946.6029    42.763024   -903.83988    1531.6164   -4674.3534    2.1661393    80.828466   0.13475576 
  186900   -944.50355    43.268127   -901.23542    1549.7074   -2451.0608    2.1672946    78.234529   0.13561467 
  187000   -946.71757    40.534816   -906.18276    1451.8101    4851.9485    2.1938972     76.30218   0.14463419 
  187100   -949.34794    43.110974   -906.23697    1544.0788    4085.3483    2.1916018    85.062999   0.14973699 
  187200   -948.38064    51.133701   -897.24693    1831.4237   -10037.649    2.1542237    84.163297   0.14524981 
  187300   -949.54605    44.232915   -905.31313    1584.2626    995.51285    2.1874612    92.731636   0.15077432 
  187400   -946.79785    41.533189   -905.26466    1487.5682    5374.5328    2.1951238    92.278514   0.15034088 
  187500   -944.81207    45.101189   -899.71088     1615.361    2569.4366    2.1790426    90.694156   0.14439675 
  187600   -950.44775    49.383004   -901.06474    1768.7201   -13116.422    2.1497782    101.48272   0.12866501 
  187700   -949.16408    41.768547   -907.39553    1495.9979   -1326.8599    2.1822445    91.219386   0.13065867 
  187800   -952.00636    47.676015   -904.33035     1707.582    12367.032    2.2166583      89.6788   0.13971365 
  187900    -950.4347    45.672345   -904.76236    1635.8178    955.24755    2.1874797     88.93574   0.11574119 
  188000   -952.67711    39.313855   -913.36326    1408.0797   -9030.1377    2.1723778    95.596901   0.11730546 
  188100    -953.5141    44.990522   -908.52358    1611.3973   -6070.7355    2.1772138    93.283389   0.11491881 
  188200   -953.87158    49.404961   -904.46662    1769.5065    4251.3661    2.2037498    91.075399    0.1215515 
  188300   -949.56256    41.622345   -907.94021    1490.7615    3704.7198    2.1989953    92.309443   0.15167612 
  188400   -951.52256    38.021642   -913.50092    1361.7973   -4003.7041    2.1832225    93.251394   0.12211256 
  188500   -947.78789    41.967708   -905.82018    1503.1311   -4466.3908    2.1706463    95.137512   0.11584189 
  188600   -948.95833     45.09029   -903.86804    1614.9707    1275.3284    2.1872896    89.734084   0.14535859 
  188700   -946.00172    43.052919    -902.9488    1541.9994    2065.7855    2.1817175    92.019131   0.15551174 
  188800   -953.42011    41.067007   -912.35311    1470.8713   -1185.0464    2.1881921     85.39018   0.13841554 
  188900   -950.58529    42.161103   -908.42419    1510.0578   -8699.4379    2.1644713    92.052347   0.12514511 
  189000   -946.12455    41.760574   -904.36398    1495.7123    1938.2321    2.1836978    94.923935   0.13710612 
  189100    -944.5493    43.060757   -901.48855    1542.2802    12939.942    2.2080147    87.776392   0.14341249 
  189200   -950.68234    41.191072   -909.49127    1475.3148   -7985.5631    2.1665982    94.409917   0.13058902 
  189300   -949.22816    41.319092   -907.90907       1479.9   -21542.811    2.1294152    103.62491   0.14103758 
  189400     -952.531    49.446369   -903.08463    1770.9896    2514.3476    2.1884596     105.3013   0.14104359 
  189500   -949.01596    44.091751   -904.92421    1579.2066    14793.741    2.2157388    107.62789   0.15843288 
  189600   -952.33778    40.907118   -911.43066    1465.1446   -2177.3855    2.1826485    103.23721   0.14900085 
  189700   -945.35558    42.090665   -903.26491     1507.535   -7308.0275    2.1566338    105.75486   0.13872621 
  189800   -945.54518    42.531961   -903.01322    1523.3406    3011.9425    2.1809517    105.17767   0.14104112 
  189900   -949.02661    43.491539   -905.53507    1557.7092    6589.2304    2.1999498    108.73529    0.1357666 
  190000   -950.45781    39.819926   -910.63788    1426.2054   -3204.4196     2.179979    112.71833   0.12915926 
  190100   -945.76696    42.933019   -902.83394     1537.705   -5504.0446    2.1594689    106.60545   0.14695689 
  190200   -949.12613    46.357691   -902.76843    1660.3644    6373.4497    2.1911119    106.77403   0.13537055 
  190300   -951.53497    45.981417   -905.55355    1646.8876    4974.1594    2.1943286     102.9775   0.12688702 
  190400    -950.3616    41.343337   -909.01827    1480.7684   -5854.3236    2.1700962    106.45281   0.13197956 
  190500     -948.133    44.529748   -903.60325    1594.8941   -5254.4404     2.165186    103.60446   0.13313716 
  190600   -945.99221    44.919337   -901.07287    1608.8478    6315.1577    2.1887171    113.89404   0.14198815 
  190700   -947.03867    42.771551   -904.26712    1531.9219    2902.7228    2.1823628    115.31628   0.13363821 
  190800   -949.01238    40.671226   -908.34116    1456.6958   -7994.7462    2.1618414    107.37288   0.14768158 
  190900   -945.63419    42.892455   -902.74174    1536.2522   -835.57976    2.1710473    103.33722   0.15403862 
  191000   -948.99842     48.74357   -900.25485    1745.8179    7133.2685    2.1967416    106.88696   0.14577486 
  191100   -948.06918     42.43923   -905.62995    1520.0193    1432.4193    2.1823064    97.132443   0.14545438 
  191200   -946.03096    39.220236   -906.81072    1404.7266   -8941.9601    2.1543152    104.62491   0.14773279 
  191300     -937.313    39.469082   -897.84391    1413.6394   -405.38809    2.1596748    104.62474   0.15505789 
  191400   -945.53443    43.829586   -901.70484    1569.8168    20427.879    2.2277881    104.86949   0.17301048 
  191500   -950.29907    44.601179   -905.69789    1597.4525   -149.97304    2.1867004    111.16965   0.15240856 
  191600   -947.15533     41.37079   -905.78454    1481.7517   -16524.917    2.1386433    108.12768   0.14620832 
  191700   -946.29248    46.352781    -899.9397    1660.1885   -2398.5678    2.1655292    107.34892   0.14950527 
  191800   -950.12866    47.956224   -902.17243     1717.618    5355.6769    2.1938099    104.01358   0.12607016 
  191900    -951.7073    44.538984   -907.16832    1595.2249    203.62999    2.1880052    106.41455   0.15453894 
  192000   -947.15715    42.001383   -905.15577    1504.3372   -3310.7616    2.1735882    103.70348   0.13920227 
  192100   -948.08585    47.110678   -900.97517    1687.3336    -1359.681    2.1746708    111.94967   0.14512894 
  192200   -951.14308    42.184918   -908.95816    1510.9108    1336.7732     2.190934    100.64131   0.14123756 
  192300   -949.30135    41.257689   -908.04366    1477.7008    -1997.719    2.1761901    104.25584   0.14297004 
  192400   -945.63167    41.476052   -904.15562    1485.5218   -842.23414    2.1727688    109.71988    0.1415504 
  192500   -945.48094    43.357851   -902.12309     1552.921    2090.5116    2.1818828    104.21762   0.14295117 
  192600   -953.58814    42.487373   -911.10077    1521.7436    3870.6271    2.2052851    103.92981   0.15071533 
  192700   -949.06973    43.481917   -905.58781    1557.3646   -6413.8735    2.1678834    107.05771   0.13362911 
  192800   -945.49713    42.262718   -903.23441    1513.6973   -5663.1825    2.1560499    117.62453    0.1461612 
  192900   -953.35317    42.928813   -910.42435    1537.5544    3859.1425    2.2010305    112.25611   0.13733665 
  193000   -951.95112    45.215452   -906.73566    1619.4535     8657.268    2.2067329     108.8951   0.13105888 
  193100   -943.27412    41.140826   -902.13329    1473.5152   -1249.2383    2.1663966     104.9066   0.14059225 
  193200   -947.93451    39.438519   -908.49599    1412.5447   -9893.1167    2.1558039    111.65102   0.13197135 
  193300   -948.95104    42.568557   -906.38248    1524.6513    1760.1462    2.1903772    102.40221   0.14733855 
  193400   -945.78466    46.981633   -898.80303    1682.7117    11197.217    2.2017676    105.71304   0.15379918 
  193500   -948.41144    42.581306   -905.83013     1525.108   -2181.4132    2.1804005    105.42577   0.14282751 
  193600   -948.80335    41.789818   -907.01353    1496.7597   -10729.171    2.1579995    110.63041    0.1509623 
  193700   -940.49768    42.083525   -898.41415    1507.2793    2635.1234    2.1699262    105.27938   0.16710938 
  193800   -946.54041    40.931974   -905.60844    1466.0349    13280.479    2.2126907    107.86935   0.15632076 
  193900   -949.54452     42.89415   -906.65037    1536.3129    339.73031    2.1823666    101.70971   0.12928651 
  194000   -945.01518    42.766433   -902.24875    1531.7385   -5003.4555    2.1608894    109.89489   0.15353304 
  194100   -947.62252    42.717445   -904.90508     1529.984   -2708.3489    2.1749823    105.88432   0.13927543 
  194200   -953.33633    44.098985   -909.23734    1579.4657    475.91737    2.1938899    104.82935   0.13239337 
  194300    -948.0341    43.721685   -904.31242    1565.9522    2069.1006    2.1853477    106.37374   0.14618281 
  194400   -945.92174    42.229526   -903.69222    1512.5085   -2155.2798    2.1719247    107.83666   0.14203214 
  194500   -957.55016    44.414245   -913.13591    1590.7572   -4585.5456    2.1882141    109.43305   0.14802228 
  194600   -949.37568     43.15491   -906.22077    1545.6524   -813.70524    2.1812868    113.83248   0.13825399 
  194700   -946.51314    42.983385   -903.52976     1539.509    3306.9947    2.1843657    105.66356    0.1479684 
  194800   -950.22171    41.400058   -908.82165    1482.7999   -538.04073    2.1833175    100.48845   0.13174125 
  194900   -952.78513    42.413014   -910.37212    1519.0803   -5492.8649    2.1754011    111.89649   0.12617988 
  195000    -951.0867     47.97801   -903.10869    1718.3983   -4799.4633    2.1726695    109.75755   0.13636643 
  195100   -950.62364    45.337146    -905.2865    1623.8121    2746.9493    2.1881357    109.59893   0.12493979 
  195200   -953.40247    42.847881   -910.55458    1534.6557   -239.10163    2.1885198    108.97028   0.13882946 
  195300   -944.43765    43.142101   -901.29555    1545.1936   -7551.9304    2.1558043    112.72207   0.15311414 
  195400   -947.74628    43.963671   -903.78261    1574.6193    1396.2824    2.1853613    114.33055   0.15040051 
  195500   -951.04289     44.08027   -906.96262    1578.7954    9029.3604    2.2088821    108.06227    0.1513374 
  195600   -947.58638    43.025368   -904.56101    1541.0127    381.78145    2.1823745    112.26466   0.14816843 
  195700   -943.90551    44.192189   -899.71332    1582.8039   -10942.347    2.1435181     112.8178   0.15070798 
  195800   -948.83918    41.681331   -907.15785    1492.8741   -2445.7751    2.1786626    100.86356    0.1464227 
  195900   -947.67227    42.456932   -905.21533    1520.6533    12614.134    2.2125985    101.94049   0.15520947 
  196000   -941.29272    43.173347   -898.11937    1546.3127    4942.4785    2.1783994    102.84054   0.15343574 
  196100   -948.01021    43.342524   -904.66769     1552.372   -12495.751    2.1530653    105.56445   0.15470517 
  196200   -950.01358    43.370721   -906.64286    1553.3819   -3761.5675    2.1741676    113.27143   0.14842958 
  196300   -944.68209    42.657044   -902.02504    1527.8206    8624.7175    2.1973235    110.51934   0.15544368 
  196400   -944.43542    46.440353   -897.99507     1663.325     3692.163     2.178385    95.975693   0.15809956 
  196500   -948.23497    40.939368   -907.29561    1466.2997   -2664.3048    2.1779494    108.29655   0.12393264 
  196600   -949.97604    43.586788   -906.38926    1561.1207   -4258.0308    2.1716262    104.64376    0.1389378 
  196700   -947.46713    44.498513   -902.96862    1593.7754    426.90556    2.1787998    102.38491   0.13525371 
  196800   -941.63525    42.582392   -899.05286    1525.1469    6183.1111    2.1777307    105.88541   0.14635661 
  196900   -951.40595    43.167507   -908.23844    1546.1036   -390.54967    2.1905948    105.39796   0.14897282 
  197000   -946.47971    40.576357   -905.90335     1453.298   -3154.5395    2.1692126     102.8718   0.14217755 
  197100    -949.6149    45.132292   -904.48261     1616.475   -2530.3975     2.173901      111.692   0.15546859 
  197200   -950.32544    42.790347   -907.53509     1532.595    7784.8856     2.202222    106.59618   0.14956645 
  197300   -951.00196    39.160885   -911.84107    1402.6009    4743.2143    2.2014073    110.88663   0.14275744 
  197400   -949.36778    43.866267   -905.50151    1571.1306   -6670.0863    2.1677419    106.16034   0.14219136 
  197500    -949.2337    45.118029   -904.11567    1615.9642   -7874.9591    2.1627134    110.77673   0.12422006 
  197600    -949.0027    39.229268   -909.77343    1405.0501    7819.6221    2.2082882    107.05528   0.14697012 
  197700   -949.06377    40.717442   -908.34633    1458.3511    11826.869    2.2110675    102.99594   0.13653561 
  197800   -948.80218    45.943259   -902.85892    1645.5209   -9528.9079     2.153769    104.29612   0.13876889 
  197900   -950.16383     43.23311   -906.93072    1548.4532   -16949.567    2.1434565    112.87527   0.13438581 
  198000   -949.78923    42.120146   -907.66908    1508.5909    8457.1609    2.2094281    101.30547    0.1385955 
  198100   -946.50031    48.138811    -898.3615    1724.1576    11098.266    2.2011547    116.27682   0.15619111 
  198200   -945.79419    41.757814   -904.03637    1495.6135   -2128.2663    2.1686872    107.87488    0.1379679 
  198300   -948.83244    41.221682   -907.61076    1476.4112   -6730.2698     2.166604    111.55261   0.13988953 
  198400   -951.07159    47.058843   -904.01274    1685.4771    2757.3349    2.1882631    105.31362   0.14360252 
  198500   -946.99551      47.9579   -899.03761    1717.6781    3751.3343    2.1832384    109.01561   0.14090067 
  198600   -948.80891    42.604034   -906.20487     1525.922   -1415.4107    2.1771143    109.15524   0.13952991 
  198700    -950.4445    44.471255   -905.97325    1592.7991   -5158.1453    2.1693827    105.11975   0.12868825 
  198800   -945.00299    47.886819   -897.11617    1715.1322    3276.9433    2.1720126     110.9421   0.14848376 
  198900   -945.67833    40.707499   -904.97083     1457.995    8197.7601    2.1956512    105.92968   0.14633707 
  199000    -947.3529    41.306506   -906.04639    1479.4493   -2332.4422    2.1759489    111.07175   0.15555988 
  199100   -946.17111    43.057835   -903.11328    1542.1755   -5912.3963    2.1593792    114.75907   0.15036796 
  199200   -942.89336    48.045012   -894.84834    1720.7981    3025.2335    2.1704856    111.22658   0.13080676 
  199300   -949.82235    45.581326   -904.24103    1632.5578    10163.452    2.2106361    106.27323   0.15380391 
  199400   -949.34008    44.087734   -905.25234    1579.0628     -8302.57    2.1602762    104.10395   0.12939746 
  199500   -949.82799     44.03569    -905.7923    1577.1987   -14207.024     2.142337    107.30806    0.1244852 
  199600   -949.81734    44.180978   -905.63636    1582.4024     10560.35    2.2083061    106.62174   0.14215968 
  199700    -945.2592    49.919771   -895.33943    1787.9451      9175.04    2.1940455    104.38453   0.13463183 
  199800   -949.50573    47.956526    -901.5492    1717.6289   -6812.1603    2.1597523     104.4554   0.14460074 
  199900   -948.59418    43.439035   -905.15514    1555.8287   -3861.6843    2.1654577    105.33948   0.14311682 
  200000   -949.85878    43.573428   -906.28535    1560.6422    2330.6955    2.1899516    106.04002   0.14272051 
  200100   -944.52403    47.424842   -897.09918    1698.5858    5032.1015    2.1822917     103.0332   0.14725037 
  200200   -948.55287    47.629759   -900.92311    1705.9252   -2416.2475    2.1740782     114.9593   0.11946022 
  200300   -947.66879     41.75126   -905.91753    1495.3787   -5589.9875    2.1691075     113.3742   0.14833094 
  200400   -946.29357    41.512077   -904.78149     1486.812    1350.0592     2.182879    100.74962   0.15074818 
  200500   -943.29841    47.862672   -895.43574    1714.2673    4738.1815     2.181957    105.93036   0.15079173 
  200600   -945.52414    42.349934   -903.17421     1516.821     3923.118    2.1853511    101.77881   0.15284799 
  200700   -946.89992    41.416023    -905.4839    1483.3718   -6069.3307    2.1634633    102.52809   0.14938211 
  200800   -946.63295    41.898391   -904.73456    1500.6484   -816.38763    2.1744575    100.67246   0.13688965 
  200900   -952.75328    39.579863   -913.17342    1417.6072    11669.926    2.2181339    106.61862   0.16283916 
  201000   -947.80367    38.358627   -909.44505    1373.8669    1420.7067     2.193148    108.77005   0.17161093 
  201100   -946.37375    41.217517   -905.15623     1476.262    -8057.407     2.160994    111.60438   0.15006187 
  201200   -945.55246    41.438448   -904.11401    1484.1749    -649.4449    2.1735014    105.73476   0.14962045 
  201300   -952.60993    40.907069   -911.70286    1465.1429    10474.522    2.2219689    105.53072    0.1436735 
  201400   -948.71395    39.523094   -909.19085    1415.5739    3473.5002    2.1944383    103.16544   0.14926709 
  201500   -949.27423    44.173924    -905.1003    1582.1497   -15132.922    2.1480119    112.75789   0.13828913 
  201600   -946.48327    42.135422   -904.34784     1509.138    -6383.551    2.1650433    106.44082   0.16107283 
  201700   -951.30346    40.650715   -910.65274    1455.9612    19612.146    2.2377037    104.13301   0.16213102 
  201800   -950.12388    40.518765   -909.60511    1451.2352    10966.122    2.2113591    107.83919   0.15577578 
  201900    -948.2662     44.17852   -904.08768    1582.3144   -8956.4972    2.1613669    105.10188   0.14609601 
  202000   -948.54806    43.559712   -904.98835    1560.1509   -6198.4951    2.1701598    105.19708   0.14399591 
  202100   -951.93116    40.713941   -911.21722    1458.2257    3937.0199    2.2019227    101.33022   0.14849369 
  202200   -952.79854    44.944798   -907.85374    1609.7597    4346.2661    2.2027338    108.10595   0.14685993 
  202300   -944.00888    40.296199   -903.71268    1443.2637   -3034.3551    2.1709524     107.4552   0.15445895 
  202400   -948.83903    42.547191   -906.29184    1523.8861   -7144.8422    2.1625788    108.36811   0.13797989 
  202500   -953.24465    44.036135   -909.20851    1577.2147    722.59466    2.1923217    109.79798   0.13929652 
  202600   -943.49314    43.868251   -899.62489    1571.2017    9654.3132    2.1922888    126.50208   0.15734778 
  202700   -944.58139     42.21937   -902.36202    1512.1447    3687.3867    2.1837241    116.67864   0.13967048 
  202800   -946.14899    39.802781   -906.34621    1425.5913   -6656.7625    2.1637577    118.86122   0.13849259 
  202900   -945.34253    42.936201   -902.40633     1537.819   -4683.7517    2.1648471    114.58315   0.13277245 
  203000   -946.40891    48.547981   -897.86093    1738.8126    4922.0691    2.1881948    123.59159   0.14040383 
  203100   -947.94957    43.532563   -904.41701    1559.1785     2706.115    2.1897805    103.19619   0.15784056 
  203200   -947.99731    41.157724   -906.83959    1474.1204   -7402.0906    2.1646778    108.35506   0.13779673 
Loop time of 143.701 on 1 procs for 200000 steps with 217 atoms

Performance: 360.748 ns/day, 0.067 hours/ns, 1391.776 timesteps/s
100.0% CPU use with 1 MPI tasks x no OpenMP threads

MPI task timing breakdown:
Section |  min time  |  avg time  |  max time  |%varavg| %total
---------------------------------------------------------------
Pair    | 139.44     | 139.44     | 139.44     |   0.0 | 97.03
Neigh   | 1.1803     | 1.1803     | 1.1803     |   0.0 |  0.82
Comm    | 0.87934    | 0.87934    | 0.87934    |   0.0 |  0.61
Output  | 0.067525   | 0.067525   | 0.067525   |   0.0 |  0.05
Modify  | 1.8345     | 1.8345     | 1.8345     |   0.0 |  1.28
Other   |            | 0.3042     |            |       |  0.21

Nlocal:    217 ave 217 max 217 min
Histogram: 1 0 0 0 0 0 0 0 0 0
Nghost:    953 ave 953 max 953 min
Histogram: 1 0 0 0 0 0 0 0 0 0
Neighs:    4147 ave 4147 max 4147 min
Histogram: 1 0 0 0 0 0 0 0 0 0
FullNghs:  8294 ave 8294 max 8294 min
Histogram: 1 0 0 0 0 0 0 0 0 0

Total # of neighbors = 8294
Ave neighs/atom = 38.2212
Neighbor list builds = 1987
Dangerous builds = 20
Total wall time: 0:02:26
