LAMMPS (3 Mar 2020)

    # ---------- Initialize simulation ---------------------
    units metal
    atom_style atomic
    dimension  3
    boundary   p p p
    read_data /home/modeler/RemLabs/Lab4/Problem2A_size_7/temp_2200/lammps.data
  orthogonal box = (0 0 0) to (28.63 28.63 28.63)
  1 by 1 by 1 MPI processor grid
  reading atoms ...
  1372 atoms
  read_data CPU = 0.00181151 secs

    pair_style eam
    pair_coeff * * /usr/share/lammps-stable/potentials/Ag_u3.eam
Reading potential file /usr/share/lammps-stable/potentials/Ag_u3.eam with DATE: 2007-06-11

    velocity  all create 2200 87287 dist gaussian

    # ---------- Describe computed properties------------------
    compute msdall all msd
    thermo_style custom step pe ke etotal temp press density c_msdall[4]
    thermo 100

    # ---------- Specify ensemble  ---------------------
    #fix  1 all nve
    fix  1 all nvt temp 2200 2200 0.05

    # --------- Compute RDF ---------------
    compute rdfall all rdf 100 1 1
    fix 2 all ave/time 1 2500 2500 c_rdfall[*] file /home/modeler/RemLabs/Lab4/Problem2A_size_7/temp_2200/lammps.rdf mode vector

    # --------- Run -------------
    timestep 0.001
    run 10000
Neighbor list info ...
  update every 1 steps, delay 10 steps, check yes
  max neighbors/atom: 2000, page size: 100000
  master list distance cutoff = 7.55
  ghost atom cutoff = 7.55
  binsize = 3.775, bins = 8 8 8
  2 neighbor lists, perpetual/occasional/extra = 1 1 0
  (1) pair eam, perpetual
      attributes: half, newton on
      pair build: half/bin/atomonly/newton
      stencil: half/bin/3d/newton
      bin: standard
  (2) compute rdf, occasional, copy from (1)
      attributes: half, newton on
      pair build: copy
      stencil: none
      bin: none
Per MPI rank memory allocation (min/avg/max) = 3.83 | 3.83 | 3.83 Mbytes
Step PotEng KinEng TotEng Temp Press Density c_msdall[4] 
       0      -3910.2    389.87445   -3520.3256         2200    17745.098    10.472245            0 
     100   -3670.7445    215.55812   -3455.1864    1216.3605     73374.44    10.472245   0.13162537 
     200   -3618.1253    305.04493   -3313.0804    1721.3204    90870.421    10.472245   0.17567784 
     300   -3541.7116    381.73524   -3159.9764    2154.0717    113467.26    10.472245   0.22683025 
     400   -3481.2877    408.24892   -3073.0388    2303.6843    129984.94    10.472245   0.27371517 
     500   -3490.2747    387.32112   -3102.9536     2185.592    126112.42    10.472245    0.2913304 
     600   -3518.3429    379.89948   -3138.4435    2143.7128    119303.11    10.472245   0.28040701 
     700   -3516.6609    391.27234   -3125.3885    2207.8881    119957.06    10.472245   0.27472352 
     800   -3503.2254    391.98519   -3111.2402    2211.9106    123810.68    10.472245   0.27769076 
     900   -3500.9176    376.98653    -3123.931    2127.2755    123363.61    10.472245   0.28261713 
    1000   -3492.8235    386.18582   -3106.6377    2179.1856    126253.73    10.472245   0.26963843 
    1100    -3510.837    405.33242   -3105.5046    2287.2269    122498.45    10.472245    0.2367007 
    1200   -3532.3213    386.10811   -3146.2132    2178.7472    116081.77    10.472245   0.20953633 
    1300   -3539.5212    403.75226   -3135.7689    2278.3103    115470.39    10.472245   0.19354934 
    1400   -3514.7498    375.52932   -3139.2205    2119.0527    119714.25    10.472245   0.21555246 
    1500   -3506.1911    392.43191   -3113.7592    2214.4314    123224.17    10.472245   0.23733731 
    1600   -3503.9496     383.8777   -3120.0719    2166.1613    122898.86    10.472245   0.26277414 
    1700   -3513.3973     395.2336   -3118.1637    2230.2409    121400.42    10.472245   0.27717368 
    1800   -3501.6472    389.00279   -3112.6444    2195.0814    123737.67    10.472245   0.28856232 
    1900   -3508.5069    386.22639   -3122.2805    2179.4146     122556.8    10.472245   0.28893101 
    2000    -3502.088    385.94722   -3116.1407    2177.8393    123384.12    10.472245   0.29380651 
    2100   -3495.8416    396.96971   -3098.8719    2240.0374    125276.43    10.472245   0.29407401 
    2200   -3502.5828     379.6131   -3122.9697    2142.0969    122783.59    10.472245   0.28447777 
    2300   -3503.8135    378.98902   -3124.8245    2138.5753    123094.09    10.472245   0.26526445 
    2400    -3497.762    393.63855   -3104.1234    2221.2402    124921.72    10.472245   0.24412856 
    2500   -3520.1453     380.3944   -3139.7509    2146.5056    119303.44    10.472245   0.21761792 
    2600   -3523.5005    396.64014   -3126.8604    2238.1777    118708.67    10.472245   0.20778156 
    2700   -3519.0316    385.47231   -3133.5593    2175.1594    119401.78    10.472245   0.21851279 
    2800   -3516.2646    386.58147   -3129.6831    2181.4182    119914.64    10.472245   0.23588631 
    2900   -3507.2481    398.73729   -3108.5108    2250.0116    122816.64    10.472245   0.26131613 
    3000   -3515.6003    388.25721   -3127.3431    2190.8742    120221.01    10.472245   0.27891927 
    3100   -3521.6527    397.80289   -3123.8498    2244.7389    118360.37    10.472245   0.28123574 
    3200   -3508.9201    395.30165   -3113.6184    2230.6248    122017.38    10.472245   0.28831099 
    3300   -3510.4548    380.31592   -3130.1389    2146.0627    121307.62    10.472245    0.2895376 
    3400   -3508.4737    388.92313   -3119.5506    2194.6318    121900.32    10.472245   0.27553382 
    3500   -3503.9402    394.26344   -3109.6767    2224.7664    123907.67    10.472245     0.254101 
    3600   -3518.5357    388.49354   -3130.0421    2192.2077    119252.91    10.472245   0.22604489 
    3700   -3528.3267    398.63336   -3129.6933    2249.4252    118166.24    10.472245   0.20613803 
    3800   -3513.2317    370.79944   -3142.4323    2092.3627    120137.84    10.472245   0.20759976 
    3900   -3521.8902    403.13903   -3118.7512    2274.8499    119254.51    10.472245    0.2134672 
    4000   -3511.7805    373.73901   -3138.0415    2108.9503     120974.1    10.472245   0.23153906 
    4100   -3531.7262    407.62092   -3124.1053    2300.1405    117078.57    10.472245   0.23289708 
    4200   -3513.3741    374.75778   -3138.6163     2114.699    120030.09    10.472245    0.2638491 
    4300     -3495.35    388.16773   -3107.1823    2190.3692     124864.1    10.472245   0.29166018 
    4400   -3496.9401     402.3706   -3094.5695    2270.5138    125694.49    10.472245    0.2974825 
    4500   -3506.2748    383.98685    -3122.288    2166.7772    122789.55    10.472245   0.28467502 
    4600   -3514.2277    401.51304   -3112.7147    2265.6747    121449.76    10.472245   0.25069569 
    4700   -3511.2774    374.76581   -3136.5116    2114.7443    120897.03    10.472245   0.23497881 
    4800   -3517.3471    395.26407    -3122.083    2230.4128    120674.37    10.472245   0.21738859 
    4900   -3526.8862    382.64693   -3144.2393    2159.2162    117304.08    10.472245   0.20996514 
    5000   -3515.8557    403.51236   -3112.3433    2276.9566     121450.9    10.472245   0.20248619 
    5100    -3516.613     382.7669   -3133.8461    2159.8932    119287.21    10.472245   0.20463164 
    5200   -3514.3105    380.08074   -3134.2298    2144.7356    120490.95    10.472245    0.2143868 
    5300   -3515.5505    394.37928   -3121.1712      2225.42    120395.78    10.472245   0.23220462 
    5400   -3506.2268    388.96335   -3117.2635    2194.8588    122714.87    10.472245   0.25424063 
    5500   -3505.5816    388.85384   -3116.7278    2194.2409    123031.11    10.472245   0.26969551 
    5600   -3500.3675    402.09995   -3098.2675    2268.9866    124630.68    10.472245   0.27205991 
    5700   -3506.5862    385.85307   -3120.7331     2177.308    121847.67    10.472245   0.26806923 
    5800   -3514.2816    390.08688   -3124.1947    2201.1987    120188.03    10.472245   0.25668125 
    5900   -3498.5111    393.97494   -3104.5361    2223.1384    124893.27    10.472245   0.25387356 
    6000   -3493.5185    388.24791   -3105.2706    2190.8217    125525.38    10.472245   0.24960669 
    6100   -3514.6723    392.21083   -3122.4615    2213.1838     120860.1    10.472245   0.23626605 
    6200   -3516.0665    392.38705   -3123.6794    2214.1782    120499.54    10.472245   0.22822127 
    6300   -3503.5089    396.36976   -3107.1392     2236.652    123814.25    10.472245    0.2343221 
    6400   -3507.0832    389.53328   -3117.5499    2198.0748    121688.58    10.472245   0.24074978 
    6500   -3514.2681    387.51594   -3126.7522    2186.6913    120795.11    10.472245   0.23064749 
    6600   -3520.1954     386.7553   -3133.4401    2182.3991    119573.09    10.472245   0.22397899 
    6700   -3512.6273    401.62554   -3111.0017    2266.3095    121998.13    10.472245   0.22971859 
    6800   -3499.7979    384.18094   -3115.6169    2167.8724    124090.72    10.472245   0.24118121 
    6900   -3516.7141    388.72499   -3127.9891    2193.5138    120088.72    10.472245   0.23325147 
    7000   -3523.1257    392.29022   -3130.8354    2213.6318    119559.99    10.472245   0.23264327 
    7100   -3503.9542    396.37609   -3107.5781    2236.6877    123352.16    10.472245   0.23290135 
    7200   -3508.2947    386.73835   -3121.5564    2182.3035    122303.58    10.472245   0.22595501 
    7300   -3514.0983    380.01392   -3134.0844    2144.3586     120534.1    10.472245   0.21341115 
    7400   -3531.7129    380.85863   -3150.8543    2149.1252    116340.55    10.472245   0.20679074 
    7500   -3518.5125    388.44957   -3130.0629    2191.9596    119892.74    10.472245   0.21455386 
    7600   -3501.5133    379.18963   -3122.3237    2139.7073    123303.83    10.472245   0.22224599 
    7700   -3501.0055    389.28713   -3111.7183    2196.6859    124332.03    10.472245   0.22252755 
    7800   -3509.9009    400.38907   -3109.5118    2259.3323    123459.52    10.472245   0.21659699 
    7900   -3508.7592    373.87605   -3134.8831    2109.7236    121444.56    10.472245   0.22089849 
    8000   -3501.4795    388.56996   -3112.9096     2192.639    123893.03    10.472245   0.21717929 
    8100   -3518.4689    397.79501   -3120.6739    2244.6945    119723.39    10.472245   0.20440003 
    8200   -3526.6315    383.84447    -3142.787    2165.9738    117925.44    10.472245   0.21097478 
    8300   -3512.2363    397.46289   -3114.7734    2242.8204    121682.65    10.472245   0.22150418 
    8400   -3514.2832    390.50628   -3123.7769    2203.5653    121315.03    10.472245   0.22786552 
    8500   -3508.4559    392.62497   -3115.8309    2215.5208    122522.36    10.472245   0.22394213 
    8600   -3511.0571    386.93362   -3124.1235    2183.4054    121432.42    10.472245    0.2245005 
    8700   -3511.4948     388.7688    -3122.726     2193.761    121418.01    10.472245   0.23347568 
    8800    -3504.394    403.19139   -3101.2026    2275.1454    123866.54    10.472245    0.2394258 
    8900   -3509.9481    390.30472   -3119.6434    2202.4279    122017.53    10.472245   0.23663736 
    9000   -3519.7848    377.73297   -3142.0518    2131.4876    119490.24    10.472245   0.22626345 
    9100   -3511.2626    387.44689   -3123.8157    2186.3017    121595.59    10.472245   0.22557624 
    9200   -3498.1417    369.07703   -3129.0647    2082.6434    123705.48    10.472245     0.238436 
    9300   -3498.3223    394.00036   -3104.3219    2223.2819    125541.37    10.472245   0.23547281 
    9400   -3511.7237    390.68843   -3121.0352    2204.5931    121626.49    10.472245   0.23085018 
    9500   -3527.0763    371.80265   -3155.2737    2098.0237    117445.23    10.472245   0.22605779 
    9600   -3514.8718    388.96359   -3125.9083    2194.8601    120457.97    10.472245   0.22794007 
    9700   -3513.5416    402.11574   -3111.4259    2269.0757    121097.14    10.472245   0.23137754 
    9800   -3514.3789    384.68527   -3129.6936    2170.7183    120659.32    10.472245   0.23252113 
    9900   -3522.0716    388.14278   -3133.9289    2190.2284     118509.1    10.472245   0.23318857 
   10000   -3498.6918    385.78834   -3112.9034    2176.9428    124487.95    10.472245   0.24359863 
Loop time of 38.203 on 1 procs for 10000 steps with 1372 atoms

Performance: 22.616 ns/day, 1.061 hours/ns, 261.759 timesteps/s
100.0% CPU use with 1 MPI tasks x no OpenMP threads

MPI task timing breakdown:
Section |  min time  |  avg time  |  max time  |%varavg| %total
---------------------------------------------------------------
Pair    | 23.895     | 23.895     | 23.895     |   0.0 | 62.55
Neigh   | 0.46157    | 0.46157    | 0.46157    |   0.0 |  1.21
Comm    | 0.18314    | 0.18314    | 0.18314    |   0.0 |  0.48
Output  | 0.0050343  | 0.0050343  | 0.0050343  |   0.0 |  0.01
Modify  | 13.583     | 13.583     | 13.583     |   0.0 | 35.56
Other   |            | 0.07497    |            |       |  0.20

Nlocal:    1372 ave 1372 max 1372 min
Histogram: 1 0 0 0 0 0 0 0 0 0
Nghost:    3279 ave 3279 max 3279 min
Histogram: 1 0 0 0 0 0 0 0 0 0
Neighs:    70902 ave 70902 max 70902 min
Histogram: 1 0 0 0 0 0 0 0 0 0

Total # of neighbors = 70902
Ave neighs/atom = 51.6778
Neighbor list builds = 151
Dangerous builds = 0
    
Total wall time: 0:00:38
