LAMMPS (3 Mar 2020)

# ---------- 1. Initialize simulation ----------
units metal
atom_style atomic
dimension 3
boundary p p p
read_data /home/modeler/RemLabs/Project/eval_timestep_nve/n3_T1800_timestep2.416465e-03_steps6208/20201205-224521/lammps.data
  orthogonal box = (0 0 0) to (17.469 17.469 17.469)
  1 by 1 by 1 MPI processor grid
  reading atoms ...
  217 atoms
  read_data CPU = 0.000979203 secs

pair_style meam/c
pair_coeff * * library.meam Li Si LiSi.meam Li Si
Reading potential file library.meam with DATE: 2012-06-29
Reading potential file LiSi.meam with DATE: 2020-11-07

group Li type 1
1 atoms in group Li

velocity all create 1800 3320 dist gaussian

# ---------- 2. Describe computed properties----------
compute msdli Li msd
thermo_style custom step pe ke etotal temp press density c_msdli[4]
thermo 100

# ---------- 3. Specify ensemble  ----------
#fix 1 all npt temp 1800 1800 0.1208232559642938 tchain 2 iso 1.0 1.0 1.0 pchain 2
# fix 1 all nvt temp 1800 1800 0.1208232559642938
 fix 1 all nve

# ---------- 4. Run -------------
timestep 0.002416465119285876
run 6208
Neighbor list info ...
  update every 1 steps, delay 10 steps, check yes
  max neighbors/atom: 2000, page size: 100000
  master list distance cutoff = 6
  ghost atom cutoff = 6
  binsize = 3, bins = 6 6 6
  2 neighbor lists, perpetual/occasional/extra = 2 0 0
  (1) pair meam/c, perpetual
      attributes: full, newton on
      pair build: full/bin/atomonly
      stencil: full/bin/3d
      bin: standard
  (2) pair meam/c, perpetual, half/full from (1)
      attributes: half, newton on
      pair build: halffull/newton
      stencil: none
      bin: none
Per MPI rank memory allocation (min/avg/max) = 9.27 | 9.27 | 9.27 Mbytes
Step PotEng KinEng TotEng Temp Press Density c_msdli[4] 
       0   -951.04357    50.256344   -900.78722         1800   -114161.75    1.8918427            0 
     100   -924.89106    24.276238   -900.61482    869.48679   -91106.886    1.8918427   0.19270115 
     200   -924.59358    23.974834   -900.61875    858.69162    -91035.32    1.8918427   0.11612147 
     300   -929.07619    28.428563   -900.64763     1018.208   -94781.223    1.8918427  0.032059507 
     400   -928.88894    28.256028   -900.63291    1012.0284   -93169.055    1.8918427  0.085382409 
     500   -925.96756    25.332932   -900.63463    907.33375    -92827.38    1.8918427  0.066029288 
     600   -927.12305    26.470857   -900.65219     948.0901   -92456.337    1.8918427  0.037781307 
     700   -927.45231    26.799902   -900.65241    959.87529   -93959.876    1.8918427  0.045114086 
     800   -929.20936    28.566786   -900.64257    1023.1587   -93813.063    1.8918427   0.02990003 
     900   -925.46878    24.851472    -900.6173    890.08962   -91867.219    1.8918427  0.067600482 
    1000   -926.73139    26.076681   -900.65471    933.97216   -93634.514    1.8918427   0.16329574 
    1100   -926.70355    26.064886   -900.63867    933.54968   -91760.582    1.8918427  0.069585069 
    1200   -927.20829    26.574666   -900.63362    951.80816   -92863.294    1.8918427  0.013486603 
    1300   -927.48711    26.842829   -900.64428    961.41279   -93279.983    1.8918427  0.076442146 
    1400   -926.27711    25.645742   -900.63137    918.53748   -92842.682    1.8918427   0.11717653 
    1500   -927.36412    26.723364   -900.64076    957.13397    -92879.98    1.8918427    0.1029664 
    1600   -927.70647     27.08279   -900.62368    970.00733   -93251.514    1.8918427   0.13011122 
    1700   -927.13219    26.482225   -900.64996    948.49725   -92832.486    1.8918427  0.051888203 
    1800   -926.69059    26.044059   -900.64653    932.80373   -93569.739    1.8918427  0.017288603 
    1900   -927.37912    26.732296   -900.64682     957.4539   -93940.317    1.8918427  0.011121774 
    2000   -927.90506    27.258136   -900.64692    976.28758   -94214.765    1.8918427  0.063875507 
    2100    -925.5883    24.973285   -900.61501    894.45251   -92374.153    1.8918427 0.0029882922 
    2200   -925.24685    24.612383   -900.63447    881.52629   -91334.365    1.8918427 0.0098973299 
    2300   -926.50383    25.871975   -900.63186    926.64031   -93227.262    1.8918427    0.1022638 
    2400   -925.19477    24.572793   -900.62198    880.10832   -91477.761    1.8918427  0.076582388 
    2500   -925.07994    24.469242    -900.6107    876.39952    -91525.35    1.8918427  0.028458036 
    2600   -927.63297    27.000682   -900.63229     967.0665   -93443.699    1.8918427  0.050271461 
    2700   -927.44539    26.808588    -900.6368    960.18639   -93807.294    1.8918427  0.026133542 
    2800   -928.23742    27.609035   -900.62838     988.8555     -93885.4    1.8918427  0.027053106 
    2900   -926.60227    25.972393   -900.62988    930.23693   -94264.999    1.8918427 0.0097378475 
    3000   -925.23445    24.601858   -900.63259    881.14935   -94331.735    1.8918427   0.24642297 
    3100   -924.51779    23.908547   -900.60924    856.31743   -91735.622    1.8918427  0.022628799 
    3200   -928.23917    27.592539   -900.64663     988.2647   -94875.445    1.8918427  0.016650628 
    3300   -927.18473    26.544688   -900.64005    950.73447   -94743.502    1.8918427   0.12885123 
    3400   -924.52747    23.904334   -900.62314    856.16655   -92040.445    1.8918427  0.014516119 
    3500   -926.38635    25.777449    -900.6089    923.25473    -93242.78    1.8918427  0.075506267 
    3600   -925.46353    24.836165   -900.62736    889.54136   -92038.074    1.8918427  0.027114025 
    3700   -925.06463    24.435009   -900.62962     875.1734   -92815.077    1.8918427   0.14529771 
    3800   -927.78421    27.136746   -900.64746    971.93982   -94378.865    1.8918427  0.041663628 
    3900   -927.29318    26.660266   -900.63291    954.87403    -94888.87    1.8918427  0.084209323 
    4000   -925.95032    25.310738   -900.63959    906.53883   -94152.336    1.8918427  0.021361492 
    4100   -928.33174    27.694136    -900.6376    991.90351   -95192.977    1.8918427   0.04525136 
    4200    -927.5075    26.873171   -900.63433    962.49952   -94758.063    1.8918427  0.060301705 
    4300   -925.01779    24.399227   -900.61856    873.89183   -91834.081    1.8918427  0.041378746 
    4400   -925.98296    25.356315   -900.62665    908.17125   -93796.811    1.8918427 0.0073722766 
    4500   -926.35221    25.711505   -900.64071    920.89286   -93705.068    1.8918427  0.059542711 
    4600   -926.98683    26.361024    -900.6258    944.15629   -94037.238    1.8918427   0.17678229 
    4700   -926.36617    25.720141   -900.64603    921.20218    -94199.56    1.8918427  0.072623271 
    4800     -929.374    28.704562   -900.66944    1028.0933   -96417.313    1.8918427 0.0067708831 
    4900   -925.26195    24.626925   -900.63502    882.04715   -91416.374    1.8918427 0.0059411073 
    5000   -926.50105    25.874225   -900.62683     926.7209   -92029.454    1.8918427  0.074042414 
    5100   -927.65294    27.006247    -900.6467    967.26582   -93619.364    1.8918427  0.088323488 
    5200   -926.74723    26.121713   -900.62551    935.58502   -92134.634    1.8918427   0.14129301 
    5300   -926.58973    25.938513   -900.65122    929.02348   -93738.715    1.8918427  0.011193679 
    5400   -925.49302    24.870947   -900.62207    890.78713   -92401.586    1.8918427 0.0020103952 
    5500   -927.41191    26.760145   -900.65176    958.45133   -93999.155    1.8918427  0.051296977 
    5600    -926.6152      25.9884    -900.6268    930.81024   -92828.459    1.8918427  0.039018934 
    5700   -925.85318    25.222643   -900.63054    903.38359   -92575.474    1.8918427  0.025367348 
    5800   -925.76525     25.14769   -900.61756    900.69907   -92212.338    1.8918427   0.11435177 
    5900   -927.73186    27.098562    -900.6333    970.57223   -94104.347    1.8918427  0.044366696 
    6000   -928.20754      27.5453   -900.66224    986.57274   -94627.062    1.8918427  0.016183214 
    6100   -927.76852    27.111403   -900.65712    971.03214   -95282.501    1.8918427  0.056830961 
    6200   -927.71068    27.063724   -900.64696    969.32445    -93510.64    1.8918427  0.080270273 
    6208   -925.98058    25.349443   -900.63114    907.92513     -91867.2    1.8918427   0.17236825 
Loop time of 3.28475 on 1 procs for 6208 steps with 217 atoms

Performance: 394.588 ns/day, 0.061 hours/ns, 1889.946 timesteps/s
100.0% CPU use with 1 MPI tasks x no OpenMP threads

MPI task timing breakdown:
Section |  min time  |  avg time  |  max time  |%varavg| %total
---------------------------------------------------------------
Pair    | 3.2289     | 3.2289     | 3.2289     |   0.0 | 98.30
Neigh   | 0.0054107  | 0.0054107  | 0.0054107  |   0.0 |  0.16
Comm    | 0.025834   | 0.025834   | 0.025834   |   0.0 |  0.79
Output  | 0.0017672  | 0.0017672  | 0.0017672  |   0.0 |  0.05
Modify  | 0.01375    | 0.01375    | 0.01375    |   0.0 |  0.42
Other   |            | 0.009077   |            |       |  0.28

Nlocal:    217 ave 217 max 217 min
Histogram: 1 0 0 0 0 0 0 0 0 0
Nghost:    940 ave 940 max 940 min
Histogram: 1 0 0 0 0 0 0 0 0 0
Neighs:    3596 ave 3596 max 3596 min
Histogram: 1 0 0 0 0 0 0 0 0 0
FullNghs:  7192 ave 7192 max 7192 min
Histogram: 1 0 0 0 0 0 0 0 0 0

Total # of neighbors = 7192
Ave neighs/atom = 33.1429
Neighbor list builds = 10
Dangerous builds = 0
Total wall time: 0:00:03
