LAMMPS (3 Mar 2020)
Reading data file ...
  orthogonal box = (0 0 0) to (16.36 16.36 16.36)
  1 by 1 by 1 MPI processor grid
  reading atoms ...
  256 atoms
  read_data CPU = 0.00103401 secs
Reading potential file /usr/share/lammps-stable/potentials/Ag_u3.eam with DATE: 2007-06-11
Neighbor list info ...
  update every 1 steps, delay 10 steps, check yes
  max neighbors/atom: 2000, page size: 100000
  master list distance cutoff = 7.55
  ghost atom cutoff = 7.55
  binsize = 3.775, bins = 5 5 5
  2 neighbor lists, perpetual/occasional/extra = 1 1 0
  (1) pair eam, perpetual
      attributes: half, newton on
      pair build: half/bin/atomonly/newton
      stencil: half/bin/3d/newton
      bin: standard
  (2) compute rdf, occasional, copy from (1)
      attributes: half, newton on
      pair build: copy
      stencil: none
      bin: none
Setting up Verlet run ...
  Unit style    : metal
  Current step  : 0
  Time step     : 0.005
Per MPI rank memory allocation (min/avg/max) = 3.744 | 3.744 | 3.744 Mbytes
Step PotEng KinEng TotEng Temp Press Density c_msdall[4] 
       0       -729.6    79.107209   -650.49279         2400     19296.74    10.472245            0 
     100   -685.83365    39.288508   -646.54514    1191.9573    14026.447    9.8288012   0.15882343 
     200   -677.39006    37.621586   -639.76847    1141.3853    -3396.575    9.4947333   0.25219325 
     300   -670.78983    37.849443   -632.94039    1148.2982   -8967.0465    9.3104192    0.3398934 
     400   -667.07308    40.229336   -626.84374    1220.5007   -4945.5985    9.2818477   0.32839984 
     500   -667.47129     46.96536   -620.50592    1424.8621    1093.5104    9.3348742   0.27639091 
     600   -663.62026    49.491591   -614.12866    1501.5044    2360.3713    9.2806797   0.38479535 
     700   -655.68657    47.993517   -607.69305    1456.0549   -721.98086    9.1007502   0.47900688 
     800   -649.40634    48.236159   -601.17018    1463.4164   -2004.1368    8.9294239   0.52620044 
     900   -647.35002    52.461686   -594.88833    1591.6128   -10248.798    8.7992698   0.64720884 
    1000   -641.18563    53.162373   -588.02326    1612.8707    7482.6497    8.8264596   0.80187869 
    1100   -630.84975    49.921941   -580.92781    1514.5606    2239.9295    8.6101892     1.509074 
    1200   -624.52693    50.913739   -573.61319    1544.6503    1894.2291    8.3699115    2.7444078 
    1300   -621.35985    54.726828   -566.63303     1660.334    2135.4114    8.2756787    4.8034892 
    1400   -616.60549    56.784731   -559.82075    1722.7678   -3418.2119    8.0712419    7.2786199 
    1500   -614.69041    62.061076   -552.62934    1882.8446   -2741.1297    8.1557499    9.3103006 
    1600   -607.48463    61.520594   -545.96404    1866.4472   -7625.4093    7.8625269     13.01687 
    1700   -603.48788    64.734672   -538.75321    1963.9577   -941.51089    7.7878439    16.501206 
    1800   -601.62379    69.624138   -531.99965    2112.2971    1071.4418    7.8035195    19.265884 
    1900   -596.37176    71.725043   -524.64671    2176.0356   -3467.4311    7.4537493    23.251614 
    2000   -590.35641    73.011375   -517.34503    2215.0611    -5796.118    7.4485236    27.062923 
    2100   -587.43288    73.115706   -514.31718    2218.2263   -9114.1827     7.363225    32.277704 
    2200   -582.39062     77.83977   -504.55085    2361.5477    959.36888     7.319529    34.793142 
    2300   -573.32619    76.041916   -497.28427    2307.0034    308.14723    7.0938112    39.711471 
    2400   -574.36669    80.023556   -494.34313    2427.8007    1135.7544    7.0843088    43.188762 
    2500   -570.93835    79.310853    -491.6275    2406.1783    65.226552    6.9663122    47.908147 
    2600   -556.47779    77.208067   -479.26972    2342.3827    2160.7631    6.6996015    54.415638 
    2700   -569.84762    82.881138   -486.96648    2514.4956     11145.81    7.0770363    57.243235 
    2800   -573.89935    75.620298   -498.27905    2294.2121   -7993.5475    6.8288851    63.906723 
    2900   -569.14144     78.38061   -490.76083     2377.956   -3619.5189    6.7788138    68.517515 
    3000   -569.38986    79.632626   -489.75723    2415.9404   -1376.5729     6.858247    71.534144 
    3100   -571.17615    78.644386   -492.53176    2385.9586    1906.2862    6.9862539    72.318642 
    3200   -565.25147    76.996372    -488.2551    2335.9602   -3897.7948     6.779836    80.437371 
    3300   -570.25623     83.87761   -486.37862    2544.7272    8615.1841    7.0744009    82.614776 
    3400   -568.21679    70.010089    -498.2067    2124.0063    2369.9656    6.9366231    88.843099 
    3500   -569.80773    79.179228    -490.6285     2402.185    6287.1109    7.0641814    91.653371 
    3600   -571.99012    80.004358   -491.98576    2427.2182    -611.5095    7.0125116    95.584748 
    3700   -583.40117    75.419635   -507.98153    2288.1243    11111.048    7.4684094     96.39579 
    3800   -580.39628    81.925673    -498.4706    2485.5082   -1148.1785    7.1813313    105.05956 
    3900   -571.97145    81.285139   -490.68631    2466.0753   -10779.803    6.7442024    113.48194 
    4000   -568.85825    81.302425   -487.55582    2466.5997    -6654.353    6.9232233    116.07947 
    4100   -578.12719    77.658024   -500.46917    2356.0338   -3675.9342    7.0886048    120.43983 
    4200   -577.93865    80.577142   -497.36151    2444.5957    5380.3285    7.2457007    122.87736 
    4300   -564.50215    73.908841   -490.59331    2242.2889   -12799.609    6.6614883    137.65672 
    4400   -567.11643    81.631756   -485.48468    2476.5912    2689.6999    6.9345817     140.8633 
    4500   -571.73398    79.094149   -492.63983    2399.6038   -7302.9784    6.9450103    145.16622 
    4600    -572.3173    76.165969   -496.15133     2310.767   -8693.4691    6.9476069    149.39403 
    4700   -573.94318    80.930219   -493.01296    2455.3075    5988.2642    7.1385745    154.01489 
    4800   -569.09948    79.476922   -489.62256    2411.2166   -44.065881    6.8325096    161.90896 
    4900   -564.38791    84.682061   -479.70585    2569.1331    2887.5921     6.732477    170.63091 
    5000   -563.11076    80.722156   -482.38861    2448.9952    8.9010995     6.645407    177.82167 
    5100   -565.56173    76.391333    -489.1704    2317.6042   -3110.6967    6.7615599    178.27676 
    5200   -565.21607    71.645883   -493.57019     2173.634    598.41067    6.7621632    182.79893 
    5300   -571.29493    87.058532    -484.2364    2641.2318    3937.3849    6.8973541    187.43545 
    5400   -567.30553    78.570782   -488.73475    2383.7256   -5859.7419    6.8742198    192.27221 
    5500   -571.57543    77.557875   -494.01756    2352.9954   -5592.6429     7.056459    192.59732 
    5600   -578.54985    71.600466   -506.94939    2172.2561    1369.0945    7.1652442    195.86481 
    5700   -569.79815    75.576497   -494.22166    2292.8833    745.79713    6.8340905    207.45483 
    5800   -569.00832    80.003553   -489.00477    2427.1938    8707.7463    6.9318674     211.9145 
    5900    -564.4057    78.543417   -485.86229    2382.8954   -4472.9799    6.6386374    225.33058 
    6000      -562.58     80.53571   -482.04429    2443.3387   -769.26218      6.71585    235.33666 
    6100   -565.70339    77.311528   -488.39187    2345.5216   -1973.4284    6.7143609    235.54677 
    6200   -564.00227    84.627466    -479.3748    2567.4767   -907.75605    6.7409639    239.93128 
    6300   -567.02994    75.673074   -491.35687    2295.8132    1129.7676    6.8371288    247.99284 
    6400   -571.83569    80.002022   -491.83367    2427.1474     3599.038    7.0458821     250.1161 
    6500   -568.12015    67.932138   -500.18801    2060.9643    -8447.873    6.8474691    260.84712 
    6600   -567.83608    79.163785   -488.67229    2401.7164   -38.951825    7.0334096    263.43382 
    6700   -563.81198    79.436605   -484.37537    2409.9934   -3657.4631    6.6781066    278.38328 
    6800   -574.44967     75.72595   -498.72372    2297.4174    381.97016    7.0373613    270.59016 
    6900   -581.82156    75.506922   -506.31464    2290.7724    1787.8841    7.2734004    267.83409 
    7000   -574.23677    80.487132   -493.74964    2441.8649    5156.1716    7.2022629    273.91794 
    7100   -570.68827    81.085195   -489.60307    2460.0093   -592.17401    6.7745301    288.97507 
    7200   -569.71031    78.718534   -490.99178    2388.2082    6424.8572    6.9798396    285.95324 
    7300   -576.45947    79.449791   -497.00968    2410.3935    3306.1602     7.097321     287.6124 
    7400   -570.32473    82.481808   -487.84293    2502.3805    3697.8603    6.8944132    302.99895 
    7500   -574.63477    74.481346   -500.15343    2259.6579    3658.5293    6.9652874    304.80797 
    7600   -560.46917    72.688745   -487.78043     2205.273   -5527.7505    6.6027201    321.20067 
    7700   -564.77695    79.330495   -485.44645    2406.7742    986.44861      6.70701    322.14864 
    7800   -559.38236     77.76871   -481.61365    2359.3919   -2792.0015    6.5403779    329.16847 
    7900   -552.92268     78.70823   -474.21445    2387.8956    882.13199    6.4772404    340.00334 
    8000   -568.58908    79.455234   -489.13384    2410.5586   -1852.3992    6.7110468    335.75717 
    8100   -569.90252    78.253042   -491.64948    2374.0858    1307.8946    6.9428427    334.04257 
    8200   -566.52757    88.206143   -478.32143    2676.0487    1574.8263    6.7275122    349.42234 
    8300   -564.53944    78.027257   -486.51218    2367.2358    2551.0311     6.638029    362.19697 
    8400   -570.52506    76.144945   -494.38012    2310.1291    5371.6347    6.9417298    353.59792 
    8500   -581.23167    73.979927   -507.25174    2244.4456    6948.1486     7.320743    342.30839 
    8600   -582.47236    77.251305   -505.22106    2343.6945   -6317.1994    7.2134709    348.89327 
    8700   -573.34694    75.654767   -497.69217    2295.2578   -3150.1317    6.9965336    361.17898 
    8800   -567.99064    75.258291   -492.73235    2283.2293   -234.23493     6.912121    367.30257 
    8900   -561.50837    80.269505   -481.23887    2435.2624   -2228.4079    6.6337983    384.42408 
    9000   -565.48496    82.198504   -483.28646    2493.7855    6301.7805    6.8078348    378.80315 
    9100   -576.24706    77.030125   -499.21693    2336.9843    9420.5765     7.382431    363.89497 
    9200   -582.91296    80.532105   -502.38085    2443.2293   -14850.962    7.0881106    382.02668 
    9300   -573.13914    80.304852   -492.83429    2436.3348   -6268.2046    6.7953262    395.33875 
    9400   -566.03518    81.670325   -484.36486    2477.7613   -2149.7205     6.637279    411.54259 
    9500   -560.24347     81.19887    -479.0446     2463.458    1159.7246     6.463404    422.21678 
    9600   -565.86067     74.91321   -490.94746    2272.7601   -3909.2887     6.539852    419.62138 
    9700   -570.99962     85.44262     -485.557    2592.2073    2663.0871    6.9199974    409.27944 
    9800   -574.54178    78.720873    -495.8209    2388.2791   -3585.0181    7.0408129    413.55271 
    9900   -573.44729    71.240319   -502.20698    2161.3298   -2325.7229    7.1011936    416.20701 
   10000   -570.04574    79.576223   -490.46952    2414.2292    151.58714    6.9923485    423.57703 
Loop time of 5.41237 on 1 procs for 10000 steps with 256 atoms

Performance: 798.172 ns/day, 0.030 hours/ns, 1847.621 timesteps/s
100.2% CPU use with 1 MPI tasks x no OpenMP threads

MPI task timing breakdown:
Section |  min time  |  avg time  |  max time  |%varavg| %total
---------------------------------------------------------------
Pair    | 3.1204     | 3.1204     | 3.1204     |   0.0 | 57.65
Neigh   | 0.34731    | 0.34731    | 0.34731    |   0.0 |  6.42
Comm    | 0.078167   | 0.078167   | 0.078167   |   0.0 |  1.44
Output  | 0.0028361  | 0.0028361  | 0.0028361  |   0.0 |  0.05
Modify  | 1.8498     | 1.8498     | 1.8498     |   0.0 | 34.18
Other   |            | 0.01379    |            |       |  0.25

Nlocal:    256 ave 256 max 256 min
Histogram: 1 0 0 0 0 0 0 0 0 0
Nghost:    1292 ave 1292 max 1292 min
Histogram: 1 0 0 0 0 0 0 0 0 0
Neighs:    8893 ave 8893 max 8893 min
Histogram: 1 0 0 0 0 0 0 0 0 0

Total # of neighbors = 8893
Ave neighs/atom = 34.7383
Neighbor list builds = 735
Dangerous builds = 21
Total wall time: 0:00:05
