LAMMPS (3 Mar 2020)
Reading data file ...
  orthogonal box = (0 0 0) to (17.469 17.469 17.469)
  1 by 1 by 1 MPI processor grid
  reading atoms ...
  217 atoms
  read_data CPU = 0.00104742 secs
Reading potential file library.meam with DATE: 2012-06-29
Reading potential file LiSi.meam with DATE: 2020-11-07
1 atoms in group Li
216 atoms in group Si
Neighbor list info ...
  update every 1 steps, delay 10 steps, check yes
  max neighbors/atom: 2000, page size: 100000
  master list distance cutoff = 6
  ghost atom cutoff = 6
  binsize = 3, bins = 6 6 6
  2 neighbor lists, perpetual/occasional/extra = 2 0 0
  (1) pair meam/c, perpetual
      attributes: full, newton on
      pair build: full/bin/atomonly
      stencil: full/bin/3d
      bin: standard
  (2) pair meam/c, perpetual, half/full from (1)
      attributes: half, newton on
      pair build: halffull/newton
      stencil: none
      bin: none
Setting up Verlet run ...
  Unit style    : metal
  Current step  : 0
  Time step     : 0.003
Per MPI rank memory allocation (min/avg/max) = 8.895 | 8.895 | 8.895 Mbytes
Step Temp E_pair E_mol TotEng Press Volume 
       0         1600   -951.04357            0   -906.37126   -115280.58    5330.9442 
    3200    1708.4558   -950.32927            0   -902.62886     1696.931    4611.4396 
Loop time of 2.32328 on 1 procs for 3200 steps with 217 atoms

Performance: 357.012 ns/day, 0.067 hours/ns, 1377.361 timesteps/s
100.0% CPU use with 1 MPI tasks x no OpenMP threads

MPI task timing breakdown:
Section |  min time  |  avg time  |  max time  |%varavg| %total
---------------------------------------------------------------
Pair    | 2.2302     | 2.2302     | 2.2302     |   0.0 | 95.99
Neigh   | 0.041299   | 0.041299   | 0.041299   |   0.0 |  1.78
Comm    | 0.01509    | 0.01509    | 0.01509    |   0.0 |  0.65
Output  | 2.8132e-05 | 2.8132e-05 | 2.8132e-05 |   0.0 |  0.00
Modify  | 0.031352   | 0.031352   | 0.031352   |   0.0 |  1.35
Other   |            | 0.005322   |            |       |  0.23

Nlocal:    217 ave 217 max 217 min
Histogram: 1 0 0 0 0 0 0 0 0 0
Nghost:    957 ave 957 max 957 min
Histogram: 1 0 0 0 0 0 0 0 0 0
Neighs:    4158 ave 4158 max 4158 min
Histogram: 1 0 0 0 0 0 0 0 0 0
FullNghs:  8316 ave 8316 max 8316 min
Histogram: 1 0 0 0 0 0 0 0 0 0

Total # of neighbors = 8316
Ave neighs/atom = 38.3226
Neighbor list builds = 69
Dangerous builds = 0
Setting up Verlet run ...
  Unit style    : metal
  Current step  : 3200
  Time step     : 0.003
Per MPI rank memory allocation (min/avg/max) = 9.662 | 9.662 | 9.662 Mbytes
Step PotEng KinEng TotEng Temp Press Density c_msdli[4] c_msdsi[4] 
    3200   -950.32927    47.700414   -902.62886    1708.4558     1696.931    2.1870194            0 5.6230021e-32 
    3300   -945.01266    42.179234   -902.83343    1510.7072    5178.4959    2.1872368   0.11424015  0.097269258 
    3400    -947.4607    45.144342   -902.31635    1616.9066   -4133.6702    2.1696037    0.1149451   0.09974196 
    3500    -942.5178    51.206183   -891.31161    1834.0198   -6047.3556    2.1480883    0.3461926   0.11323419 
    3600   -945.48883    46.952593   -898.53624    1681.6716    8397.7791    2.1905906   0.37587591   0.13294808 
    3700   -946.33583    43.766496   -902.56934    1567.5572    2383.9029    2.1802765   0.58060642   0.10410212 
    3800   -948.83169    43.871171   -904.96052    1571.3063   -7902.8228    2.1613405  0.098680867   0.11073418 
    3900    -944.5774    47.632667   -896.94473    1706.0294   -199.42696    2.1685732 0.0038912593   0.11645712 
    4000   -947.05921    48.730762   -898.32844    1745.3592    5379.5892    2.1885069   0.11146902   0.12534907 
    4100   -948.91228      44.7683   -904.14398    1603.4382   -3757.7119    2.1723026   0.54658272   0.10176476 
    4200   -944.70735     41.62027   -903.08708    1490.6871   -4747.0751    2.1618035    0.2637826   0.10524366 
    4300   -944.25423    50.156079   -894.09815    1796.4089    1449.8314    2.1732702   0.12490377   0.11005261 
    4400     -947.889    45.610562   -902.27844    1633.6049    6502.3253     2.195928   0.51952249   0.11786926 
    4500   -943.81326    39.652222   -904.16104    1420.1988   -5790.0248    2.1598904  0.097292666   0.13259173 
    4600   -948.54139    48.218816   -900.32257    1727.0231   -9631.5783    2.1587147    0.2168248   0.12882573 
    4700   -951.15757    50.210861   -900.94671     1798.371    4929.7948    2.1957558   0.10990488   0.12086832 
    4800   -948.78555    41.150561   -907.63499    1473.8639    9442.4939    2.2067809   0.42374188   0.11002597 
    4900   -946.75347    43.381184   -903.37228    1553.7567   -6823.8794    2.1622176  0.014754324   0.11336653 
    5000     -944.406    43.111883   -901.29412    1544.1113   -6075.7313    2.1572509   0.35261642    0.1298571 
    5100   -948.01753    39.010897   -909.00664    1397.2288    8589.8727    2.2057689  0.056332014   0.12992021 
    5200   -948.01721    41.682836   -906.33438     1492.928    5197.9773    2.1959125  0.095368649   0.11044697 
    5300   -946.69027    44.920615   -901.76966    1608.8935   -4497.9228    2.1638199   0.23547008   0.11203261 
    5400   -950.48008    46.922703   -903.55737    1680.6011   -7007.2495    2.1663845   0.22094509   0.12065274 
    5500   -951.22006    41.129021   -910.09104    1473.0924    8687.0987    2.2105352  0.096426529     0.127032 
    5600   -946.99986    46.148086   -900.85178    1652.8571    2742.1157     2.182683   0.27654365   0.13751933 
    5700   -950.87048    48.749386   -902.12109    1746.0262   -8411.1644    2.1609674   0.11396188   0.12196685 
    5800   -950.79782    45.856571   -904.94125    1642.4161   -2616.4523    2.1803368  0.081412709   0.10220018 
    5900   -951.65866     41.39246    -910.2662    1482.5278    8205.0122     2.210806   0.11288685    0.1044021 
    6000   -949.32902    48.426729   -900.90229    1734.4698   -4053.7691    2.1734085  0.076037307   0.11298122 
    6100   -947.10489    45.131301   -901.97359    1616.4395   -5040.7252    2.1682383   0.20078235   0.12933849 
    6200   -948.18461    44.744649   -903.43996    1602.5911    1480.8686    2.1846055   0.32893015   0.12552184 
    6300   -948.57607    41.613446   -906.96262    1490.4427    5123.7739    2.1951819   0.18817422   0.11083015 
    6400   -952.90767    37.684685   -915.22298    1349.7288    -1217.864    2.1892537  0.027077223   0.10405979 
    6500   -946.91613     40.65435   -906.26178    1456.0914   -7226.7343    2.1629118  0.014928392   0.13603828 
    6600   -950.06384    46.239947   -903.82389    1656.1472    4929.2844    2.1970697    0.1124735   0.11726406 
    6700   -949.23559     48.15755   -901.07804    1724.8288    7458.9688    2.1958086   0.15161398    0.1059847 
    6800    -946.0002    42.822844   -903.17736     1533.759   -10151.607     2.151825  0.089129118   0.12579953 
    6900   -952.98878    42.591507   -910.39728    1525.4733   -6023.7297    2.1773563   0.33615551   0.09710574 
    7000   -948.33347    45.706716   -902.62676    1637.0488     8968.552    2.2029393   0.15123833   0.11904725 
    7100   -946.64791    44.956942   -901.69096    1610.1946    4822.0423    2.1853468   0.10134493   0.12335901 
    7200   -948.61532    41.126649   -907.48867    1473.0074    -9064.254    2.1592153   0.10261589   0.11337159 
    7300   -946.77858    39.501789   -907.27679    1414.8108    1308.2555    2.1828974  0.061658682   0.11911593 
    7400   -949.11625    48.683998   -900.43225    1743.6843    4539.9406    2.1920075  0.091582657   0.11193862 
    7500   -948.54767    44.907078   -903.64059    1608.4087   -291.12243    2.1790996   0.16837833   0.11778234 
    7600   -950.43719    41.014248   -909.42294    1468.9816   -5411.0267    2.1774603   0.22464295   0.11558943 
    7700   -946.38243    43.302488   -903.07994    1550.9381    3502.5806    2.1865892   0.19923444   0.10655341 
    7800   -946.85496    45.831455   -901.02351    1641.5165    5221.3487    2.1883115   0.63031375    0.1039742 
    7900   -946.89505    42.822811   -904.07223    1533.7578   -3569.8263    2.1712829   0.18285308   0.11325765 
    8000   -946.39395    41.466665   -904.92729    1485.1856   -1598.4483    2.1737666   0.80046798   0.11198691 
    8100    -944.2409    49.235483   -895.00542    1763.4364   -437.44914     2.168038   0.13004777   0.13574258 
    8200   -947.53457    46.996229   -900.53834    1683.2345    4313.4472    2.1884047  0.072624379   0.11122148 
    8300   -947.46824    43.172842    -904.2954    1546.2946   -1433.9284    2.1766909  0.033049807  0.098453923 
    8400   -943.96925    42.625482   -901.34377    1526.6902   -3476.4485     2.165326   0.28348056   0.11270225 
    8500   -942.45555    47.466193   -894.98935    1700.0669    1854.9087    2.1695695   0.22749175   0.11195987 
    8600   -945.46953    42.503211   -902.96632    1522.3109     7685.577    2.1950897   0.17503249   0.12852451 
    8700    -946.8195    42.841803    -903.9777     1534.438   -1718.5727    2.1725176   0.13193325   0.11155093 
    8800   -942.88753    46.341527     -896.546    1659.7854   -8055.6582    2.1420855   0.52355092   0.11621519 
    8900   -946.76333     48.19701   -898.56632    1726.2421    6066.1363    2.1856802  0.054359417   0.10206987 
    9000   -949.10617    46.263632   -902.84254    1656.9955    9585.0747    2.2024006  0.090732058   0.10330583 
    9100   -944.57241    41.273184   -903.29922    1478.2558   -3274.6415    2.1611974  0.025029064   0.13482855 
    9200   -946.17483    47.787303   -898.38753    1711.5679   -12329.173     2.144624   0.18511765   0.12918561 
    9300   -946.11735    53.394551   -892.72279    1912.3992    3158.1047     2.173502   0.30585299   0.10807118 
    9400   -948.73792    46.790048   -901.94787    1675.8498     12043.31    2.2097715   0.14436915  0.097462715 
    9500    -945.0639    41.861417   -903.20248    1499.3242   -4251.7184    2.1630887  0.069040478    0.1051197 
    9600   -945.65827    43.504657   -902.15361     1558.179   -9012.7906    2.1506466   0.14818199   0.11496976 
    9700   -954.29767    42.426036   -911.87163    1519.5468    3373.2098    2.2032847   0.36808775   0.10710322 
    9800   -953.50524    46.610818   -906.89442    1669.4305     1911.049    2.1935849  0.037871853    0.1027279 
    9900   -949.12608    46.383422   -902.74266     1661.286   -4226.2741    2.1701494   0.10430535   0.11744932 
   10000   -947.47462    45.770919    -901.7037    1639.3483   -3078.2763    2.1681829  0.079360755   0.12080556 
   10100   -952.28642    41.635802   -910.65062    1491.2435    3614.2262    2.1991918  0.096105244   0.11192748 
   10200   -950.90265    45.394163   -905.50849    1625.8543   -1661.8936    2.1829946    0.1928556   0.11273633 
   10300   -947.11953    45.245884   -901.87365    1620.5435   -1713.4003    2.1700911   0.33940762   0.10017059 
   10400   -947.55336     43.85998   -903.69338    1570.9054    140.25221    2.1774913   0.39335631   0.10506905 
   10500   -952.73965    41.620836   -911.11881    1490.7074    3405.6206    2.2005037   0.30647744   0.11556124 
   10600   -945.20888    43.380597   -901.82829    1553.7357   -2889.9002    2.1688234   0.16972039   0.11722359 
   10700   -947.75495    45.458139   -902.29682    1628.1457   -1747.2888    2.1754013    0.2504203   0.11647485 
   10800   -949.78616    43.702312   -906.08385    1565.2583    3893.8809    2.1953116   0.13613221    0.1146543 
   10900   -948.78485    37.337088   -911.44777    1337.2791    4512.5087    2.1962056   0.40063479   0.10598247 
   11000   -944.52299     43.15883   -901.36416    1545.7928   -12600.398    2.1432528    0.2326671   0.12652937 
   11100    -946.2357    43.285185   -902.95051    1550.3184    2758.4807    2.1838262   0.35366909   0.13291397 
   11200   -946.08426    43.701899   -902.38236    1565.2435    21697.183    2.2288538  0.025814986   0.11216766 
   11300   -942.75034    49.277148   -893.47319    1764.9287     -4959.68    2.1568775   0.29666694   0.12491003 
   11400   -941.82213    42.489558   -899.33257    1521.8219   -9961.8506    2.1443466    0.2868455   0.12629042 
   11500   -945.49952    42.304248   -903.19527    1515.1848    3999.0898    2.1905336   0.93787107   0.11603847 
   11600   -947.50359    45.454906   -902.04868    1628.0299    9760.3749    2.2019851   0.13454003   0.12609784 
   11700   -941.58914    47.598551   -893.99059    1704.8075   -2867.6082    2.1557815   0.28057982    0.1298495 
   11800    -943.0584    43.332358   -899.72604    1552.0079   -6583.8088    2.1552377   0.60910557   0.12478531 
   11900   -945.93336    42.644454   -903.28891    1527.3697    1583.7584    2.1814554   0.14485496   0.13093224 
   12000   -948.60007    46.446724   -902.15335    1663.5532    8238.8414    2.1979883    0.1847561   0.11091927 
   12100   -948.60273    51.637035    -896.9657    1849.4513   -2505.9327    2.1670006   0.26968982   0.10938407 
   12200    -940.5828    44.413985   -896.16882    1590.7479   -8262.3962    2.1428759   0.25610622   0.13715002 
   12300   -948.34242    45.274875   -903.06754    1621.5818   -638.03091     2.181316    0.1444422   0.10696324 
   12400   -949.05024    46.274691   -902.77555    1657.3916    9231.0094    2.2008586   0.23750419   0.11348605 
   12500   -947.86564    46.143435   -901.72221    1652.6905   -3033.0175    2.1690983   0.30234732   0.12221607 
   12600   -941.72147    48.561587   -893.15988    1739.2999   -10444.588    2.1378194  0.074178777   0.12129765 
   12700   -949.62963    47.339045   -902.29059    1695.5129    3426.8339    2.1904688   0.14525298   0.12996598 
   12800   -947.87977    44.571858   -903.30791    1596.4023    5592.6884    2.1922227  0.019008897   0.11547332 
   12900   -943.92631    41.905232   -902.02108    1500.8934    -1964.576    2.1709994   0.11016464   0.11741169 
   13000   -941.44452    48.768886   -892.67564    1746.7246   -5890.3894    2.1518528   0.45286334   0.12986561 
   13100   -945.47821    43.325913    -902.1523    1551.7771    7504.6021    2.1948893   0.47411579    0.1211956 
   13200   -948.20198    44.708143   -903.49384    1601.2835    1499.5862     2.186263   0.36197189   0.11842687 
   13300   -947.69757    45.703052   -901.99451    1636.9176   -6055.3531    2.1652819   0.32715017   0.12677302 
   13400   -943.54301    50.846433   -892.69658    1821.1348   -4247.2581    2.1542744  0.039288128   0.12072118 
   13500   -947.82217    45.465883   -902.35629     1628.423    8861.5201    2.2023466  0.063065313   0.10880074 
   13600   -949.90284    46.345716   -903.55713    1659.9355   -5.5321403     2.182867  0.092521832   0.12363512 
   13700   -947.85551     45.99273   -901.86278    1647.2928     -9227.51    2.1573584  0.065056691    0.1129157 
   13800   -945.11297    52.642946   -892.47002    1885.4794   -1976.3379    2.1637004   0.16912553   0.11878696 
   13900   -945.33204    44.569129   -900.76291    1596.3046    11873.404    2.2060182    0.2551753   0.13721589 
   14000   -944.21496    40.772519   -903.44244    1460.3238    -2351.889    2.1704035   0.43382861   0.11175909 
   14100   -950.53055    47.460638   -903.06991    1699.8679   -8245.8548    2.1601813   0.20348911   0.11180783 
   14200   -948.73131     51.12558   -897.60573    1831.1329    2738.4386    2.1861493    0.2152588   0.12743081 
   14300   -945.04634    49.030791   -896.01555    1756.1051    1452.0378    2.1793364   0.16536811   0.13678901 
   14400    -946.8651     44.00043   -902.86467    1575.9358   -3223.7011    2.1723873  0.034535525   0.14386831 
   14500   -948.52059    44.782517   -903.73808    1603.9473   -1799.2035    2.1772275   0.36110626   0.11888808 
   14600   -946.48927    46.752465   -899.73681    1674.5038    4342.6229    2.1867473   0.03308353   0.11203625 
   14700   -944.71894    48.928955   -895.78999    1752.4577   -2699.2194    2.1665823  0.098192554     0.122462 
   14800   -946.16219    42.806248   -903.35594    1533.1646   -2819.6848    2.1715805   0.13879112   0.13294336 
   14900   -948.93385    45.307672   -903.62618    1622.7565   -811.73842    2.1829505   0.45458346   0.12831385 
   15000   -944.28745    46.459588   -897.82786    1664.0139    3917.4323    2.1799713   0.37924481   0.13410468 
   15100   -946.88013    49.707991   -897.17214      1780.36   -5810.5424    2.1592035   0.28224104   0.12061248 
   15200   -950.05106    45.896344   -904.15472    1643.8406   -6724.9943    2.1683348  0.075644609   0.12298271 
   15300   -951.01788    48.482689   -902.53519    1736.4741    3957.0723    2.1939522   0.05576269   0.12544929 
   15400   -944.98856    49.085349   -895.90321    1758.0592    6467.8645    2.1868492   0.18602618   0.12927799 
   15500   -945.45929    46.251659   -899.20763    1656.5667   -10787.012    2.1458682   0.11293904   0.11528472 
   15600    -946.5982    41.847016   -904.75118    1498.8083   -8927.8508    2.1517063   0.55699294   0.12504041 
   15700   -947.49066    47.007538   -900.48312    1683.6395    12919.952    2.2122874   0.20194563   0.12803944 
   15800   -946.58559    42.257189    -904.3284    1513.4993    9105.5314    2.1967829   0.22704424   0.11494649 
   15900   -950.48828    40.095528   -910.39276    1436.0764   -8906.7456    2.1656018   0.63669963   0.13472096 
   16000   -949.75636    46.090664    -903.6657    1650.8004   -4671.8807    2.1694577   0.17581863    0.1111402 
   16100   -946.93952    46.030343   -900.90917      1648.64    6720.4769    2.1940352   0.30811877    0.1109517 
   16200   -948.29789    40.471588    -907.8263    1449.5455      3194.03    2.1913949 0.0035033345   0.12106381 
   16300   -951.28018    43.622054   -907.65812    1562.3838   -7505.5969    2.1711998  0.047335752   0.10967813 
   16400   -946.55821    44.855027   -901.70319    1606.5444    1477.9991    2.1804658   0.16328263   0.12256262 
   16500   -948.41987      45.6053   -902.81457    1633.4165    4024.7961    2.1947981   0.25528136   0.13767834 
   16600   -952.52624    42.009364   -910.51688    1504.6231   -916.42931    2.1928268   0.39798684   0.10288913 
   16700   -946.59533    43.430052   -903.16528    1555.5069   -5185.6265     2.167656     0.171729   0.12154674 
   16800   -947.51285    45.962799   -901.55005    1646.2208    2734.0651    2.1898451     0.183934    0.1148035 
   16900   -949.49357    45.294487   -904.19908    1622.2843    3588.1486    2.1963502   0.12458285    0.1220608 
   17000   -950.74487    40.108147   -910.63672    1436.5284    -5260.356     2.180968   0.22651071   0.14705242 
   17100   -949.16469    41.610508   -907.55418    1490.3375   -5153.9169    2.1759782   0.12644623   0.13274093 
   17200   -947.14163    44.666295   -902.47533    1599.7847    12117.603    2.2129261   0.18787853   0.12219629 
   17300   -946.65199    44.576007   -902.07598    1596.5509    4102.3823    2.1898777  0.083644047   0.11900779 
   17400   -943.20122    38.800044   -904.40118    1389.6769   -13171.824    2.1399576   0.68866256   0.14233433 
   17500   -951.87735    42.480313   -909.39704    1521.4908   -2037.1565    2.1839505    1.8495531   0.14034029 
   17600   -947.26173    47.501591   -899.76014    1701.3347     15454.18    2.2153957   0.47484206   0.12897379 
   17700   -950.03202    49.736777   -900.29524     1781.391   -1336.4045    2.1803334    1.2275708   0.13698777 
   17800   -946.02428    43.977047   -902.04724    1575.0983   -10750.488    2.1532332    7.2475677    0.1455457 
   17900   -944.93656    40.703646   -904.23291     1457.857    100.27902    2.1784975    5.8258397   0.15088126 
   18000   -954.33054    42.604462   -911.72608    1525.9373    4793.7952    2.2090892     5.944049   0.13901857 
   18100   -948.93892    41.641183   -907.29773    1491.4361    654.48614    2.1879571    7.7361398   0.14767096 
   18200   -948.18929    44.882739   -903.30655     1607.537   -4371.9977    2.1731968    7.3417783   0.13524285 
   18300   -943.09542    41.503849   -901.59157    1486.5174   -93.237741    2.1756156    4.3056364   0.15076042 
   18400   -944.05708    44.165555   -899.89152      1581.85    4060.3516    2.1834169    7.1302373   0.13928666 
   18500   -939.41192    50.330659   -889.08127    1802.6617    2593.8425    2.1648397    7.7937945   0.14962014 
   18600    -946.2532    49.701903   -896.55129    1780.1419   -1797.7559    2.1720806    4.7167813   0.14781404 
   18700   -946.41094    45.862299   -900.54864    1642.6212   -6293.2753     2.157877    5.1798897   0.14146849 
   18800   -947.40832    44.466858   -902.94146    1592.6416    1953.5907    2.1821475    7.3365167   0.14929476 
   18900   -946.44157    43.319142   -903.12242    1551.5346    11450.295    2.2083477    7.6090033   0.12726315 
   19000   -941.19493    49.200176   -891.99475    1762.1719    -3546.278    2.1532047    6.1569089   0.15232593 
   19100   -942.67056    44.496363    -898.1742    1593.6984   -8011.2277    2.1482831    4.4443622   0.14578575 
   19200   -948.52888    46.737734   -901.79114    1673.9762    3398.7937    2.1888693    7.5354359   0.13871877 
   19300   -947.51174    44.765729   -902.74601    1603.3461    8300.7172    2.1996678    4.7515007   0.14216295 
   19400   -942.18393    48.543414   -893.64052     1738.649   -5763.3434    2.1477548    5.1633144   0.13368361 
   19500   -943.50311    43.733712    -899.7694     1566.383   -3753.9547    2.1553612    11.063384   0.12875076 
   19600   -944.97058    42.319096   -902.65149    1515.7165    7888.4126     2.191678    5.2493792   0.13184243 
   19700   -948.86415    47.618572   -901.24558    1705.5245    7073.0059    2.1961253    4.4277547   0.12968339 
   19800   -940.46526    47.165967   -893.29929    1689.3139   -10775.396     2.135592    5.5995152   0.14582843 
   19900   -946.58131    46.208421   -900.37289    1655.0181   -9548.0765    2.1497086    3.8591748    0.1363031 
   20000   -950.40138    48.597836   -901.80355    1740.5982    6932.6358    2.2005826    4.9129386   0.14419135 
   20100   -946.02038    44.783786   -901.23659    1603.9928    9334.3085    2.2005184    7.5658948   0.15757391 
   20200   -947.14057    43.229972    -903.9106    1548.3408   -12020.953    2.1430127    4.3769009   0.14587422 
   20300   -951.09546    40.152767   -910.94269    1438.1265   -7971.1645    2.1700094    6.7535082    0.1407027 
   20400   -947.59898    45.341368   -902.25762    1623.9634    9888.4002    2.2036727    6.0997035   0.14992677 
   20500   -947.72046    46.342703   -901.37775    1659.8276    1769.6965    2.1819924    5.3757813   0.14200017 
   20600   -948.28168    44.467463   -903.81421    1592.6633   -5784.9574    2.1633192    5.4800989   0.14344409 
   20700   -951.04596    41.775781   -909.27018     1496.257      1124.71    2.1905211    5.5272319   0.12694481 
   20800   -945.02599    44.887819   -900.13818    1607.7189    1514.1464    2.1801077    8.7331532   0.15347087 
   20900   -947.31574    45.874964   -901.44077    1643.0749   -2350.9366    2.1726508      6.99047   0.16492365 
   21000   -948.15707    40.143683   -908.01339    1437.8011   -2882.4299    2.1779761    6.4883808   0.15229513 
   21100   -946.59326     44.99205   -901.60121    1611.4521   -3082.5109    2.1754024    5.5459187   0.15457201 
   21200   -947.35681    48.019511    -899.3373    1719.8847    2518.1561    2.1829478    4.1196142    0.1360248 
   21300   -949.68208    45.339215   -904.34287    1623.8862   -1220.0643    2.1784191     5.207704   0.13719302 
   21400   -945.13833    41.837301   -903.30103    1498.4604    -763.4757     2.170621    7.0584562   0.14681669 
   21500   -945.13047    49.224737   -895.90573    1763.0516   -3682.9631    2.1649004     5.941188   0.15545296 
   21600   -948.86279    46.847485    -902.0153     1677.907    4081.6416    2.1888861    9.2051598   0.13638643 
   21700   -947.92434     44.77259   -903.15175    1603.5918    1865.3903    2.1836795    7.3865517   0.14986649 
   21800   -942.05907    48.422979   -893.63609    1734.3355   -7862.6866    2.1472752    5.2683458    0.1505741 
   21900    -944.0594    46.100376   -897.95903    1651.1483   -931.74238    2.1693819    5.5808322   0.15336825 
   22000   -949.01863    47.393204   -901.62543    1697.4527    8624.7082    2.2000804    4.4718728   0.13732841 
   22100   -948.57797    46.083998   -902.49398    1650.5617    782.52477    2.1827162    4.3894272    0.1397226 
   22200   -940.35489    45.290773   -895.06412    1622.1512   -9779.3152    2.1375237    5.5982671     0.151091 
   22300   -941.70953    46.043687   -895.66585    1649.1179    670.29456    2.1647315    4.2376311   0.14707953 
   22400   -946.39659    45.894768   -900.50183    1643.7842    9745.4066    2.2005154     5.638889   0.15226222 
   22500   -945.54603    43.241201   -902.30482     1548.743    2082.7887    2.1791707    7.2926999   0.15297015 
   22600   -950.49305    45.664256   -904.82879    1635.5281   -13469.463    2.1516842    5.6750366    0.1427244 
   22700   -948.41545    37.746485   -910.66897    1351.9422    4530.8728    2.1943888    7.2014692   0.14165727 
   22800   -944.90976    43.408653   -901.50111    1554.7405    9203.3798     2.199878    9.5928909   0.15480534 
   22900    -944.1713    42.607123   -901.56418    1526.0326   -566.28845    2.1679084    7.7634381    0.1610414 
   23000   -943.05265    39.080935   -903.97171    1399.7374   -5882.0336    2.1542273    7.1110239   0.15941361 
   23100   -952.22888    41.723128   -910.50575    1494.3711    4556.0768    2.2004296    4.9616405   0.14104467 
   23200   -950.30909    49.207553   -901.10154    1762.4361   -537.07387    2.1808472    5.1393472   0.14121231 
   23300   -943.10443     41.82006   -901.28437    1497.8429   -281.34867    2.1687061    5.5858437   0.15164102 
   23400    -946.9463    42.514786   -904.43151    1522.7254    1198.5053    2.1746066    5.2680018   0.14791773 
   23500   -951.74627    41.876365   -909.86991    1499.8595      1458.32    2.1943451    15.519236   0.14117945 
   23600   -943.77566    43.659462   -900.11619    1563.7236   -2069.2017    2.1637279    21.046283     0.157314 
   23700    -947.0165    45.859011   -901.15749    1642.5035   -2580.3878    2.1679915    20.120265   0.14148777 
   23800   -951.14342    47.954258   -903.18916    1717.5476    1158.3426    2.1857113    16.650681   0.12673746 
   23900   -956.28633    45.095154   -911.19117    1615.1449   -910.84351    2.1943631    22.748075   0.10440498 
   24000   -949.50335    44.493904   -905.00945    1593.6103   -6996.2526    2.1688142    21.113144   0.12338179 
   24100   -949.01154    46.649278   -902.36226     1670.808    2249.1818    2.1845075    24.837947   0.11974383 
   24200   -947.45844    44.802278   -902.65616    1604.6551    5012.5128     2.187778    20.607251   0.10929965 
   24300   -945.56985    36.625942    -908.9439    1311.8084   -1877.4248    2.1734371    21.845911   0.12434541 
   24400   -951.45445    42.939593   -908.51485    1537.9405   -6830.2824    2.1696207    19.582812    0.1116107 
   24500   -946.88614    44.640705   -902.24543    1598.8682     9656.484    2.2003744    21.642878   0.11482925 
   24600    -945.6112    43.571802    -902.0394    1560.5839    6758.7491    2.1908595    22.796149   0.11277176 
   24700    -947.7357    41.796998    -905.9387    1497.0169   -14255.444    2.1415814    25.955103   0.10953475 
   24800   -953.68085    42.376679   -911.30417    1517.7789   -4504.7053    2.1797512    22.677942  0.098634717 
   24900   -950.59511    48.674339   -901.92077    1743.3383    11773.295     2.207691    15.139627   0.12411431 
   25000   -947.27533    46.196001   -901.07932    1654.5732   -741.45852    2.1810525    12.642757   0.13619997 
   25100    -944.2656     41.20926   -903.05634    1475.9662   -9474.0653    2.1524049    14.248489   0.15137014 
   25200   -949.96276    40.381864   -909.58089    1446.3319   -1387.9136    2.1912233     21.22536   0.12701851 
   25300   -947.52453    44.091674   -903.43285    1579.2039    9244.9646    2.2033668    16.364005   0.11294057 
   25400   -949.39303    48.125921   -901.26711     1723.696   -761.69159    2.1817247    12.751116   0.12098293 
   25500   -941.42104    39.901884   -901.51916    1429.1408   -706.13374    2.1630873    16.675139   0.13073531 
   25600   -939.93175    44.105158   -895.82659    1579.6868    3620.3076    2.1749122    15.946311   0.14475803 
   25700   -940.20587    46.221703   -893.98416    1655.4938    5498.6229    2.1831257    14.686656   0.15088623 
   25800   -946.88079    45.280692   -901.60009    1621.7902   -2906.1967    2.1686871    29.739953   0.17112753 
   25900   -947.37271    46.885921   -900.48679    1679.2837   -1527.8527    2.1814447    56.799592   0.16293082 
   26000   -945.27361    49.590661   -895.68295    1776.1576   -4383.4524    2.1631832    50.473028   0.16001184 
   26100   -938.12418    46.188933   -891.93525    1654.3201   -1353.5547    2.1582195     62.36891   0.17834008 
   26200   -945.48342    44.884563   -900.59885    1607.6023    2176.3686    2.1884968    53.326499   0.15498378 
   26300   -949.37792    49.004028   -900.37389    1755.1466   -660.81123    2.1797474     46.35564   0.13265411 
   26400   -946.02477    42.026362   -903.99841    1505.2319   -7188.8236    2.1596531    48.334484   0.13706782 
   26500   -949.00307    39.489632   -909.51344    1414.3754   -1017.9761    2.1876603    48.092606   0.12902162 
   26600   -946.51205    46.392831   -900.11922     1661.623     11314.96    2.2102853    49.184609   0.15067113 
   26700   -947.64567    45.715295   -901.93038    1637.3561    846.76971    2.1833667    47.099128   0.11702803 
   26800   -950.53394    43.732979   -906.80096    1566.3567   -16690.748    2.1455978    45.530595   0.11673157 
   26900   -945.65435    44.558626   -901.09573    1595.9284    2132.6415    2.1817242    45.364164   0.12387667 
   27000   -944.13678    46.519075    -897.6177    1666.1446    14421.129    2.2101988      44.4524   0.13123513 
   27100   -949.33764    44.602111   -904.73553    1597.4859   -2850.1051     2.176215    47.021301    0.1296216 
   27200   -950.02491    47.333137   -902.69177    1695.3013   -10649.816    2.1557827    46.605194   0.13216229 
   27300   -944.10655    48.617166   -895.48939    1741.2906     1322.779    2.1720878    46.342706   0.12223798 
   27400   -948.64063    44.846102   -903.79453    1606.2247    8233.9836    2.2032194    50.664168   0.13677038 
   27500    -945.9255    43.141191   -902.78431     1545.161   -2062.8946    2.1748498     68.94413    0.1441588 
   27600   -941.90521    44.736543   -897.16866    1602.3007   -9679.0161    2.1450266    67.438213   0.16481768 
   27700    -950.4364    43.704841   -906.73156    1565.3489   -121.96527    2.1884718    67.760875   0.14710486 
   27800   -948.18026    45.158046   -903.02221    1617.3974    6655.0768    2.1950616    69.933078   0.12799972 
   27900   -944.16685    45.503738   -898.66311    1629.7789    961.11196    2.1689389    71.578525   0.15531558 
   28000    -946.6599    40.816563   -905.84333    1461.9013   -4344.2142    2.1726295    68.168005    0.1559807 
   28100   -948.51543    43.589507   -904.92593    1561.2181    2439.5172    2.1837795    65.853513   0.15741571 
   28200   -945.19254    47.102655   -898.08988    1687.0463    3020.1405    2.1809115    69.891085   0.13321985 
   28300    -947.8101    43.354375   -904.45572    1552.7965   -1470.7434    2.1774698    71.655223   0.13928528 
   28400   -946.16241    40.852119   -905.31029    1463.1747   -3690.3777    2.1689845    66.437277   0.14501266 
   28500   -943.15385    44.823673   -898.33018    1605.4214    549.88095     2.170785    74.060395   0.14989757 
   28600   -947.93017    44.052959   -903.87721    1577.8172    7622.2578    2.2019324    58.718807   0.13487375 
   28700    -948.4468    42.383422   -906.06338    1518.0205   -895.13683    2.1781733    60.782253    0.1443833 
   28800   -940.50801    41.671381   -898.83663    1492.5178   -13595.864    2.1357373    66.841608   0.14850916 
   28900   -945.63805    42.678319   -902.95973    1528.5826    4424.4741    2.1870109    68.935126   0.14419203 
   29000   -946.60726    42.618922   -903.98834    1526.4552    16893.547     2.221438    69.691117   0.11574669 
   29100   -944.48867    45.221542   -899.26713    1619.6716   -6751.4219    2.1568701    69.478037   0.13507604 
   29200   -947.37527    46.812221   -900.56305     1676.644   -15054.373    2.1417722    71.925765   0.14421741 
   29300    -949.9198    44.361771   -905.55803    1588.8778    6422.8402    2.1993434    63.001302   0.12183733 
   29400   -944.95326    45.159056    -899.7942    1617.4336    11271.767    2.2037871    69.643514   0.12586797 
   29500   -941.99972     42.03985   -899.95987     1505.715   -2351.9176    2.1618083    64.804969   0.11634994 
   29600   -950.73029    42.954873   -907.77542    1538.4878   -7446.0426    2.1680586    66.039442   0.10339503 
   29700   -945.70436    44.352195   -901.35217    1588.5348    5342.7019    2.1879894    59.842593   0.13092517 
   29800   -947.39006    47.561431   -899.82862     1703.478    5595.2899    2.1911077    66.264646   0.12730678 
   29900   -951.98509    43.705383   -908.27971    1565.3683   -3115.7871    2.1806261    66.362088   0.11867423 
   30000    -945.8645    43.635415   -902.22909    1562.8623   -4906.1079    2.1633778     67.77156   0.12177747 
   30100   -942.94921    43.224386   -899.72483    1548.1407    2783.6003    2.1804398    68.226049   0.13458876 
   30200    -950.7151    43.115627   -907.59947    1544.2454    6394.3543    2.2040259    62.641925   0.12717398 
   30300   -949.26671    48.186827   -901.07988    1725.8774   -4513.3726    2.1697078    67.202069   0.11402325 
   30400   -944.41448    43.731342   -900.68313    1566.2981    -4163.325    2.1636604    68.413308   0.12616378 
   30500   -948.01272    41.029853   -906.98287    1469.5405    3180.5508     2.193524    62.672156   0.10917242 
   30600   -947.67619    45.866715   -901.80948    1642.7794    7418.8497    2.1988602    67.667563   0.11243271 
   30700   -945.02839    45.566107   -899.46228    1632.0127   -3573.6708    2.1673198    66.829628   0.13420249 
   30800   -950.29336    43.455966   -906.83739    1556.4351   -13372.564    2.1546571    72.693325   0.12696323 
   30900   -947.17734    45.031667   -902.14568     1612.871    6852.8236     2.199666    77.745497   0.13221279 
   31000   -942.46113    46.824557   -895.63658    1677.0858    15302.636     2.209626    71.317937   0.14690297 
   31100   -949.09532    44.717227   -904.37809    1601.6089   -8163.9739    2.1636137    66.016539   0.11986647 
   31200    -948.7891    44.357979   -904.43112     1588.742   -12705.524    2.1519509    67.630516   0.13353199 
   31300   -947.58668    50.356644   -897.23004    1803.5924     3543.264    2.1868115    63.711846   0.11299225 
   31400   -949.97366    45.263591   -904.71007    1621.1777    8458.6599     2.205329    67.688234    0.1201455 
   31500   -948.67846    42.751336   -905.92713    1531.1978   -5514.7611    2.1698989    70.089213    0.1098833 
   31600   -946.12453    46.479605   -899.64492    1664.7309   -7498.2703    2.1556583    64.803164   0.11228805 
   31700   -950.16757    44.350611   -905.81696     1588.478    3221.7856    2.1932273    70.469428   0.11960074 
   31800   -948.13707    41.865801   -906.27127    1499.4812    6618.3559    2.1982869    69.876934   0.12520191 
   31900    -944.7321    44.608166   -900.12393    1597.7027   -2873.0169    2.1623574     69.49749   0.12573032 
   32000   -949.95973    45.391064   -904.56866    1625.7433   -5630.4956    2.1660456    66.371246   0.10818534 
   32100   -948.47299    41.681639   -906.79135    1492.8851    6532.7808    2.1978802    70.171186   0.12001396 
   32200   -944.47762    45.944854   -898.53277     1645.578      4872.52    2.1791677    64.364497    0.1213045 
   32300   -945.96898    41.834696   -904.13429    1498.3671   -3312.6857    2.1643529    65.817569   0.11581763 
   32400   -947.79938    41.042368   -906.75701    1469.9888    -2479.506    2.1704016     66.36463   0.12760816 
   32500   -944.69847    46.882993   -897.81548    1679.1788    3561.5583    2.1817948    73.137972   0.11252145 
   32600   -946.43546    44.009867   -902.42559    1576.2738      9696.02    2.1960521    69.729929   0.11562701 
   32700   -950.19522    43.466366   -906.72886    1556.8076   -8790.7539    2.1618578    66.979805    0.1142788 
   32800   -943.52887     44.80628   -898.72259    1604.7984   -13613.615    2.1362949     68.14722   0.13278599 
   32900   -946.70209    45.908307   -900.79378    1644.2691    13043.747    2.2087794    66.222888   0.13392858 
   33000   -949.09495    44.547845    -904.5471    1595.5423    13118.999    2.2166727    69.100826   0.12001895 
   33100   -948.69955    46.625771   -902.07378     1669.966   -13256.206    2.1478849    68.921492   0.12807073 
   33200   -944.88528    46.685202   -898.20008    1672.0946   -8854.0701     2.148421    67.377465    0.1262358 
   33300   -950.49117    43.551312   -906.93986      1559.85    9621.1543    2.2111029    68.405088   0.12776988 
   33400   -945.35182    43.386609   -901.96521     1553.951    6348.8297    2.1919504     67.83128   0.13908066 
   33500   -946.22869     45.74825   -900.48044    1638.5364   -8231.3605    2.1620212    70.264507    0.1287577 
   33600   -952.95257    44.463705   -908.48886    1592.5287   -4341.4898    2.1818285    67.829572   0.11340585 
   33700    -949.3589    46.372749   -902.98615    1660.9037    1389.7734    2.1891103    66.094652   0.13084779 
   33800   -945.07322    45.294193   -899.77903    1622.2737     3310.628    2.1858628    66.122397   0.14327913 
   33900   -951.55001    44.094853   -907.45515    1579.3177   -5098.5455    2.1760502    64.787034   0.13649237 
   34000   -945.18728    42.954144   -902.23313    1538.4617   -2774.7087    2.1681402    65.162345   0.12976235 
   34100   -945.88193    46.870864   -899.01106    1678.7444    4474.8496     2.183715    70.919595   0.12781407 
   34200   -949.76007    43.757191   -906.00288    1567.2239    3113.3434      2.19203    70.039203   0.13975292 
   34300   -944.88539     42.73564   -902.14975    1530.6356    -5265.329    2.1614465    71.622114   0.13954277 
   34400   -946.12929    47.129766   -898.99952    1688.0173   -5155.4282    2.1607535    68.994301   0.14698711 
   34500   -951.10703    45.629254   -905.47778    1634.2744     7128.813    2.2047171    72.135146   0.12398166 
   34600   -947.22716    44.471421   -902.75574     1592.805    6032.1029    2.1936257    69.490827   0.12361394 
   34700   -942.08374     43.33024    -898.7535    1551.9321   -11604.544    2.1359994    67.374148   0.13788331 
   34800   -947.76834    39.883577   -907.88476    1428.4851   -5710.0003    2.1704805    67.738101   0.14218642 
   34900   -950.91676    47.740136   -903.17662    1709.8786    12799.887    2.2161948    67.632521   0.13280158 
   35000   -945.41322    46.380348   -899.03287    1661.1759    4304.4007    2.1852485    71.906092    0.1377313 
   35100    -948.9259    43.690801    -905.2351    1564.8461   -13957.786    2.1511177    75.160058   0.14662584 
   35200   -947.52214    41.641022   -905.88112    1491.4304   -3430.2663    2.1746162    70.103194   0.12483008 
   35300   -943.79874    45.490579   -898.30816    1629.3076     6861.994    2.1906664    66.639312   0.14475755 
   35400   -949.82244    45.270399   -904.55204    1621.4215    1546.5614    2.1863008    69.504167   0.11417828 
   35500   -947.92083    40.766001   -907.15483    1460.0903   -4981.1876    2.1713415    66.379387   0.12190739 
   35600   -943.38197    44.437981   -898.94399    1591.6073   -1509.6859    2.1642888    69.591877   0.13975837 
   35700   -947.08581    43.172435   -903.91337    1546.2801    5208.0089    2.1909839     63.91608   0.12363221 
   35800   -952.09601    45.428498   -906.66751    1627.0841    349.00668    2.1876822    69.078128   0.11928064 
   35900   -944.78229    46.556649   -898.22564    1667.4903   -7069.0093    2.1538212    69.030895   0.13586398 
   36000   -947.74321    43.306499   -904.43671    1551.0818   -147.69085    2.1768407    70.169232   0.13356077 
   36100   -946.11172    41.387008   -904.72471    1482.3325     11181.22    2.1986877    65.684651     0.124147 
   36200   -944.21392    47.055083   -897.15884    1685.3424    389.60466    2.1704982    73.003832   0.13103436 
   36300   -947.78915    43.365617   -904.42353    1553.1992   -6576.1885    2.1597453    69.771129   0.12162509 
   36400   -946.38522    41.276282   -905.10894    1478.3667   -980.52832    2.1759285    64.402058   0.11852321 
   36500   -942.98607    45.758899   -897.22717    1638.9178     11300.71    2.1996844    66.473921   0.13570151 
   36600     -944.314    40.245004   -904.06899    1441.4301    6176.4285    2.1890103    68.605796   0.11800583 
   36700   -948.36697    41.502957   -906.86401    1486.4854   -15005.066    2.1431452    65.440608   0.11831502 
   36800   -944.87468    44.827227   -900.04745    1605.5487   -2551.7063    2.1666089    75.779644   0.13425676 
   36900   -945.78614    43.980224   -901.80591    1575.2121    19989.448    2.2207688    67.513367   0.11010251 
   37000   -950.31968    42.561417   -907.75826    1524.3956    2525.3254     2.191641     70.49992   0.12927677 
   37100    -943.1714     42.27775   -900.89365    1514.2357   -10734.277    2.1471902    63.072241    0.1380273 
   37200   -944.23775    43.019106   -901.21865    1540.7884    1590.4087     2.174063    68.414278    0.1267751 
   37300   -948.51974    41.474717   -907.04503     1485.474    10068.854    2.2061724    68.631766   0.10991108 
   37400   -944.72082    45.582654   -899.13817    1632.6053    424.85192    2.1715869    66.921031   0.11451711 
   37500    -943.0027    40.938406    -902.0643    1466.2652   -3658.3336    2.1612095    67.572323   0.11347475 
   37600   -947.85169    40.832902   -907.01879    1462.4865     1679.057    2.1856639    71.373709    0.1209548 
   37700   -942.78845    44.361387   -898.42706     1588.864    6227.8641    2.1865908    66.173257    0.1280612 
   37800   -949.49841    48.155557   -901.34285    1724.7574   -1562.4896    2.1791605    68.360682   0.11369521 
   37900   -949.86348    42.874568   -906.98892    1535.6115   -5498.2033    2.1686334    68.242036    0.1210697 
   38000   -945.37679    45.865247   -899.51155    1642.7268    344.11015    2.1703398    63.846028   0.12751265 
   38100   -947.16399    46.573332   -900.59065    1668.0879    8311.1754     2.197132    66.137661   0.12855082 
   38200   -951.39449     44.79478   -906.59971    1604.3866   -1402.6095     2.182169    67.402305   0.12317931 
   38300   -944.96726    43.991071   -900.97619    1575.6006   -10520.145    2.1505336    67.188554   0.13985889 
   38400   -943.17906    44.022937   -899.15612    1576.7419    1655.8694    2.1734585    63.536103   0.12585548 
   38500   -950.22897    44.398112   -905.83086    1590.1794    14184.143    2.2227509     69.37525   0.12395281 
   38600   -947.85195    47.321958   -900.52999    1694.9009   -3494.6582    2.1724137    66.728134   0.12283086 
   38700   -941.56345    40.946046    -900.6174    1466.5389    -16965.81    2.1291471    66.106743    0.1518465 
   38800   -949.13612    42.225715   -906.91041     1512.372    2173.8271    2.1912781    69.302059   0.13329338 
   38900   -951.52977     47.94406   -903.58571    1717.1824     13812.44     2.218298    66.358769    0.1139047 
   39000   -946.20352    46.772522     -899.431    1675.2221   -4784.8579    2.1657866    66.845461   0.15083762 
   39100   -949.29032    42.450464   -906.83985    1520.4217   -8032.6725    2.1631682    69.419874   0.12350228 
   39200   -948.99389    44.906288   -904.08761    1608.3804    2081.3775    2.1871857    66.427756   0.12560557 
   39300   -947.70419    50.125716   -897.57847    1795.3214    4156.2092    2.1842442    68.207377   0.12134762 
   39400   -951.05598    45.411281    -905.6447    1626.4674   -581.96939     2.180175    70.026222   0.11677553 
   39500   -946.82921    42.481666   -904.34755    1521.5392   -4297.4146    2.1694081    63.601048   0.13755755 
   39600    -946.6757    48.698068   -897.97763    1744.1882   -1895.7321    2.1732879    69.429509   0.14487815 
   39700   -948.29695    42.610416   -905.68653    1526.1506     5556.022    2.1985894    71.312426   0.13936132 
   39800   -947.41817    43.140832   -904.27733    1545.1481   -714.13352    2.1778377    65.177368   0.12253535 
   39900   -942.75153    43.900823    -898.8507    1572.3683   -4796.8709    2.1565723    70.954224   0.14634222 
   40000   -946.21892    39.072899   -907.14602    1399.4495    3650.4652    2.1914806    67.877339   0.14194119 
   40100   -950.84591    47.018551   -903.82736     1684.034    4822.9255    2.1962661    66.671792   0.14412378 
   40200   -942.20445    43.158162   -899.04629    1545.7688   -1622.6782    2.1640999    68.220137   0.13009926 
   40300   -950.51978    43.363915   -907.15586    1553.1382    -9651.914    2.1605401    68.845293   0.11732547 
   40400   -948.40058     44.00916   -904.39142    1576.2485    3800.4351    2.1915459    74.499949   0.14778294 
   40500   -946.31356    48.733897   -897.57967    1745.4714    10065.709    2.2017319     69.55344   0.14352757 
   40600   -949.00161    44.109759   -904.89185    1579.8516   -7699.6282    2.1655831    71.365345   0.13414985 
   40700   -948.04759    42.816245   -905.23134    1533.5226    -13326.61    2.1450311    65.914027     0.127432 
   40800   -946.98992    49.331236   -897.65869     1766.866    2936.4237    2.1838288    68.490977   0.13316769 
   40900   -950.12716    47.374184   -902.75297    1696.7715    9076.1278    2.2059238    68.898601   0.13086893 
   41000   -946.04389    38.958128   -907.08576    1395.3389   -2766.3373    2.1720445     70.55863   0.13542485 
   41100   -945.68555    47.261845    -898.4237    1692.7479    -7820.671    2.1524652    67.457341   0.13113541 
   41200   -946.23374    43.568995   -902.66474    1560.4834    5977.8175    2.1894849    69.115398   0.12175065 
   41300   -952.88686    47.034439   -905.85243     1684.603    2457.0435    2.1930101    69.497699   0.10900773 
   41400   -948.42951    49.469027   -898.96049    1771.8012   -5682.5316    2.1641269    66.582378   0.12786019 
   41500   -949.82013    47.220002   -902.60013    1691.2492   -3347.9924    2.1677175    68.560715   0.11967568 
   41600   -950.05423    43.753069   -906.30117    1567.0763    3944.6582    2.1893201    65.443028   0.11632125 
   41700   -947.76805    48.389605   -899.37844    1733.1402    2473.4514    2.1817652    68.611209   0.12009218 
   41800      -948.14    44.788138   -903.35186    1604.1487   -4029.0126    2.1655026    67.263306   0.11169199 
   41900   -947.31855    39.526127   -907.79242    1415.6825   -2431.0477    2.1731994    65.971727   0.12245159 
   42000   -945.88689    46.159095    -899.7278    1653.2514    2544.3581     2.178493    65.421026   0.12043704 
   42100    -946.2718    42.916191   -903.35561    1537.1023    6884.9276    2.1914629    65.393847    0.1134143 
   42200   -949.53428    41.042225   -908.49206    1469.9837   -3909.3595    2.1731577    70.140534   0.11657231 
   42300   -947.30381    47.149415   -900.15439    1688.7211   -9695.0695    2.1476571    72.814871   0.11440445 
   42400   -947.34929     45.17525   -902.17404    1618.0136    10028.305    2.1999546    70.466813   0.12020111 
   42500   -951.09087    45.194732   -905.89613    1618.7114    10424.503    2.2132584    68.754868   0.11832647 
   42600   -942.08119    43.451776   -898.62942     1556.285   -11028.583    2.1399676    62.870766   0.13201868 
   42700    -945.8957    45.128545   -900.76716    1616.3408   -10339.891    2.1477863    71.440336   0.12714512 
   42800   -951.11762    46.227874   -904.88974    1655.7148    8039.8373    2.2046329     64.99628   0.10681863 
   42900   -947.18684    46.686389   -900.50046    1672.1371    6565.2387    2.1933165    67.556815   0.11591525 
   43000   -946.25412    47.153979   -899.10014    1688.8845   -9270.5363    2.1483023    70.573026   0.12380534 
   43100   -945.39669    38.390479   -907.00621    1375.0077   -823.35484    2.1723412    70.308862   0.10906915 
   43200   -947.20954    45.575039    -901.6345    1632.3326    5350.2059    2.1900103    66.447921    0.1131792 
   43300   -944.83263    45.648499   -899.18413    1634.9637    1704.5447    2.1746164    69.219297   0.12429834 
   43400   -946.49632    38.175524   -908.32079    1367.3088     1668.942    2.1799193    66.723265   0.12713631 
   43500   -947.59606    44.478968   -903.11709    1593.0753   -3048.8763    2.1693191    68.901377   0.11412615 
   43600   -944.18623    44.681404   -899.50483    1600.3259    3397.7424    2.1782388    65.805567    0.1306209 
   43700   -948.80953     40.79711   -908.01242    1461.2045    5100.3342    2.1931124    66.033655   0.10765037 
   43800   -949.32373    46.347549   -902.97619    1660.0011   -5380.3693    2.1663806    64.324454   0.10591279 
   43900   -947.60075    47.060668   -900.54009    1685.5424   -4603.6114    2.1640467    66.089258   0.12243685 
   44000    -949.5811    42.588381   -906.99272    1525.3614    5776.7608    2.1988769    68.329411   0.11638051 
   44100   -948.35616    44.111616   -904.24455    1579.9181      4554.43     2.193044     67.05638    0.1147891 
   44200   -947.86016    47.943983   -899.91618    1717.1796    -11812.96    2.1472338    64.735551   0.11231223 
   44300   -947.09358    40.802214   -906.29136    1461.3873    -8152.199    2.1596208    70.144173   0.12056368 
   44400   -946.82099    43.504166   -903.31683    1558.1615    13064.547    2.2125003    67.456892   0.12025492 
   44500   -946.34243    49.978225    -896.3642    1790.0388    5301.3086    2.1871832     70.00128   0.11147989 
   44600   -948.61514    44.368495   -904.24665    1589.1186   -11604.877    2.1513632    68.909265   0.11463866 
   44700   -948.88459    44.327118   -904.55747    1587.6366   -7556.2402    2.1644281    65.531274   0.11231716 
   44800   -943.67541    47.251573   -896.42384      1692.38    9399.7775    2.1924117     64.65676    0.1246545 
   44900    -950.9206    47.212774   -903.70782    1690.9903    1409.3889    2.1891818    66.755209   0.11596352 
   45000   -949.74599    43.635576   -906.11041    1562.8681   -7673.4498    2.1634325    70.215405   0.11450382 
   45100   -942.11176     43.08259   -899.02917    1543.0621   -524.78653    2.1656832    65.576299   0.13364628 
   45200   -946.83762     41.96613   -904.87149    1503.0746    5373.8363    2.1949208    64.264607   0.12344162 
   45300   -947.07128    40.676727   -906.39455    1456.8929    3183.8371    2.1850182    67.343729   0.12395761 
   45400   -947.20201    47.255138   -899.94688    1692.5077   -4535.6939    2.1624426    68.685198   0.11853685 
   45500   -946.49698    41.792376    -904.7046    1496.8513    1071.1302    2.1791571    66.574939   0.12186599 
   45600   -946.95247    40.165512   -906.78696     1438.583    5429.6401    2.1924254    66.215546   0.11356196 
   45700   -945.89638    46.481659   -899.41472    1664.8045   -714.85515     2.169125    65.800038   0.12005391 
   45800   -948.49069    44.132148   -904.35854    1580.6535   -3506.4233    2.1680923    70.410715   0.10707126 
   45900    -952.4893    45.372301     -907.117    1625.0713   -1019.3999    2.1870249    72.832777   0.11127126 
   46000   -947.47536    49.325415   -898.14995    1766.6575     4634.648    2.1865166    68.991334   0.12662125 
   46100   -945.35769    42.048244   -903.30944    1506.0156   -477.61184    2.1720199     68.05628   0.12976075 
   46200   -947.88425    40.049443   -907.83481    1434.4258   -9686.0016    2.1569733    68.367456   0.13803277 
   46300   -946.56865     47.44546   -899.12319    1699.3243    4367.4356    2.1793677    69.006894   0.10904902 
   46400   -949.58649    48.674041   -900.91244    1743.3276    11470.917    2.2069643    69.204196   0.11623784 
   46500   -948.79389    41.957023   -906.83687    1502.7484   -5941.8267    2.1680836    66.891848   0.10621425 
   46600   -942.82304    42.333086   -900.48995    1516.2176   -10438.324    2.1440435    66.680403   0.13483421 
   46700   -943.76993     44.69186   -899.07807    1600.7004    5251.9916    2.1846843    67.097021   0.11530557 
   46800   -949.65282    44.088713   -905.56411    1579.0978    11502.429    2.2079363    68.867935   0.11535667 
   46900   -947.17863    45.934613   -901.24402    1645.2113   -4464.4871    2.1651919    74.485492   0.13376489 
   47000   -941.31066    41.620739   -899.68992    1490.7039   -5587.5601    2.1514664    67.240605   0.15226396 
   47100   -948.38201    41.356841   -907.02517     1481.252    5878.3842    2.1953822    75.324116   0.13814228 
   47200   -946.82282    46.465686   -900.35714    1664.2324    5526.8928    2.1891707    69.501407    0.1230417 
   47300   -949.08407    48.332107   -900.75196    1731.0808   -4931.7445    2.1661292    67.262411   0.12497349 
   47400   -947.42953    39.369596   -908.05993    1410.0762   -1454.6318    2.1783728    65.977387    0.1086921 
   47500   -943.82422    42.796161   -901.02805    1532.8033    3062.9866    2.1800527    67.498535   0.12928326 
   47600   -946.12862    45.252116    -900.8765    1620.7667    1904.9745    2.1819516    64.128115   0.11238452 
   47700   -950.27746    42.278865   -907.99859    1514.2756    309.38496     2.184301     70.18548   0.11685776 
   47800   -949.55411     48.95845   -900.59566    1753.5141   -6070.5448    2.1647376    74.669043   0.12842649 
   47900   -944.31801    43.272949   -901.04506    1549.8801    3476.2626    2.1797535    70.766483   0.13915855 
   48000   -951.07054    44.202961   -906.86758    1583.1898    3777.2058    2.1960631    72.676507   0.13968016 
   48100   -946.18052    47.085413   -899.09511    1686.4287   -2372.8505    2.1647115    71.409111   0.12678613 
   48200   -947.20193    46.193801   -901.00813    1654.4944   -5868.5685    2.1616732    66.737051   0.12882779 
   48300   -947.38493    41.198284   -906.18664    1475.5731    7358.8435    2.2001885    67.674704   0.11757288 
   48400   -942.40109    43.074049   -899.32704    1542.7562    12033.472    2.1979867    65.076528   0.13279481 
   48500   -945.49779    44.974078   -900.52372    1610.8084   -7438.8065    2.1530081    66.669882   0.10783779 
   48600   -948.33559    40.650418   -907.68517    1455.9506   -8662.6275    2.1614413    72.829229   0.13146552 
   48700   -948.05193    46.793008   -901.25893    1675.9559     7007.525    2.1993071    73.626373    0.1385692 
   48800   -946.81952    47.179574   -899.63994    1689.8012    7752.1202    2.1961754    74.958606   0.13981112 
   48900   -948.64722     40.68316   -907.96405    1457.1233   -7186.9998     2.168988    72.494733   0.13623801 
   49000   -942.40215    39.883968   -902.51818    1428.4991   -4960.3943    2.1579617    62.993253   0.12157315 
   49100   -944.93917    46.259333   -898.67984    1656.8415    6515.3919    2.1889057    64.176121   0.12745453 
   49200   -950.03316    43.152135   -906.88102     1545.553    5346.9488    2.2006207    65.173476   0.11799553 
   49300   -944.63579    42.720289    -901.9155    1530.0858   -4908.5926     2.163256    68.827469   0.12275627 
   49400   -947.08394    47.241797   -899.84214    1692.0298   -7329.2903    2.1591416    75.060004   0.11892264 
   49500   -950.12941    43.525792   -906.60362     1558.936    6120.2546    2.2012531    75.168652   0.12802885 
   49600   -946.19408    43.860752   -902.33332    1570.9331    5450.8705    2.1946989    73.430246    0.1421804 
   49700   -944.97182    45.372179   -899.59964    1625.0669   -6174.5728    2.1593671    75.819106   0.14239243 
   49800   -947.67868    40.684332   -906.99434    1457.1652   -2555.8504    2.1715102    67.359182   0.10623996 
   49900   -947.82155    45.218677   -902.60288     1619.569    4403.0294    2.1903731    68.910421   0.10309419 
   50000   -943.79453    45.461554   -898.33297     1628.268     4410.905    2.1830206    66.774327   0.11218641 
   50100   -948.07723    41.353883   -906.72335    1481.1461    -3405.602    2.1726485    63.436602   0.10943917 
   50200   -945.25335    42.771863   -902.48149     1531.933     -5131.02    2.1620261     69.27124   0.11863623 
   50300   -943.38793    45.384242   -898.00369     1625.499    5382.7008    2.1806294    68.628396    0.1147248 
   50400   -950.48171    44.424043   -906.05767    1591.1081    8485.0097    2.2071774    73.295631   0.13387454 
   50500   -945.89405    43.744185   -902.14986    1566.7581   -9817.8851    2.1509968    72.684829   0.12772447 
   50600   -947.34115    47.175533   -900.16562    1689.6565   -17452.504    2.1319693    69.335334   0.13643211 
   50700   -950.80791    45.700147   -905.10776    1636.8135    13605.362    2.2164676    68.191586   0.11607533 
   50800   -951.60338    46.111447   -905.49194    1651.5448    12373.937    2.2183204    69.742727   0.10334834 
   50900   -944.37923    44.991221     -899.388    1611.4224    -10846.52    2.1440675     74.00121   0.12968498 
   51000   -948.60235    43.547176   -905.05518    1559.7019   -9791.7927    2.1556025    73.476424    0.1032587 
   51100   -948.12853    42.925764   -905.20277    1537.4452    9570.2347     2.202859    69.471618   0.12030744 
   51200   -947.24671    49.832821   -897.41389    1784.8309     5398.363    2.1874387    70.688637   0.13187387 
   51300   -950.40374    46.311389   -904.09235     1658.706   -6584.5891    2.1652142    65.848576   0.12284283 
   51400   -949.30239    43.274357   -906.02803    1549.9305   -6131.2573    2.1679447    71.250708   0.13139208 
   51500   -947.63918    50.028292   -897.61089     1791.832    1393.6032    2.1816693    66.778938   0.12230589 
   51600   -948.77136    45.683451   -903.08791    1636.2156    7043.7405    2.1986042    64.935529   0.10485973 
   51700    -949.8574    43.499974   -906.35743    1558.0113   -3026.5174    2.1752055    64.429156   0.11270323 
   51800   -944.09415    45.533695   -898.56045    1630.8518   -7384.0978    2.1532141    68.715047   0.13553321 
   51900   -949.15894    45.076355   -904.08259    1614.4716    4470.9422    2.1919129    69.412984   0.11229311 
   52000   -949.89127    44.232073    -905.6592    1584.2325    5017.3131    2.1973308    69.675571   0.11727581 
   52100   -948.16728    48.562648   -899.60463    1739.3379   -6790.0719    2.1588002    69.703382   0.11985505 
   52200   -945.02422    42.661686   -902.36253    1527.9869   -4509.5944     2.162859    68.944097   0.13185051 
   52300   -949.28588    42.491914   -906.79396    1521.9063    5528.3159    2.2005522    67.140346   0.12778677 
   52400    -948.3547    49.381994   -898.97271    1768.6839    6776.1937    2.1915647    67.010114   0.11789622 
   52500   -948.48144    45.646444     -902.835    1634.8901   -8699.3466    2.1568281    66.946043   0.10494773 
   52600   -948.40158    39.768237   -908.63334     1424.354   -8443.0238     2.160277    65.692343   0.12256008 
   52700   -947.06345    46.448834   -900.61462    1663.6288    10745.173    2.2064595    64.168849   0.13134943 
   52800   -945.70945    44.888233   -900.82121    1607.7337    11888.197    2.2074719    64.404802   0.12044628 
   52900   -946.19771    38.212395   -907.98531    1368.6294   -9790.6396    2.1562179    72.025161   0.12147103 
   53000   -944.19525    42.613963   -901.58129    1526.2776   -8995.5165    2.1556079    65.622739   0.12074986 
   53100   -944.60104    45.869309   -898.73173    1642.8723    6404.5368    2.1924793    71.404602   0.13221685 
   53200     -952.375    46.361513   -906.01349    1660.5013    2966.5455    2.1972859    69.332688   0.12687588 
   53300   -945.59698    44.698622   -900.89836    1600.9425   -2836.9267    2.1658213    64.970334   0.12350714 
   53400   -944.34501    45.233248   -899.11176    1620.0909   -3581.6861    2.1637869    65.003482   0.12225139 
   53500   -950.76078    44.487388   -906.27339    1593.3769    2765.9314    2.1930894    63.676542    0.1108353 
   53600   -948.94088    48.212356   -900.72852    1726.7917     2378.319    2.1858038    66.772254   0.11032828 
   53700   -946.32723     46.69189   -899.63534    1672.3342   -4105.6616    2.1616936    65.392393   0.12486285 
   53800    -949.6147    42.008826   -907.60587    1504.6038   -3233.4765    2.1795985    63.613332   0.12549925 
   53900   -947.13165    46.046998   -901.08465    1649.2365    5865.1158     2.187998    66.407909   0.12659223 
   54000    -947.3437    47.146421   -900.19728    1688.6138   -638.58446     2.175659    75.596655   0.11906986 
   54100   -951.45765    42.899907   -908.55775    1536.5191   -6306.3413    2.1728529    74.594875   0.12693802 
   54200   -949.10117    46.816327   -902.28485     1676.791   -4023.3359    2.1697702    66.044874   0.12472241 
   54300    -943.5204    44.304915   -899.21549    1586.8414    9797.0055    2.1939481    66.743276   0.13571749 
   54400   -951.98602    44.525734   -907.46029    1594.7503     2870.807    2.1946636    68.205291   0.11735008 
   54500   -943.03774    41.617326   -901.42041    1490.5817   -9488.1031    2.1435563    68.741085    0.1337968 
   54600   -943.33322     43.06098   -900.27224    1542.2881   -1288.4919    2.1665376    68.061317   0.13033608 
   54700   -946.72544    42.234456   -904.49098     1512.685    16603.754      2.21591    70.995632    0.1269687 
   54800   -950.78156    45.254238   -905.52732    1620.8427      1319.38    2.1896199    69.032444   0.13976985 
   54900   -940.86387    42.974219   -897.88965    1539.1807   -12479.415    2.1305067    67.558732   0.15432519 
   55000   -949.91745    44.448706   -905.46874    1591.9915   -2388.3431    2.1788784    73.356222   0.13855884 
   55100   -947.98428    44.362944   -903.62134    1588.9198    10891.854    2.2038222    70.098255   0.12720956 
   55200   -943.87223    46.416415   -897.45582    1662.4677    1489.1506    2.1704293    74.079557   0.13061364 
   55300   -948.66014    43.382259   -905.27788    1553.7952   -6952.2299    2.1664272    67.272241   0.11345834 
   55400   -948.41824    43.341217   -905.07702    1552.3252   -1126.6185    2.1786195    66.116513   0.12599619 
   55500   -942.51249    44.583927   -897.92856    1596.8346    6802.1972    2.1838403    71.336837   0.14050738 
   55600   -949.04431    44.708045   -904.33627      1601.28    40.962385    2.1814542    74.786443   0.12966621 
   55700   -949.10019    42.237067   -906.86312    1512.7786   -3435.0796     2.172549    66.762491   0.12741707 
   55800   -944.72793    44.657489   -900.07044    1599.4693     455.2499    2.1733074      71.5828   0.14706294 
   55900   -948.71036    44.683229   -904.02713    1600.3912    3740.2034    2.1917568    67.977333   0.12956355 
   56000   -951.56045    43.461575   -908.09887     1556.636    776.46542    2.1848744    66.907037   0.11383633 
   56100   -946.74533    46.390325   -900.35501    1661.5332   -7421.9686    2.1580405    65.052056   0.11845324 
   56200   -945.93757    42.640777    -903.2968     1527.238    2694.8422    2.1818191    66.339995   0.11393034 
   56300   -950.36503    43.177988   -907.18704    1546.4789    8913.6702    2.2120227    70.258176    0.1255975 
   56400   -943.87727    45.759588   -898.11768    1638.9425   -2278.6914    2.1621915    72.275191   0.12717347 
   56500   -948.24423    45.103681   -903.14055    1615.4503   -11937.111     2.148434    72.382067   0.13891086 
   56600    -951.5565    46.205724   -905.35078    1654.9215    6044.5315    2.1977553    70.011029   0.11378344 
   56700   -946.41266    50.094686   -896.31797      1794.21     15666.71    2.2049227    77.905714   0.15534007 
   56800   -948.63528    49.162532   -899.47275    1760.8236   -6944.1434     2.162857    79.360016   0.15083782 
   56900   -946.55802    41.599941   -904.95808     1489.959   -8616.2836    2.1550591    76.119857   0.15632473 
   57000   -948.30395    48.363809   -899.94014    1732.2162    2131.2008    2.1860593    78.374683   0.14898045 
   57100   -943.99287    48.359715   -895.63315    1732.0696    4712.3585    2.1833476    73.574278   0.16624774 
   57200    -948.6906    44.185148   -904.50545    1582.5518   -5624.2335     2.171957      74.4276    0.1449209 
   57300   -948.60924    46.487228   -902.12201    1665.0039   -8254.5257    2.1608071    75.792788   0.14437004 
   57400   -945.95475    49.996897   -895.95785    1790.7076    -1785.221    2.1696679    81.834747   0.15252054 
   57500   -948.51115      43.4195   -905.09165     1555.129    7381.0064    2.1967709    84.818648   0.15830326 
   57600   -946.85268    43.198003   -903.65468    1547.1958   -2779.1382    2.1706037    64.466648   0.16264767 
   57700   -944.99051    45.595711    -899.3948     1633.073   -2864.9563    2.1660891    70.965431   0.16289141 
   57800    -949.5278    43.652165   -905.87563    1563.4622    3521.9064    2.1914409     72.85026   0.14375759 
   57900   -946.31549    40.274042   -906.04145    1442.4701    2441.1703    2.1873717    73.278224   0.15161813 
   58000   -943.53495    43.708139   -899.82681     1565.467   -1195.9362    2.1659317    78.787863   0.14404865 
   58100   -946.12237    43.088791   -903.03358    1543.2842   -1788.9005    2.1697845    79.226639   0.12964601 
   58200   -949.17345    42.052262   -907.12119    1506.1595      4906.08    2.1916897    77.562842   0.13202169 
   58300   -942.61499    43.869828   -898.74516    1571.2582    1226.9288    2.1687793     76.33962   0.13687335 
   58400   -947.16919    44.591939   -902.57725    1597.1215   -2535.5414    2.1714118    81.735609   0.15585645 
   58500   -949.50248    43.506225   -905.99626    1558.2352    99.598699    2.1852329    71.120917   0.14422785 
   58600   -939.24165    42.916771   -896.32488    1537.1231      2410.83    2.1639404    78.782196   0.16187715 
   58700   -943.43747    41.928107   -901.50937    1501.7127    3575.0219     2.177367     75.26322   0.15794906 
   58800   -949.64655    45.176181   -904.47037     1618.047   -3602.2521    2.1758976    75.235399   0.13706688 
   58900   -941.27238    44.452887   -896.81949    1592.1412   -482.35614    2.1612121    82.787103    0.1521152 
   59000    -946.4582    44.409475   -902.04872    1590.5863   -302.64716    2.1755265    76.945898   0.15759022 
   59100   -945.75468    41.171143   -904.58353     1474.601    3255.7823    2.1786057    76.401427    0.1382958 
   59200   -942.83924    45.044267   -897.79497    1613.3223    2871.8299    2.1727438    86.699424   0.14331916 
   59300   -943.62553    40.641477   -902.98405    1455.6303    2143.6019    2.1748672    74.959535   0.13537101 
   59400   -949.01077    42.853726   -906.15704    1534.8651   -3088.3701    2.1761098    79.892016   0.13362164 
   59500   -948.22923    49.083815   -899.14541    1758.0043   -2556.6474    2.1710178    70.158004   0.14035563 
   59600    -946.6002     44.74777   -901.85243    1602.7028    6366.1565    2.1910449    77.881694   0.14520584 
   59700   -949.24299    42.615919   -906.62707    1526.3477    568.86212    2.1850302    72.664576   0.15034081 
   59800   -944.17606    44.810261    -899.3658    1604.9411   -7265.4359    2.1482296    81.958017   0.16021049 
   59900   -947.20351    45.587878   -901.61563    1632.7925    1.5150197    2.1766823    74.505826   0.14790179 
   60000   -947.01893    41.837312   -905.18162    1498.4608     14014.12    2.2123565     79.59232   0.12864593 
   60100   -942.14502    44.746775   -897.39825    1602.6672    2322.9408     2.168174    76.839466   0.14164653 
   60200   -948.75036    48.009933   -900.74042    1719.5417   -13391.496    2.1474884    81.239254   0.13478857 
   60300   -948.41488    42.994879      -905.42    1539.9206   -644.80664    2.1783234     93.11928   0.12915972 
   60400   -944.32833    46.210084   -898.11824    1655.0776    10043.229    2.2003459    68.039857   0.15994443 
   60500   -946.46896    46.848039   -899.62092    1677.9269   -831.04842    2.1737195     84.50762   0.14213757 
   60600   -948.52633    41.890489   -906.63585    1500.3654   -9843.0072    2.1591605    78.189635   0.14159413 
   60700   -947.57107    47.140476    -900.4306    1688.4009    1043.5263    2.1748529    70.767086   0.14438071 
   60800   -944.67894     46.34195   -898.33699    1659.8006    11165.066    2.1941808    75.191751   0.14637544 
   60900   -949.02363    41.955848   -907.06779    1502.7063     1611.013    2.1905128    75.710649   0.14829758 
   61000   -946.61631    45.083506    -901.5328    1614.7277   -9256.2127    2.1579075    73.370441   0.13907257 
   61100   -944.62511     45.36537   -899.25974    1624.8231   -2107.1669    2.1644927    69.821821   0.14550721 
   61200   -949.26199    42.093785    -907.1682    1507.6467    6519.9686    2.1992596    70.422405   0.13318809 
   61300   -945.15518    45.022315   -900.13286    1612.5361    2728.5078    2.1788565    77.938785   0.14379661 
   61400    -944.7687    44.516398    -900.2523    1594.4159   -2844.1445    2.1654702    71.911098   0.14262898 
   61500   -950.96565     44.23082   -906.73483    1584.1876   -3491.1631    2.1822363    77.452937   0.15219863 
   61600   -944.60658    44.574865   -900.03171      1596.51    9139.8179    2.1896648    76.467855   0.15877268 
   61700   -944.06732    44.816891   -899.25043    1605.1785    247.25672    2.1798212    72.712065   0.15714161 
   61800   -948.49499    42.572118   -905.92287    1524.7789    -5247.873    2.1716891     75.73751   0.15582663 
   61900    -945.2689    45.201409   -900.06749    1618.9506    -3371.868    2.1693345     73.77875   0.14956757 
   62000   -944.16229    46.273188    -897.8891    1657.3378    3970.7518    2.1805154    75.009175   0.13980156 
   62100   -949.04106    44.024731   -905.01633    1576.8062     2114.023    2.1891603    75.645358   0.14861138 
   62200   -943.90817    43.804695   -900.10348    1568.9253   -6750.9937     2.155422     71.08204   0.14765267 
   62300   -941.40312    43.890324   -897.51279    1571.9922   -2018.9546     2.157476    72.799486   0.17067651 
   62400   -948.03958    43.987312   -904.05227     1575.466    12927.241    2.2157999    78.361118   0.15582338 
   62500   -945.48593    44.725773   -900.76016     1601.915    4147.5654    2.1910212    81.785153   0.16416599 
   62600   -944.32041    46.114009    -898.2064    1651.6366   -14691.462     2.130586    74.841052   0.16608159 
   62700   -947.11046    39.382306   -907.72815    1410.5314   -3185.5141    2.1768651    74.976094   0.16368479 
   62800   -945.90535    44.352264   -901.55308    1588.5373    13099.706    2.2070828    71.495004   0.15190713 
   62900    -945.3577    46.123529   -899.23417    1651.9775    3952.9706    2.1805326    79.281673   0.14203614 
   63000   -949.77293    42.879343   -906.89359    1535.7826   -13186.988    2.1572392    80.925758   0.12455537 
   63100   -947.50169     43.59137   -903.91032    1561.2848   -2772.1074    2.1732517    81.272636   0.14797929 
   63200   -945.89173    48.269847   -897.62189    1728.8509    5425.5678    2.1896131    73.859642   0.14614361 
   63300   -947.39689    42.448762   -904.94813    1520.3607    1595.6882    2.1823595    84.595139   0.15589453 
   63400   -947.51308    44.036295   -903.47679    1577.2204    -5381.586    2.1664937    79.856641   0.16635661 
   63500   -942.98668    45.539774    -897.4469    1631.0695   -1941.8049    2.1628146    75.009735   0.14465922 
   63600   -948.79324    44.487933   -904.30531    1593.3964     6826.078     2.197468    77.069833   0.15386517 
   63700   -949.08691     45.06343   -904.02348    1614.0086    835.44382    2.1864226    67.423959    0.1575264 
   63800   -946.03887    48.639989   -897.39888     1742.108   -8731.3752    2.1533845    77.880996   0.15011759 
   63900   -950.74032    45.493538   -905.24678    1629.4136   -1138.2354    2.1783599    74.691504   0.14612301 
   64000   -948.75837    45.861579   -902.89679    1642.5954    8224.8435    2.1967595    79.713331   0.15153906 
   64100   -943.50371    46.595969   -896.90774    1668.8986   -494.99204    2.1735088    72.340364   0.14312017 
   64200   -946.60852    41.637617    -904.9709    1491.3085   -8365.1494    2.1604195    75.321445   0.16082514 
   64300    -947.8847    44.398113   -903.48659    1590.1794   -1251.7212    2.1762536    86.520023    0.1517015 
   64400   -942.56403    46.736069   -895.82796    1673.9165    17214.775    2.2086081    80.007429   0.15146675 
   64500   -949.05841    45.714963   -903.34345    1637.3442   -135.42561    2.1781512    73.184723   0.15571191 
   64600   -946.31188    40.492557   -905.81932    1450.2965   -18021.317    2.1366652    66.691485   0.14871892 
   64700   -943.71552    45.608548   -898.10697    1633.5328    962.44872    2.1752181    72.169743   0.15831192 
   64800   -946.17669    44.529937   -901.64675    1594.9009     15437.07      2.21487    81.316054   0.14327994 
   64900   -947.82539    41.985063   -905.84032    1503.7527   -2552.3537    2.1799456    63.375948   0.12693974 
   65000    -944.9297    46.574101    -898.3556    1668.1154   -11857.401    2.1451249     77.51711   0.16857706 
   65100   -947.99032    45.124551   -902.86577    1616.1978    795.12148    2.1826308    80.311641   0.15984625 
   65200   -946.96241    42.237007    -904.7254    1512.7764    8243.4282    2.2019809     71.95236   0.14021315 
   65300   -947.11761    49.279734   -897.83788    1765.0214   -2744.7358    2.1676369    75.100731   0.14302241 
   65400   -945.07591     42.81554   -902.26037    1533.4974    -7042.037     2.156182    80.235844   0.15566396 
   65500   -947.68733    42.168941   -905.51839    1510.3385     1432.783    2.1840945    74.941236   0.14813303 
   65600   -944.09551     46.89053   -897.20498    1679.4487    8849.7622    2.1925239    71.917603   0.15900997 
   65700   -945.27226    43.300594   -901.97167    1550.8702     1120.288    2.1735658    67.218305   0.14033038 
   65800    -949.5123    42.926306     -906.586    1537.4646   -8812.0606    2.1612464    65.430215   0.13128624 
   65900   -943.75889    45.121081    -898.6378    1616.0735   -490.45596     2.170366     72.05948   0.13771731 
   66000   -944.93178    43.244918   -901.68686    1548.8761    9531.4323    2.1989614    74.755411      0.14721 
   66100   -950.46435    44.738477   -905.72588      1602.37   -2665.9315    2.1792166    72.033316   0.14532345 
   66200   -943.65183    46.049989   -897.60184    1649.3436   -5247.6401    2.1506972    77.731202    0.1562206 
   66300   -945.40016    43.141503   -902.25866    1545.1722    1559.2656    2.1766455    71.085306   0.14304776 
   66400   -947.94396    43.313769   -904.63019    1551.3421    4778.8128    2.1942526    68.893361   0.13957766 
   66500   -944.54184    45.110147   -899.43169    1615.6819      23.2069    2.1699555    71.604443   0.14488393 
   66600   -945.12243    44.619915   -900.50252    1598.1236      -6967.6    2.1548647    72.086211   0.14640055 
   66700   -952.04492    45.091553   -906.95337    1615.0159   -299.45202    2.1827219    77.062633   0.13558875 
   66800   -945.20101    46.005592   -899.19542    1647.7535    6070.5531     2.181634    74.194166   0.13657146 
   66900   -946.30615     45.07159   -901.23456    1614.3009   -882.05167    2.1677542    71.839695   0.13769715 
   67000   -947.01563    39.040478   -907.97515    1398.2883   -4644.9725    2.1603044     69.35165   0.14352491 
   67100    -945.9971    46.264639   -899.73246    1657.0316    6096.9434    2.1898152    53.605757   0.12262072 
   67200   -945.57095    46.265133   -899.30581    1657.0493    15889.624    2.2088686    81.005236   0.14803991 
   67300   -950.99927    44.192751   -906.80652    1582.8241   -8477.6086    2.1630313    64.035658   0.12784323 
   67400   -945.88856    44.787439   -901.10112    1604.1236   -14372.484    2.1383853    55.538306   0.13315851 
   67500   -946.80083    49.338553   -897.46227     1767.128    3782.6803    2.1859027    59.300014   0.13370375 
   67600   -951.88693    46.820351   -905.06658    1676.9352    7109.5687    2.2044174    54.477046   0.11854914 
   67700   -950.86619    46.222237   -904.64395    1655.5129    -8932.956    2.1630568     53.36422   0.12511526 
   67800   -945.34092    46.952352   -898.38857     1681.663   -8731.4113    2.1480367    53.309193   0.13338571 
   67900   -952.16372    46.600089   -905.56363    1669.0462     5108.448    2.2002645    52.073816   0.10148621 
   68000    -951.2393    46.590114   -904.64919    1668.6889    6357.7197    2.1993508    51.366913   0.12192274 
   68100   -946.60507    47.990668    -898.6144    1718.8517   -9554.5177    2.1514544    50.509865   0.11316318 
   68200     -951.398    44.931101    -906.4669    1609.2691   -7628.1722    2.1688764    52.787862   0.10655281 
   68300   -947.15342    42.582261   -904.57116    1525.1422    8189.2819    2.1979958    54.366812   0.11895618 
   68400     -948.106    49.943621   -898.16238    1788.7994    3054.0488    2.1850128    48.588898   0.10732808 
   68500   -944.93167    39.847605   -905.08407    1427.1967   -3732.1966    2.1672009    52.303047   0.12647228 
   68600   -950.49258    44.714619   -905.77796    1601.5155   -7035.8535    2.1685435    55.639453   0.12877021 
   68700   -947.72898    49.553783    -898.1752    1774.8368    5071.6571    2.1857031    55.307714   0.11805016 
   68800   -949.41776     45.13909   -904.27867    1616.7185    6973.6249    2.1974207    50.030516    0.1217091 
   68900   -949.87467    42.701647   -907.17303    1529.4181    -6266.219    2.1701007    52.100701   0.11781471 
   69000   -944.00849     44.91899    -899.0895    1608.8353   -6539.7362    2.1520792    51.103728   0.11554889 
   69100   -948.09814     44.17557   -903.92257    1582.2087     10408.73     2.205949      52.5567  0.099921925 
   69200   -948.62577    42.709214   -905.91656    1529.6892    7715.7137    2.2047085    53.348979   0.10952983 
   69300     -946.707    47.739231   -898.96777    1709.8461   -12293.431    2.1438526    52.924925   0.11930782 
   69400   -947.57067    44.524294   -903.04638    1594.6987   -6636.0176    2.1585585    51.864587   0.11545536 
   69500   -947.00347    41.718074    -905.2854    1494.1901    12735.101    2.2086569    53.834772    0.1215545 
   69600   -945.86367    47.596746   -898.26692    1704.7428    3402.1142    2.1819572    52.726037     0.124786 
   69700   -949.42098    46.581928   -902.83905    1668.3957   -6781.9006     2.164392    54.119022   0.12610775 
   69800   -951.71513    45.408288   -906.30684    1626.3602   -2785.6659    2.1790452    56.157076   0.11195092 
   69900   -946.33996    48.057062   -898.28289    1721.2297    1590.2843    2.1796724    50.975241   0.10888246 
   70000   -945.98495    42.985404   -902.99955    1539.5813    2274.2043     2.180857    48.724425   0.12839027 
   70100   -950.58458    43.422519   -907.16206    1555.2372   -2855.4574    2.1789375     53.43671    0.1073246 
   70200   -948.79067    49.856892   -898.93377    1785.6931   -4559.1105    2.1689658    51.338014   0.12853572 
   70300   -949.69294    46.690313   -903.00263    1672.2777    1491.9023    2.1876271    52.329643   0.11417472 
   70400    -947.4576    40.666287   -906.79131    1456.5189    1766.5656    2.1901425    56.910252    0.1271693 
   70500   -948.46983    49.284265   -899.18557    1765.1837   -6248.1984    2.1659671    50.513835   0.13208713 
   70600   -949.09975    45.649381   -903.45037    1634.9953   -271.27311    2.1806099    53.901604   0.11430867 
   70700   -947.87377    41.252987   -906.62078    1477.5324    2909.8934    2.1936692    56.143748   0.11785867 
   70800   -943.72608    45.000713   -898.72537    1611.7623    1571.6586    2.1735658    54.841106   0.12317092 
   70900   -945.57562    42.036046   -903.53957    1505.5787   -1196.8961    2.1722752    55.999529   0.10115192 
[...]
  186800     -950.158    46.993872   -903.16413    1683.1501    11304.763    2.2109588    302.56006   0.11167316 
  186900   -949.75067    45.471618   -904.27906    1628.6284    -7069.291    2.1662927    300.47745   0.11933801 
  187000    -946.4818    43.762261   -902.71954    1567.4055   -8741.9465     2.156718    304.11784   0.12960583 
  187100   -944.55851    46.210712    -898.3478    1655.1001    5954.6225    2.1890574    292.77137    0.1348212 
  187200   -940.15718     48.81248    -891.3447     1748.286    1656.0228    2.1713822    305.42644   0.13833276 
  187300   -949.06717    47.406873    -901.6603    1697.9423   -5140.3017    2.1695906    305.19731   0.11517535 
  187400   -948.42136    45.379036   -903.04233    1625.3125      -3901.8    2.1737222    312.74697   0.12564061 
  187500   -948.45548    45.467994   -902.98748    1628.4987    2699.3076    2.1873656    309.11802   0.12266593 
  187600   -949.72074    45.102001   -904.61874    1615.3901    1092.1481      2.18452    300.75902      0.11967 
  187700   -953.04755    40.675182   -912.37237    1456.8375   -440.92599    2.1929627    299.64918   0.11966023 
  187800    -950.5897    44.439926   -906.14977     1591.677   -941.30207    2.1817542     299.2641    0.1081603 
  187900   -949.13261    46.296055   -902.83655    1658.1568   -1731.8985    2.1782295    299.94651   0.12212525 
  188000   -944.73932    43.843055   -900.89627    1570.2992    1214.7917    2.1771779    303.28883   0.12529411 
  188100   -949.13805    39.408221   -909.72983    1411.4596    1167.5129    2.1883114    293.55186   0.11784613 
  188200    -949.7068    43.025217   -906.68159    1541.0073   -7957.4097    2.1668939    292.10151    0.1386898 
  188300   -946.01074    44.040139    -901.9706    1577.3581    3564.6283    2.1838715    306.03548   0.12566868 
  188400   -946.38464    44.969429   -901.41522    1610.6419    6578.6912    2.1950065    316.71068   0.13571501 
  188500   -939.14539    47.062478   -892.08291    1685.6073      64.5177    2.1562587    317.21334   0.13914069 
  188600   -942.86501    45.545916    -897.3191    1631.2895   -2926.7378    2.1652873     315.1466   0.14342969 
  188700   -943.34764    41.869221   -901.47841    1499.6037   -661.82185    2.1710634    319.99769   0.15147609 
  188800    -947.1614    44.504942   -902.65646    1594.0056    4128.8341    2.1904657    294.42481   0.12382001 
  188900   -952.72055      43.3439   -909.37665    1552.4213     337.8023    2.1918467    298.09463    0.1186929 
  189000   -951.25438     41.94741   -909.30697    1502.4041    -4614.418    2.1784385    308.10259   0.11891344 
  189100   -947.94758    44.308664   -903.63892    1586.9756    1599.5755    2.1862018      309.263   0.13819587 
  189200   -948.51342    46.633844   -901.87957    1670.2552     2479.624    2.1889594    300.20919   0.12072821 
  189300   -949.63732    45.645412   -903.99191    1634.8531   -5146.6541    2.1713323    302.80216   0.12475098 
  189400   -953.02239     42.18861   -910.83378     1511.043   -1093.9294    2.1868157    300.48146   0.09955973 
  189500   -947.98378     44.59667   -903.38711     1597.291     7892.959    2.1961961    305.53767   0.12246842 
  189600   -951.55473    49.551008   -902.00373    1774.7374   -1516.9445    2.1802762    296.99386   0.12779601 
  189700   -946.32681    40.754592   -905.57221    1459.6817    -7223.007    2.1583001    300.59163   0.13037994 
  189800   -951.72716    41.852831   -909.87433    1499.0166    867.85893    2.1903864     304.8201   0.12976579 
  189900    -949.3536    47.934439   -901.41916    1716.8378    8721.9825    2.2018939    297.51649   0.11806118 
  190000   -943.12505    40.574714   -902.55034    1453.2391   -1853.9504    2.1701387    314.53262   0.13221833 
  190100   -946.78814    40.642066   -906.14607    1455.6514   -11140.724    2.1498458    314.51788   0.12653337 
  190200   -949.47352    39.360297   -910.11322    1409.7431     6885.318    2.2048685    293.74629   0.12603348 
  190300   -947.25828     46.17719   -901.08109    1653.8995    6957.6183    2.2000354    297.82429   0.12215977 
  190400   -948.92252    45.959815    -902.9627    1646.1139   -7187.1211    2.1623321    306.38012   0.12116035 
  190500   -946.90693    42.423479   -904.48345    1519.4552   -5554.4716    2.1670744    308.20347    0.1134007 
  190600   -953.45678    40.425581    -913.0312    1447.8977    7254.5063    2.2117786    303.06743   0.11920147 
  190700   -948.73682    44.014423   -904.72239     1576.437    1168.6658    2.1828508    304.08797   0.13890826 
  190800   -943.38071    40.423891   -902.95682    1447.8372    1597.5786    2.1741663     292.7794   0.13676385 
  190900   -946.09606    43.603079   -902.49298    1561.7042    95.510686     2.179668    298.54197   0.14560854 
  191000   -952.82988    42.992776   -909.83711    1539.8453   -199.30546    2.1881449    297.42017   0.12473501 
  191100   -951.51208    43.406113   -908.10597    1554.6496   -1985.2883    2.1866889    298.36405   0.12305286 
  191200   -946.30358    43.689549   -902.61403    1564.8012    1286.6029    2.1828502    304.86078   0.13022407 
  191300   -945.35609    43.466567   -901.88953    1556.8148   -446.96541    2.1751176     306.9849   0.12128516 
  191400   -951.73475    41.958493   -909.77626    1502.8011   -4608.2113    2.1797355    310.52505   0.11669442 
  191500   -949.10593    42.394445   -906.71148    1518.4153    555.64782    2.1836165    302.75054   0.12057519 
  191600   -946.50854    44.927437    -901.5811    1609.1379     4894.133    2.1899733    301.43853   0.12805826 
  191700   -946.88302    43.692863   -903.19016    1564.9199     497.6945    2.1780102     304.8215   0.12823286 
  191800   -949.16014    37.628241    -911.5319    1347.7071   -6555.0403    2.1648608    305.25283   0.12905447 
  191900   -949.00487    44.229886   -904.77498    1584.1541   -2606.2134    2.1767752    305.06478   0.14031685 
  192000   -946.84537    46.271206   -900.57416    1657.2668    14348.901    2.2118499    290.70568   0.12491982 
  192100   -947.32026    41.984791   -905.33547     1503.743    59.274997    2.1774971    311.86769   0.13466171 
  192200    -950.5508    42.482255   -908.06855    1521.5603   -14863.683    2.1476395    308.48027   0.12153972 
  192300    -946.4965    47.078466   -899.41803    1686.1799    2738.4942    2.1837515    303.34568   0.12733961 
  192400   -946.13113    46.399077   -899.73206    1661.8467    12947.182    2.2054536    302.19697   0.11647199 
  192500   -950.68238    47.272489   -903.40989    1693.1291   -7366.8747    2.1636022     305.7178    0.1168942 
  192600   -948.11172    44.841634   -903.27008    1606.0647    -7210.821      2.16042    294.21063   0.13042269 
  192700   -942.39015    48.794215   -893.59593    1747.6318    4035.4221    2.1782653    293.84745   0.14074043 
  192800   -945.29617    45.873104   -899.42306    1643.0082     7525.971    2.1947298    293.05402   0.13423202 
  192900   -946.94573    43.112405   -903.83332      1544.13   -6923.7609    2.1664779    307.93301   0.12739697 
  193000   -946.61993    44.186532    -902.4334    1582.6013    -6117.484    2.1625846    297.65631   0.12924189 
  193100   -941.21478    47.889527   -893.32526    1715.2292    6872.7907    2.1801921    303.90843   0.14099139 
  193200   -946.65484    45.096259   -901.55858    1615.1845    7642.4761    2.1957183    298.08913   0.12887883 
  193300   -947.47607    43.291168    -904.1849    1550.5326   -7930.8408    2.1592078    301.44075   0.12786675 
  193400   -946.45993    45.796493   -900.66343    1640.2643   -4475.8531    2.1661205    301.14486   0.12679169 
  193500   -942.92368    49.655838   -893.26785    1778.4921    6746.9685    2.1867832     302.6814   0.13254281 
  193600   -944.38607    42.525405   -901.86067    1523.1058    3914.4613    2.1836458    299.53073   0.13429569 
  193700   -950.36106     46.63665   -903.72441    1670.3557   -10880.115    2.1578437    312.03762     0.121401 
  193800   -947.42496    45.159652    -902.2653     1617.455    655.87045    2.1800659    307.65681   0.11782752 
  193900   -948.63209    43.328898   -905.30319     1551.884    6204.7944    2.1980944    302.94197     0.131809 
  194000   -950.65264    40.126123   -910.52652    1437.1722     2141.673    2.1950836    295.71326   0.11803836 
  194100    -947.6287    43.665726   -903.96297     1563.948   -2868.5539    2.1721153    302.09724   0.12459496 
  194200   -946.86709    44.777068   -902.09002    1603.7522   -428.14614    2.1754608    309.07508   0.12153283 
  194300   -952.82767    46.309894   -906.51778    1658.6525    1222.6827    2.1916208    302.67061   0.10479356 
  194400   -953.29053    43.573615   -909.71691    1560.6489      1809.31    2.1954715    296.18349   0.11646872 
  194500   -945.33157    42.862307   -902.46926    1535.1724   -1765.4109    2.1715247    301.55324   0.13179401 
  194600   -948.88973    46.097757   -902.79198    1651.0545   -3905.3507    2.1719309    312.05769   0.13442321 
  194700   -951.06755    42.142738   -908.92481       1509.4    3685.9805     2.196128    302.87575   0.12145757 
  194800    -952.4545    44.192735   -908.26176    1582.8235    2777.7707     2.199696    308.79501   0.12082938 
  194900   -948.65403    46.365723    -902.2883    1660.6521   -4859.5808    2.1683747    304.98345   0.12742079 
  195000    -947.7029    44.205127   -903.49777    1583.2674   -10756.701    2.1518083    312.06182   0.13326223 
  195100   -947.94393    42.975816   -904.96811    1539.2379    6898.1265    2.1971846    302.67493   0.13456272 
  195200   -951.87532    38.052584   -913.82273    1362.9056    16557.734    2.2300244    308.06607   0.11578219 
  195300   -947.56277    42.226526   -905.33624     1512.401   -10828.792    2.1511122    302.64363   0.12797475 
  195400   -948.69798    45.086773    -903.6112    1614.8447   -8638.5268    2.1559239    295.57375   0.12066272 
  195500   -945.93103     44.92715   -901.00388    1609.1276    9739.3078    2.1980132    298.68317   0.13249929 
  195600   -948.48048      40.9697   -907.51078    1467.3861    6548.6109    2.1966222    303.80555   0.12123033 
  195700   -952.25465     43.48221   -908.77244    1557.3751   -7831.5832    2.1687162    304.52792   0.12023884 
  195800   -945.89252    43.238783   -902.65374    1548.6564   -1257.1737    2.1678925    302.53273   0.11492229 
  195900   -950.12035    48.074575   -902.04577     1721.857    3661.6265    2.1866692    300.36451   0.11019959 
  196000   -951.97636    42.275724   -909.70064    1514.1631    1507.9329    2.1932321    302.95819   0.12281675 
  196100   -948.20668    43.010337   -905.19634    1540.4743   -2709.0563    2.1685883    306.17542   0.11852218 
  196200   -949.60421     47.73241    -901.8718    1709.6018   -2521.7569    2.1753043    304.74833   0.12009856 
  196300   -944.59138    41.075586   -903.51579    1471.1785    5880.7451    2.1894452    308.53805   0.11985565 
  196400   -952.37755    41.848013   -910.52953    1498.8441   -756.86659    2.1859215    307.76093   0.11321034 
  196500   -945.55607    42.640333   -902.91574    1527.2221   -4993.0785    2.1601397    296.71688   0.12582764 
  196600   -948.39079    46.663621   -901.72717    1671.3217    5043.4814    2.1921217    296.15966   0.12324448 
  196700   -948.47525    45.151684   -903.32356    1617.1696    5844.5021    2.1969134    305.54933   0.11466285 
  196800   -947.90984    40.704004   -907.20583    1457.8698    -11113.81    2.1523255    306.86782   0.12893025 
  196900   -951.94836    38.800201   -913.14816    1389.6825   -6029.2862    2.1756219    302.86403   0.11135232 
  197000   -947.97975      43.8261   -904.15365     1569.692      13385.3    2.2117297    310.43082   0.12057012 
  197100   -947.56078    44.972537   -902.58824    1610.7532     3647.177    2.1869395    297.34733   0.13073807 
  197200   -947.29283    43.685677   -903.60716    1564.6625   -10451.601    2.1506805    298.86768   0.13510921 
  197300   -951.24481    41.568433   -909.67638    1488.8305    -3860.094    2.1788466    308.65664   0.11761043 
  197400   -953.66945     44.86962   -908.79983    1607.0671    7203.2806    2.2116073    307.60529   0.12105257 
  197500   -945.54604    42.770564   -902.77548    1531.8865    3072.7312     2.186075     323.1266   0.12596081 
  197600   -948.38537    45.715793   -902.66957    1637.3739   -8721.1553    2.1616964    299.47313   0.12595985 
  197700    -948.3557    42.507282   -905.84841    1522.4567   -2199.3494    2.1781897     303.1962   0.12205425 
  197800   -950.12719     40.10328   -910.02391     1436.354    8137.2154    2.2059372     296.1644    0.1159173 
  197900   -947.98938    45.454742   -902.53464     1628.024    1731.4467    2.1795424    298.81511    0.1412572 
  198000   -946.21259    43.541979   -902.67061    1559.5158    -5381.388    2.1643353    310.48183   0.13217013 
  198100   -948.63145    40.917992   -907.71346    1465.5341   -261.18372    2.1834979     299.4851   0.13099314 
  198200   -953.19977    44.078101   -909.12167    1578.7177    6673.7616    2.2027637     300.6421   0.12364778 
  198300   -946.63021    44.655888   -901.97432     1599.412    1895.8066    2.1801663    300.67079   0.11701694 
  198400   -944.72799    41.417162   -903.31083    1483.4125   -6302.1899    2.1595667    310.20508    0.1334162 
  198500   -948.14273    41.607237   -906.53549    1490.2203    209.31151    2.1800418    308.29928   0.12579548 
  198600   -951.95566    40.073901   -911.88176    1435.3018    9197.4949    2.2140951    303.84458   0.12311195 
  198700   -946.48394    43.327951   -903.15599    1551.8501    -1764.918     2.169546    302.67464   0.12098375 
  198800   -946.61525    43.545856   -903.06939    1559.6546   -5505.0339    2.1612775    304.38139   0.13209237 
  198900   -947.25685    45.108883   -902.14797    1615.6366    2292.5309    2.1836957    306.47095   0.13703663 
  199000   -941.15071    49.420985   -891.72973    1770.0804    3487.3143    2.1714073    305.10784   0.13874227 
  199100   -946.46102     47.13264   -899.32838    1688.1202    1125.6565    2.1748357    305.59871   0.13761014 
  199200   -946.70082    43.517337   -903.18348    1558.6332   -2801.3641    2.1653463    298.79156   0.10768635 
  199300   -945.87407    42.562666    -903.3114    1524.4403    1385.1978    2.1746635    307.92461   0.13297084 
  199400   -943.36037    49.440615   -893.91975    1770.7835    2667.8262    2.1710563    311.32384   0.13024408 
  199500   -947.12569     46.39214   -900.73355    1661.5982    1928.6048    2.1784814    315.34862   0.11456563 
  199600   -949.53763    45.279148   -904.25848    1621.7349   -7221.9522    2.1618191    302.82078   0.10470856 
  199700   -945.63082     44.57702    -901.0538    1596.5872   -1359.6313    2.1704489    304.36733   0.11997811 
  199800   -943.17292    50.320948   -892.85197    1802.3139    5378.6966    2.1753856    296.32453   0.13743968 
  199900   -949.63274    47.059756   -902.57298    1685.5098    2882.2697    2.1869616    309.21946   0.12644952 
  200000   -950.35135    46.757446    -903.5939    1674.6822   -9018.8138    2.1546135    311.39596   0.12319767 
  200100    -944.5474    43.946737   -900.60067    1574.0127   -430.98998    2.1618591    301.47996    0.1100248 
  200200   -945.04224    47.855552   -897.18669    1714.0123    13073.685    2.1994175    294.37907   0.12657298 
  200300   -941.13726    54.169334   -886.96793    1940.1491    -2705.359    2.1439902    310.14568   0.13520698 
  200400   -948.83499    51.282343   -897.55265    1836.7476   -13195.368    2.1390516     305.1939   0.11994739 
  200500   -944.60231    43.633224   -900.96909    1562.7838    8354.6572    2.1904273    300.63059   0.12039661 
  200600   -948.43275    46.168565   -902.26419    1653.5906    12055.131     2.207091     300.1796   0.10930971 
  200700   -949.31117    42.324769   -906.98641    1515.9197   -8836.9799    2.1591896    293.75893   0.11618142 
  200800   -951.67464    42.506216   -909.16843    1522.4185   -9430.1135    2.1590767      297.514   0.11861268 
  200900   -946.03766    46.202108   -899.83556    1654.7919    5928.1962    2.1871689    296.71934   0.11070417 
  201000   -944.83409     43.40623   -901.42786    1554.6537    6717.7549    2.1867639    298.69529   0.10489804 
  201100   -945.55083    41.204856   -904.34598    1475.8085   -2463.5141    2.1692542    302.89869   0.13493725 
  201200   -941.23579     38.75028   -902.48551    1387.8945    1748.1099    2.1722324    305.96105   0.12289847 
  201300    -946.0625    50.697851   -895.36464    1815.8132   -1467.7871    2.1626217     305.5534   0.11462945 
  201400   -946.20673    43.663218   -902.54351    1563.8581     2973.579    2.1806819    304.59223   0.11654676 
  201500   -945.39542    41.384744   -904.01068    1482.2514    3608.2512    2.1846965    304.53219   0.10328542 
  201600   -943.15203    46.002668   -897.14936    1647.6487     12.57653     2.163136    300.29082    0.1303097 
  201700   -947.15989    48.281852   -898.87804    1729.2808   -3806.5248    2.1647431    300.21606   0.13628892 
  201800    -949.3142    45.216922   -904.09728    1619.5062    1071.1147     2.180975    298.52703    0.1165209 
  201900   -949.06277    47.098051   -901.96472    1686.8814    4711.2796    2.1900586    303.84752   0.11486076 
  202000   -940.59291    46.687798   -893.90511    1672.1876   -337.29194    2.1624435     296.2925   0.12757204 
  202100   -943.23952    40.454844   -902.78467    1448.9458   -2110.4543    2.1686233    307.92721   0.13358064 
  202200   -945.56691    41.772914     -903.794    1496.1543    1842.2308    2.1791478    297.50144   0.11564406 
  202300   -947.76944    46.832625   -900.93682    1677.3748    5112.4993    2.1929791    304.28415   0.12010795 
  202400   -941.48267    46.156386   -895.32628    1653.1544    47.202458    2.1635254    304.55961    0.1245585 
  202500   -941.98758    42.301606   -899.68597    1515.0901   -9775.4717    2.1431337    310.60665   0.13524951 
  202600   -949.78199    46.101543   -903.68045    1651.1901   -1892.5668    2.1793077     300.7976   0.12516179 
  202700   -946.39871    44.943298   -901.45541     1609.706    16025.582    2.2141535    307.06946   0.10650619 
  202800    -946.6382    41.085778   -905.55242    1471.5436   -692.99753    2.1756323    303.30419   0.12004856 
  202900   -950.19391    37.070043   -913.12386    1327.7145   -8594.9771     2.164783    302.84024   0.10885013 
  203000    -952.0299      47.0541    -904.9758    1685.3072   -1628.0149    2.1793281    304.93323   0.11151774 
  203100   -948.16758    46.055603   -902.11197    1649.5447    8552.0763    2.2009351    310.41197   0.12276194 
  203200   -947.41108     43.75945   -903.65163    1567.3048   -855.78186    2.1744907    304.07347   0.10695562 
Loop time of 144.07 on 1 procs for 200000 steps with 217 atoms

Performance: 359.825 ns/day, 0.067 hours/ns, 1388.214 timesteps/s
100.0% CPU use with 1 MPI tasks x no OpenMP threads

MPI task timing breakdown:
Section |  min time  |  avg time  |  max time  |%varavg| %total
---------------------------------------------------------------
Pair    | 139.32     | 139.32     | 139.32     |   0.0 | 96.70
Neigh   | 1.495      | 1.495      | 1.495      |   0.0 |  1.04
Comm    | 0.90704    | 0.90704    | 0.90704    |   0.0 |  0.63
Output  | 0.07496    | 0.07496    | 0.07496    |   0.0 |  0.05
Modify  | 1.949      | 1.949      | 1.949      |   0.0 |  1.35
Other   |            | 0.3264     |            |       |  0.23

Nlocal:    217 ave 217 max 217 min
Histogram: 1 0 0 0 0 0 0 0 0 0
Nghost:    949 ave 949 max 949 min
Histogram: 1 0 0 0 0 0 0 0 0 0
Neighs:    4203 ave 4203 max 4203 min
Histogram: 1 0 0 0 0 0 0 0 0 0
FullNghs:  8406 ave 8406 max 8406 min
Histogram: 1 0 0 0 0 0 0 0 0 0

Total # of neighbors = 8406
Ave neighs/atom = 38.7373
Neighbor list builds = 2501
Dangerous builds = 37
Total wall time: 0:02:26
