LAMMPS (3 Mar 2020)
Reading data file ...
  orthogonal box = (0 0 0) to (17.469 17.469 17.469)
  1 by 1 by 1 MPI processor grid
  reading atoms ...
  217 atoms
  read_data CPU = 0.000999479 secs
Reading potential file library.meam with DATE: 2012-06-29
Reading potential file LiSi.meam with DATE: 2020-11-07
1 atoms in group Li
Neighbor list info ...
  update every 1 steps, delay 10 steps, check yes
  max neighbors/atom: 2000, page size: 100000
  master list distance cutoff = 6
  ghost atom cutoff = 6
  binsize = 3, bins = 6 6 6
  2 neighbor lists, perpetual/occasional/extra = 2 0 0
  (1) pair meam/c, perpetual
      attributes: full, newton on
      pair build: full/bin/atomonly
      stencil: full/bin/3d
      bin: standard
  (2) pair meam/c, perpetual, half/full from (1)
      attributes: half, newton on
      pair build: halffull/newton
      stencil: none
      bin: none
Setting up Verlet run ...
  Unit style    : metal
  Current step  : 0
  Time step     : 0.000637137
Per MPI rank memory allocation (min/avg/max) = 9.27 | 9.27 | 9.27 Mbytes
Step PotEng KinEng TotEng Temp Press Density c_msdli[4] 
       0   -951.04357    50.256344   -900.78722         1800   -114161.75    1.8918427            0 
     100   -926.20627    25.427529   -900.77874    910.72189   -94495.477    1.8918427   0.11772655 
     200    -927.4398    26.662799     -900.777    954.96476   -92814.802    1.8918427  0.046285136 
     300   -928.68115    27.903656    -900.7775    999.40776   -93699.708    1.8918427  0.073572844 
     400   -925.18933    24.412837   -900.77649     874.3793   -92299.033    1.8918427  0.072226996 
     500   -926.52871    25.752659   -900.77605    922.36686   -90424.909    1.8918427  0.038737662 
     600    -926.3082    25.531973   -900.77623    914.46267   -92185.379    1.8918427  0.043160691 
     700   -926.75676    25.979154   -900.77761     930.4791   -92629.088    1.8918427  0.038940982 
     800   -928.92842    28.151247   -900.77717    1008.2756   -93515.108    1.8918427  0.075643063 
     900   -926.04873    25.273166   -900.77556    905.19315   -92727.341    1.8918427   0.18328599 
    1000   -927.10745    26.331076   -900.77637    943.08367    -92756.99    1.8918427   0.05700123 
    1100    -927.6162    26.839784   -900.77642    961.30373   -91394.056    1.8918427  0.084760184 
    1200   -927.19569    26.417996    -900.7777    946.19682   -93365.705    1.8918427  0.051337924 
    1300   -927.44298    26.667244   -900.77574    955.12398    -92453.75    1.8918427    0.1019209 
    1400   -926.11287    25.336545   -900.77632    907.46315   -93063.072    1.8918427   0.40713847 
    1500   -927.72367    26.947532   -900.77613    965.16288   -91324.333    1.8918427  0.035651055 
    1600   -925.97207    25.195699   -900.77637    902.41857   -91675.848    1.8918427   0.24360936 
    1700    -924.2878     23.51257   -900.77523    842.13499   -90112.637    1.8918427   0.10526137 
    1800    -926.8423    26.066077   -900.77622    933.59235   -93652.296    1.8918427   0.10270537 
    1900   -926.26001    25.483057   -900.77695    912.71067   -93033.575    1.8918427  0.075094673 
    2000   -927.57252    26.796733   -900.77579     959.7618   -92595.858    1.8918427  0.030784964 
    2100   -925.51413     24.73824   -900.77589    886.03406   -91992.789    1.8918427   0.00556168 
    2200   -927.23006    26.453584   -900.77648    947.47145    -92760.11    1.8918427  0.015977392 
    2300   -925.91172    25.135326   -900.77639    900.25624   -92183.798    1.8918427  0.008457641 
    2400   -927.85914    27.082216   -900.77693    969.98678   -92229.158    1.8918427   0.15914373 
    2500   -925.81842    25.041836   -900.77659    896.90773   -92058.223    1.8918427  0.011344994 
    2600   -926.23553    25.459132    -900.7764    911.85376   -91916.989    1.8918427  0.075350424 
    2700    -928.2527    27.475142   -900.77756    984.05994   -92777.607    1.8918427  0.041654032 
    2800   -925.65391    24.877075   -900.77684    891.00663   -92772.999    1.8918427 0.0069976166 
    2900   -927.20777    26.431151   -900.77662    946.66798   -92500.082    1.8918427  0.090783086 
    3000   -927.47513    26.698058   -900.77707    956.22762   -93329.021    1.8918427  0.058512506 
    3100   -926.96434    26.187165   -900.77718    937.92928   -93269.739    1.8918427  0.095212552 
    3200   -927.33175    26.555419   -900.77633    951.11879   -91174.033    1.8918427  0.085262182 
    3300   -925.83686    25.059834   -900.77703    897.55237   -91618.044    1.8918427  0.015083368 
    3400   -927.24004    26.463176   -900.77687    947.81499    -93592.04    1.8918427  0.023649368 
    3500   -928.64008    27.862661   -900.77742    997.93948     -93000.5    1.8918427  0.031105444 
    3600   -925.07702     24.30145   -900.77557    870.38983   -91293.224    1.8918427  0.080875537 
    3700    -929.2463    28.469166   -900.77713    1019.6623   -93237.949    1.8918427   0.03155735 
    3800   -925.64583    24.868562   -900.77727    890.70169   -91816.498    1.8918427   0.18359106 
    3900   -926.32811    25.551239   -900.77687    915.15273   -92290.788    1.8918427   0.04112741 
    4000   -928.14919    27.372107   -900.77709    980.36961   -94150.149    1.8918427   0.11322659 
    4100   -926.74714    25.969948   -900.77719    930.14934   -92514.195    1.8918427  0.021338233 
    4200   -926.73523    25.957713   -900.77751    929.71115   -91083.412    1.8918427  0.042632673 
    4300   -925.67774    24.901538    -900.7762     891.8828   -92014.598    1.8918427  0.040658701 
    4400   -924.29333    23.518581   -900.77475    842.35027   -89903.942    1.8918427  0.031265006 
    4500   -928.73678    27.959714   -900.77707    1001.4155   -93393.342    1.8918427  0.029983487 
    4600   -926.48679     25.70992   -900.77687    920.83608   -92607.801    1.8918427    0.0489199 
    4700   -929.54479    28.767087    -900.7777    1030.3327   -94672.466    1.8918427  0.027782407 
    4800   -926.89914    26.123381   -900.77576    935.64476   -92683.253    1.8918427  0.026695512 
    4900   -928.04804     27.26956   -900.77848    976.69674    -93114.41    1.8918427   0.15761892 
    5000   -926.31832    25.541272   -900.77705    914.79573   -91647.352    1.8918427   0.11774736 
    5100   -926.30382    25.527335   -900.77648    914.29658   -93107.995    1.8918427 0.0043147153 
    5200   -927.53677    26.759119   -900.77766    958.41461   -93036.457    1.8918427  0.021279642 
    5300   -926.59581     25.81807   -900.77774    924.70963   -92666.263    1.8918427  0.042107456 
    5400   -927.88558    27.107636   -900.77795    970.89721   -92324.857    1.8918427  0.039073588 
    5500    -925.7055    24.928805    -900.7767    892.85939   -93094.269    1.8918427  0.034410408 
    5600    -927.7536    26.976396    -900.7772    966.19667   -93380.553    1.8918427  0.016916186 
    5700   -926.76947    25.993539   -900.77593     930.9943   -91194.017    1.8918427  0.099787903 
    5800   -926.20725    25.430488   -900.77676    910.82784   -92452.583    1.8918427 0.0037284175 
    5900    -927.9023    27.125519   -900.77678    971.53771   -92922.709    1.8918427  0.093361435 
    6000    -926.5441    25.768166   -900.77594    922.92224   -91524.106    1.8918427  0.016159796 
    6100    -926.6221    25.844701    -900.7774    925.66346   -92553.137    1.8918427  0.046223391 
    6200   -926.65015    25.873421   -900.77673     926.6921   -91303.157    1.8918427   0.04465083 
    6300   -926.82407     26.04603   -900.77804    932.87433   -92846.167    1.8918427   0.05719811 
    6400   -926.94495    26.169052    -900.7759    937.28053   -92524.981    1.8918427  0.078787573 
    6500   -927.48026    26.703553    -900.7767    956.42441   -92650.096    1.8918427  0.049335632 
    6600   -926.27548    25.498769   -900.77671    913.27345   -92326.134    1.8918427   0.15666639 
    6700   -927.05718    26.281143   -900.77603    941.29524   -91606.112    1.8918427  0.072585662 
    6800   -924.21579    23.439285   -900.77651     839.5102   -90280.316    1.8918427  0.038663495 
    6900   -929.60829    28.830845   -900.77745    1032.6163   -93807.961    1.8918427  0.014981626 
    7000   -926.82648    26.048659   -900.77782    932.96851   -92440.898    1.8918427  0.046570415 
    7100    -925.8673    25.091433   -900.77586    898.68413   -92173.426    1.8918427  0.057019761 
    7200   -925.85208    25.076248   -900.77583    898.14026   -91160.949    1.8918427  0.024985921 
    7300    -925.7367    24.961102    -900.7756    894.01614   -89934.057    1.8918427  0.057896783 
    7400   -926.45488    25.678574   -900.77631    919.71339   -91158.391    1.8918427  0.021178266 
    7500    -926.5031    25.726315   -900.77679    921.42332   -93279.439    1.8918427  0.015493285 
    7600   -927.04225    26.264614   -900.77764    940.70323   -92149.153    1.8918427   0.08472754 
    7700   -926.65092     25.87426   -900.77666    926.72217   -92185.645    1.8918427  0.097231432 
    7800   -927.29062     26.51381   -900.77681    949.62852   -93065.696    1.8918427   0.15555706 
    7900   -925.14031    24.365622   -900.77469     872.6882   -90100.776    1.8918427  0.017029166 
    8000   -927.60651     26.82963   -900.77688    960.94005   -93368.461    1.8918427  0.030039028 
    8100   -926.42764    25.651484   -900.77616    918.74313   -92423.163    1.8918427  0.042595763 
    8200   -926.23871    25.463235   -900.77547    912.00074   -92073.608    1.8918427   0.10401512 
    8300   -926.02704    25.250457   -900.77658    904.37979   -93261.372    1.8918427  0.018191448 
    8400   -928.06253     27.28677   -900.77576    977.31316   -93299.283    1.8918427  0.070329417 
    8500   -926.99138    26.213533   -900.77784    938.87368   -93170.879    1.8918427   0.04589725 
    8600   -926.71091    25.934034   -900.77687    928.86304   -92507.584    1.8918427   0.16899797 
    8700   -925.01991    24.244105   -900.77581    868.33593   -90243.527    1.8918427  0.053088264 
    8800   -927.87734     27.09994    -900.7774    970.62159   -94162.909    1.8918427  0.063308359 
    8900   -927.88425    27.107194   -900.77706     970.8814   -93886.067    1.8918427  0.040917873 
    9000   -927.42472    26.648126   -900.77659    954.43925   -94192.966    1.8918427  0.020615116 
    9100   -925.40627    24.631262   -900.77501    882.20249   -91427.026    1.8918427   0.10085633 
    9200    -928.9921    28.213475   -900.77862    1010.5044   -95938.632    1.8918427  0.072544188 
    9300   -927.05018    26.273627   -900.77656    941.02602    -92920.15    1.8918427  0.040396092 
    9400   -927.09903    26.322049   -900.77698    942.76035   -94047.155    1.8918427  0.020161241 
    9500   -928.71311    27.935678   -900.77743    1000.5547   -94644.475    1.8918427  0.018387827 
    9600   -927.77598    26.998944   -900.77704    967.00426   -94590.288    1.8918427  0.034498967 
    9700   -924.32959    23.554886    -900.7747    843.65061   -91018.371    1.8918427   0.18629074 
    9800   -926.36251     25.58694   -900.77557    916.43141   -93709.961    1.8918427  0.076358868 
    9900   -927.24908    26.473024   -900.77606    948.16772   -93205.533    1.8918427  0.061000136 
   10000   -929.98704    29.208228   -900.77882    1046.1328   -95620.568    1.8918427  0.082915713 
   10100   -927.69556    26.917704   -900.77785    964.09452   -94568.743    1.8918427   0.03124265 
   10200   -925.90659     25.13124   -900.77535    900.10989   -92788.359    1.8918427 0.0092089392 
   10300    -926.8715    26.096454   -900.77505    934.68035   -93531.183    1.8918427  0.029088662 
   10400   -926.13644     25.36036   -900.77608    908.31613   -92571.033    1.8918427  0.086962734 
   10500   -926.85172     26.07613   -900.77559     933.9524   -92741.881    1.8918427   0.11224842 
   10600   -927.42639    26.649917   -900.77648    954.50338   -93326.313    1.8918427  0.026176919 
   10700   -924.83365    24.058236   -900.77541    861.67876   -93223.135    1.8918427   0.13033776 
   10800   -928.13414    27.357728   -900.77641     979.8546    -96134.28    1.8918427  0.080258486 
   10900    -926.1188    25.342531   -900.77627    907.67755   -93262.813    1.8918427   0.10355409 
   11000   -924.45754    23.683287   -900.77425    848.24946   -91540.519    1.8918427  0.098991207 
   11100   -927.73399    26.958056   -900.77594     965.5398   -93100.546    1.8918427  0.041207452 
   11200   -926.34484    25.568268   -900.77658    915.76265   -94463.552    1.8918427   0.18996233 
   11300    -925.9415    25.166234   -900.77527    901.36323   -93412.028    1.8918427  0.024415159 
   11400   -927.78438    27.007341   -900.77704    967.30502   -95288.598    1.8918427  0.083249744 
   11500   -927.41642    26.640294   -900.77613    954.15872   -93427.418    1.8918427  0.087335281 
   11600   -926.53422     25.75775   -900.77647    922.54918   -92644.523    1.8918427  0.041826942 
   11700   -926.42064    25.643239   -900.77741    918.44783   -93605.973    1.8918427  0.030971558 
   11800   -927.05857    26.281133   -900.77743    941.29487    -94379.82    1.8918427   0.10224252 
   11900   -927.99044    27.213648    -900.7768    974.69417   -94270.344    1.8918427 0.0063750525 
   12000   -927.92187    27.144691   -900.77717    972.22438    -94761.46    1.8918427   0.15542708 
   12100   -927.39546    26.618717   -900.77674    953.38591   -94714.653    1.8918427  0.059273747 
   12200     -925.572    24.796401    -900.7756    888.11717   -92782.229    1.8918427   0.28786965 
   12300   -926.84245    26.065609   -900.77684    933.57559   -92936.815    1.8918427   0.10564449 
   12400   -928.85976    28.082235   -900.77752    1005.8038   -95040.868    1.8918427  0.027980085 
   12500   -925.63837    24.860669   -900.77771    890.41901   -92820.934    1.8918427   0.23857499 
   12600   -926.43131    25.656006    -900.7753    918.90511   -91983.314    1.8918427   0.04722614 
   12700   -926.67712    25.901205   -900.77592    927.68722   -92663.596    1.8918427  0.030424122 
   12800   -926.00853    25.232127    -900.7764    903.72329   -91967.837    1.8918427   0.04614406 
   12900    -926.8526    26.076128   -900.77647    933.95235   -93953.787    1.8918427  0.097069304 
   13000   -927.16844    26.391311   -900.77713    945.24105   -93180.325    1.8918427  0.097673105 
   13100   -926.05395     25.27759   -900.77636    905.35162   -91894.824    1.8918427  0.025913053 
   13200   -926.84087    26.064444   -900.77643    933.53384   -91319.434    1.8918427   0.21103178 
   13300   -924.65877    23.883281   -900.77549    855.41252   -91710.598    1.8918427   0.25679383 
   13400   -927.53778     26.76111   -900.77667     958.4859   -92794.045    1.8918427   0.37430498 
   13500   -928.18318    27.405873    -900.7773    981.57899   -93919.116    1.8918427  0.086317238 
   13600   -925.67831    24.902224   -900.77609    891.90734   -93653.969    1.8918427  0.045521221 
   13700   -927.98094    27.204374   -900.77656    974.36202   -93857.615    1.8918427  0.046366103 
   13800   -927.45183    26.674834     -900.777     955.3958   -93508.336    1.8918427   0.05164404 
   13900     -926.102     25.32583   -900.77617     907.0794   -92145.513    1.8918427   0.11397827 
   14000   -927.91088    27.134128   -900.77675    971.84607    -92996.69    1.8918427  0.020368738 
   14100   -926.43001    25.654209    -900.7758    918.84074   -93487.869    1.8918427  0.038141195 
   14200   -927.20665    26.429875   -900.77678    946.62227   -93848.571    1.8918427  0.036454613 
   14300   -926.62717    25.851136   -900.77604    925.89394   -91627.046    1.8918427   0.21052494 
   14400   -926.53612     25.75915   -900.77697    922.59935   -93378.205    1.8918427   0.14815178 
   14500   -927.99023     27.21265   -900.77758    974.65845   -93224.087    1.8918427  0.046725825 
   14600    -926.3494     25.57337   -900.77603    915.94538   -92495.126    1.8918427  0.061070492 
   14700   -924.01779     23.24314   -900.77465    832.48498   -90960.054    1.8918427  0.080619001 
   14800   -926.35457    25.579226   -900.77535    916.15511   -93226.505    1.8918427  0.098783544 
   14900   -927.83971     27.06247   -900.77724    969.27954   -94248.481    1.8918427  0.040543834 
   15000   -927.15125    26.375064   -900.77618    944.65915   -92804.888    1.8918427  0.092310497 
   15100    -924.8153    24.038586   -900.77671    860.97497   -92573.275    1.8918427  0.075689366 
   15200   -927.98895    27.212487   -900.77646    974.65261   -94379.587    1.8918427  0.038751173 
   15300   -926.67116    25.894646   -900.77652     927.4523   -93559.032    1.8918427   0.23696768 
   15400   -926.72943    25.952673   -900.77675    929.53064   -93355.915    1.8918427  0.013177099 
   15500   -925.60544    24.829269   -900.77618    889.29438   -92656.201    1.8918427  0.035515778 
   15600   -927.55298    26.775769   -900.77721    959.01095   -93195.715    1.8918427  0.015617481 
   15700   -926.24726    25.471009   -900.77625    912.27915   -93577.904    1.8918427  0.027762797 
   15800   -926.95681    26.180271   -900.77654    937.68235   -93444.287    1.8918427  0.021595562 
   15900   -927.36933    26.592591   -900.77673    952.45019   -93589.648    1.8918427  0.017624753 
   16000   -928.17793    27.400644   -900.77728     981.3917   -94809.898    1.8918427   0.14599419 
   16100   -927.44426    26.668032   -900.77622    955.15219   -92853.308    1.8918427  0.020669863 
   16200   -925.46705    24.691126   -900.77592    884.34658   -94142.585    1.8918427   0.14051757 
   16300    -926.2978    25.521916   -900.77588    914.10246   -93012.326    1.8918427  0.021868159 
   16400   -927.46543    26.688836    -900.7766    955.89731   -93349.504    1.8918427  0.080570936 
   16500   -925.61054    24.835585   -900.77495    889.52058   -91572.974    1.8918427  0.096780371 
   16600   -925.20304    24.426778   -900.77626    874.87862   -93203.502    1.8918427   0.14795382 
   16700   -928.83287     28.05584   -900.77703    1004.8585   -94686.062    1.8918427   0.19021619 
   16800   -926.52755    25.752215   -900.77534    922.35096   -93541.507    1.8918427  0.092716951 
   16900   -925.97965    25.204465   -900.77519    902.73252   -93001.982    1.8918427  0.079616835 
   17000   -926.92681    26.151298   -900.77551    936.64467   -93308.382    1.8918427  0.039459123 
   17100   -926.16923    25.392577   -900.77666    909.47004   -93897.299    1.8918427   0.13141732 
   17200   -926.25316    25.476916   -900.77624    912.49072   -92391.409    1.8918427 0.0059659062 
   17300   -926.82585    26.050913   -900.77493    933.04922   -93683.477    1.8918427  0.099002312 
   17400   -928.38931    27.612216   -900.77709    988.96944   -95230.157    1.8918427  0.097972001 
   17500   -928.79929    28.021803   -900.77749    1003.6393   -96720.886    1.8918427   0.02275552 
   17600   -925.80484    25.029235   -900.77561    896.45642    -92423.54    1.8918427   0.04747747 
   17700   -925.32789    24.552164   -900.77572    879.36946   -92693.039    1.8918427  0.056137745 
   17800   -926.64369    25.867352   -900.77634    926.47473   -93253.078    1.8918427   0.17182528 
   17900   -928.45461    27.677794   -900.77681    991.31822   -95313.661    1.8918427  0.063952904 
   18000    -926.4097    25.634093   -900.77561    918.12023   -93436.088    1.8918427   0.18084921 
   18100   -926.76491    25.988106    -900.7768     930.7997   -92364.287    1.8918427  0.033621685 
   18200   -928.17928    27.401923   -900.77735    981.43752   -95144.089    1.8918427  0.053132975 
   18300   -927.27319    26.496854   -900.77633     949.0212   -94275.237    1.8918427   0.12088757 
   18400   -926.92466    26.148184   -900.77648    936.53314   -93699.626    1.8918427  0.051974411 
   18500   -927.14283    26.366227    -900.7766    944.34264   -93849.819    1.8918427  0.081961124 
   18600   -927.24886    26.472301   -900.77656     948.1418   -93944.103    1.8918427  0.027441585 
   18700   -927.60023    26.824168   -900.77606     960.7444   -93921.331    1.8918427  0.062528585 
   18800   -926.36853    25.592353   -900.77618    916.62528   -93029.765    1.8918427  0.034464594 
   18900   -928.75123    27.972306   -900.77893    1001.8665    -94515.18    1.8918427  0.045179738 
   19000   -926.65601    25.878901   -900.77711    926.88837   -93281.415    1.8918427  0.076858389 
   19100   -926.26892     25.49294   -900.77598    913.06465   -93560.134    1.8918427  0.038881233 
   19200   -927.14857    26.372357   -900.77622    944.56218   -93706.704    1.8918427   0.01872438 
   19300   -928.24664    27.469398   -900.77724    983.85421   -94811.327    1.8918427  0.046728213 
   19400   -928.43437    27.657105   -900.77726    990.57719   -94278.651    1.8918427  0.020464724 
   19500   -925.14079    24.365337   -900.77545    872.67801    -92108.87    1.8918427   0.10358665 
   19600   -926.96497    26.189215   -900.77575     938.0027   -93235.866    1.8918427  0.058738117 
   19700   -926.39337     25.61739   -900.77598    917.52201   -92742.582    1.8918427  0.097545591 
   19800   -928.24933    27.471149   -900.77819    983.91692   -95646.881    1.8918427  0.092928458 
   19900   -926.19672    25.421002   -900.77571    910.48809   -92573.024    1.8918427  0.058696348 
   20000   -926.96454    26.188022   -900.77652    937.95999   -94000.316    1.8918427   0.13743844 
   20100    -926.9491    26.171901    -900.7772    937.38257   -94092.972    1.8918427  0.018036618 
   20200   -928.19443    27.418505   -900.77593    982.03143   -94088.681    1.8918427  0.098455365 
   20300     -926.368    25.591215   -900.77678    916.58453   -93547.313    1.8918427  0.015814822 
   20400   -926.90623    26.130345   -900.77588     935.8942   -93051.416    1.8918427  0.082584889 
   20500   -925.41016    24.634519   -900.77565    882.31912   -92818.375    1.8918427  0.032608906 
   20600   -925.91073    25.134747   -900.77598     900.2355       -92005    1.8918427  0.015943692 
   20700   -925.87274     25.09689   -900.77585     898.8796   -92583.558    1.8918427  0.021565083 
   20800   -927.10691    26.329771   -900.77714    943.03691   -94582.777    1.8918427  0.036644473 
   20900   -928.39542     27.61922    -900.7762    989.22031   -94899.022    1.8918427   0.10148314 
   21000   -925.83379    25.057392    -900.7764     897.4649   -93760.363    1.8918427  0.042167908 
   21100   -927.95231    27.175373   -900.77694    973.32331   -94175.167    1.8918427  0.056933379 
   21200   -926.64606    25.868715   -900.77734    926.52355    -93590.86    1.8918427   0.14410865 
   21300   -927.94376    27.166765     -900.777    973.01502   -94609.931    1.8918427  0.027694042 
   21400   -927.14897     26.37308   -900.77589     944.5881   -93153.816    1.8918427  0.069183106 
   21500   -925.77807    25.001719   -900.77635    895.47091   -92572.134    1.8918427   0.10607974 
   21600    -926.2195    25.442946   -900.77656    911.27407   -93164.635    1.8918427  0.052941915 
   21700   -929.31165    28.533899   -900.77775    1021.9808   -94467.157    1.8918427   0.12162161 
   21800   -925.23495    24.457877   -900.77707    875.99245   -92538.528    1.8918427  0.048967984 
   21900   -927.51559    26.738599   -900.77699    957.67964   -93354.168    1.8918427  0.033832687 
   22000   -926.58632    25.810136   -900.77618    924.42549   -92104.367    1.8918427  0.017010009 
   22100   -925.74869    24.972407   -900.77628    894.42107    -92498.52    1.8918427 0.0056861133 
   22200   -926.63537    25.859379   -900.77599    926.18917   -91647.948    1.8918427  0.047565237 
   22300   -927.78651     27.00911    -900.7774    967.36838   -95205.531    1.8918427  0.024683727 
   22400   -928.35561    27.577677   -900.77794    987.73237   -93643.745    1.8918427   0.01633596 
   22500   -926.34682    25.570724   -900.77609     915.8506   -93931.193    1.8918427  0.057921107 
   22600   -925.50382    24.727798   -900.77603    885.66003   -91163.111    1.8918427  0.010836363 
   22700   -926.21898    25.442476    -900.7765    911.25722   -92165.711    1.8918427 0.0088718194 
   22800   -926.74236    25.966949   -900.77541    930.04196   -91797.153    1.8918427  0.026299084 
   22900   -925.65216    24.876464    -900.7757    890.98473   -91344.194    1.8918427  0.036768982 
   23000   -926.98701    26.209922   -900.77709    938.74434   -93278.637    1.8918427  0.053367237 
   23100    -925.2737    24.497519   -900.77618     877.4123    -93207.83    1.8918427  0.021675182 
   23200   -928.08891     27.31121    -900.7777    978.18851    -93654.37    1.8918427  0.058372989 
   23300   -925.23567    24.460155   -900.77552    876.07404   -89935.474    1.8918427  0.086149401 
   23400   -925.52242    24.745554   -900.77686      886.296    -90919.52    1.8918427  0.057717532 
   23500     -926.518    25.742702    -900.7753    922.01023   -90796.567    1.8918427   0.14786131 
   23543   -925.93634    25.159788   -900.77655    901.13235    -92233.13    1.8918427  0.078300249 
Loop time of 12.3935 on 1 procs for 23543 steps with 217 atoms

Performance: 104.572 ns/day, 0.230 hours/ns, 1899.619 timesteps/s
100.0% CPU use with 1 MPI tasks x no OpenMP threads

MPI task timing breakdown:
Section |  min time  |  avg time  |  max time  |%varavg| %total
---------------------------------------------------------------
Pair    | 12.2       | 12.2       | 12.2       |   0.0 | 98.44
Neigh   | 0.0049017  | 0.0049017  | 0.0049017  |   0.0 |  0.04
Comm    | 0.097948   | 0.097948   | 0.097948   |   0.0 |  0.79
Output  | 0.0065845  | 0.0065845  | 0.0065845  |   0.0 |  0.05
Modify  | 0.050969   | 0.050969   | 0.050969   |   0.0 |  0.41
Other   |            | 0.0328     |            |       |  0.26

Nlocal:    217 ave 217 max 217 min
Histogram: 1 0 0 0 0 0 0 0 0 0
Nghost:    888 ave 888 max 888 min
Histogram: 1 0 0 0 0 0 0 0 0 0
Neighs:    3612 ave 3612 max 3612 min
Histogram: 1 0 0 0 0 0 0 0 0 0
FullNghs:  7224 ave 7224 max 7224 min
Histogram: 1 0 0 0 0 0 0 0 0 0

Total # of neighbors = 7224
Ave neighs/atom = 33.2903
Neighbor list builds = 9
Dangerous builds = 0
Total wall time: 0:00:12
