LAMMPS (3 Mar 2020)
Reading data file ...
  orthogonal box = (0 0 0) to (17.469 17.469 17.469)
  1 by 1 by 1 MPI processor grid
  reading atoms ...
  217 atoms
  read_data CPU = 0.00102222 secs
Reading potential file library.meam with DATE: 2012-06-29
Reading potential file LiSi.meam with DATE: 2020-11-07
1 atoms in group Li
216 atoms in group Si
Neighbor list info ...
  update every 1 steps, delay 10 steps, check yes
  max neighbors/atom: 2000, page size: 100000
  master list distance cutoff = 6
  ghost atom cutoff = 6
  binsize = 3, bins = 6 6 6
  2 neighbor lists, perpetual/occasional/extra = 2 0 0
  (1) pair meam/c, perpetual
      attributes: full, newton on
      pair build: full/bin/atomonly
      stencil: full/bin/3d
      bin: standard
  (2) pair meam/c, perpetual, half/full from (1)
      attributes: half, newton on
      pair build: halffull/newton
      stencil: none
      bin: none
Setting up Verlet run ...
  Unit style    : metal
  Current step  : 0
  Time step     : 0.003
Per MPI rank memory allocation (min/avg/max) = 8.895 | 8.895 | 8.895 Mbytes
Step Temp E_pair E_mol TotEng Press Volume 
       0         1600   -951.04357            0   -906.37126   -115280.58    5330.9442 
    3200    1614.3977   -948.46378            0   -903.38949     4568.142    4590.5693 
Loop time of 2.32499 on 1 procs for 3200 steps with 217 atoms

Performance: 356.751 ns/day, 0.067 hours/ns, 1376.352 timesteps/s
100.0% CPU use with 1 MPI tasks x no OpenMP threads

MPI task timing breakdown:
Section |  min time  |  avg time  |  max time  |%varavg| %total
---------------------------------------------------------------
Pair    | 2.223      | 2.223      | 2.223      |   0.0 | 95.61
Neigh   | 0.050511   | 0.050511   | 0.050511   |   0.0 |  2.17
Comm    | 0.015328   | 0.015328   | 0.015328   |   0.0 |  0.66
Output  | 2.4918e-05 | 2.4918e-05 | 2.4918e-05 |   0.0 |  0.00
Modify  | 0.030917   | 0.030917   | 0.030917   |   0.0 |  1.33
Other   |            | 0.005219   |            |       |  0.22

Nlocal:    217 ave 217 max 217 min
Histogram: 1 0 0 0 0 0 0 0 0 0
Nghost:    957 ave 957 max 957 min
Histogram: 1 0 0 0 0 0 0 0 0 0
Neighs:    4169 ave 4169 max 4169 min
Histogram: 1 0 0 0 0 0 0 0 0 0
FullNghs:  8338 ave 8338 max 8338 min
Histogram: 1 0 0 0 0 0 0 0 0 0

Total # of neighbors = 8338
Ave neighs/atom = 38.424
Neighbor list builds = 85
Dangerous builds = 0
Setting up Verlet run ...
  Unit style    : metal
  Current step  : 3200
  Time step     : 0.003
Per MPI rank memory allocation (min/avg/max) = 9.665 | 9.665 | 9.665 Mbytes
Step PotEng KinEng TotEng Temp Press Density c_msdli[4] c_msdsi[4] 
    3200   -948.46378    45.074293   -903.38949    1614.3977     4568.142    2.1969624            0 6.3330996e-32 
    3300   -950.20153    41.641301   -908.56023    1491.4404    11289.708    2.2176584   0.10347094   0.10131459 
    3400   -943.31381    43.888411    -899.4254    1571.9237   -9236.2303    2.1525052  0.075929885   0.11174369 
    3500   -945.59789    42.705755   -902.89214    1529.5653    -8083.029    2.1598113   0.32747533   0.12614375 
    3600    -949.2025    43.778941   -905.42356    1568.0029    9765.4885    2.2091999  0.049779989   0.13804642 
    3700   -943.77313    47.079512   -896.69362    1686.2174    7859.3651     2.188567  0.086010889   0.12486179 
    3800   -945.73326    45.200592   -900.53267    1618.9213   -7194.2299    2.1568139  0.027189991   0.12130999 
    3900   -945.49668    39.891512   -905.60517    1428.7693     -3539.54    2.1675869   0.02703065   0.11557109 
    4000   -950.69132    50.056893   -900.63442    1792.8564    6369.0871    2.1996517 0.0079101574   0.11143386 
    4100   -944.14638    46.957473   -897.18891    1681.8464    5715.8431    2.1823102   0.07229883  0.093807137 
    4200   -951.78228     46.05087   -905.73141    1649.3752   -9805.2851      2.16303  0.074978401   0.10108284 
    4300   -944.32784    41.503957   -902.82388    1486.5212    -1862.376    2.1700537   0.25428879   0.10155269 
    4400   -946.22103    49.646998   -896.57403    1778.1754    5367.8834    2.1898137   0.11056995   0.12335173 
    4500   -950.40128    44.598354   -905.80293    1597.3513    1952.9633    2.1946786    0.1150457   0.12735391 
    4600   -946.89149    42.196741   -904.69475    1511.3342   -10111.853    2.1539295  0.022869112   0.14515876 
    4700   -947.85844    47.933783   -899.92465    1716.8143   -5988.5677    2.1657709   0.10470879   0.15438824 
    4800    -953.2358    46.174255   -907.06154    1653.7944    7792.5705     2.212097  0.037129307   0.13678529 
    4900   -948.74541    42.440611    -906.3048    1520.0688    843.08926    2.1859403  0.073753984     0.132812 
    5000   -943.70919     42.64803   -901.06116    1527.4978   -7676.0249     2.151093  0.014618492   0.13795822 
    5100   -946.95116    43.154099   -903.79707    1545.6233   -2092.0377    2.1768394  0.032585854   0.12038254 
    5200    -951.2524    43.112824   -908.13958     1544.145     12343.73    2.2169429  0.034246689   0.10205491 
    5300   -947.98794    48.678354   -899.30959    1743.4821   -2525.7085    2.1697816  0.048707193   0.10358888 
    5400   -944.10826    41.080852   -903.02741    1471.3671   -6794.7723    2.1552361   0.06029608   0.11821103 
    5500   -949.61759    43.397031   -906.22056    1554.3243    411.92004    2.1883258  0.025672091   0.14945453 
    5600   -944.03698    46.873112   -897.16386    1678.8249    8934.4006     2.194416   0.15917739    0.1527323 
    5700   -946.63942    46.180505   -900.45892    1654.0182    165.60999    2.1776204  0.025835162   0.15338298 
    5800   -947.18264    41.267508   -905.91513    1478.0525   -7584.1184    2.1613261  0.039329541   0.14291552 
    5900   -944.12702    44.013984   -900.11304    1576.4213    2111.7594     2.178334  0.099288694    0.1208232 
    6000   -940.48209    43.208666   -897.27342    1547.5777    11278.706    2.1903253   0.14516036   0.14654695 
    6100   -948.11238    42.513701   -905.59868    1522.6866   -216.27289     2.180318   0.09864678   0.13219317 
    6200   -945.78909      43.0648   -902.72429     1542.425   -4176.7264    2.1615345  0.055663956   0.11551143 
    6300   -942.88604    45.799065   -897.08698    1640.3564    1902.4593    2.1718428   0.05671478   0.12976383 
    6400   -949.23174    42.637404   -906.59434    1527.1172    8949.7979    2.2053421  0.072883241   0.11801301 
    6500   -945.19975    41.423948   -903.77581    1483.6556   -2772.6736      2.16666  0.019466489   0.13140339 
    6600   -944.24702    43.775219    -900.4718    1567.8696   -9138.6026    2.1485064   0.21430195   0.15056394 
    6700   -952.12511    45.164861   -906.96025    1617.6415    3351.0029    2.1963694   0.16889208   0.12288413 
    6800   -951.78284    44.703544    -907.0793    1601.1188    7751.1315    2.2084062   0.19594462   0.12711567 
    6900   -948.31878    47.181396   -901.13738    1689.8665   -5592.2229     2.161913   0.23162275   0.15077894 
    7000   -947.70481    44.457035   -903.24777    1592.2898   -8533.0052    2.1573284  0.037391592   0.12515473 
    7100   -953.16619    44.167572   -908.99862    1581.9222    3922.4358    2.2004047  0.047770372   0.12647581 
    7200   -949.24949    49.506412   -899.74308    1773.1401    2051.4118    2.1824846  0.067860551   0.12387144 
    7300   -948.20401    45.904069   -902.29994    1644.1173   -4786.8657    2.1679172    0.1063349   0.11524505 
    7400   -951.37079    44.404161   -906.96663     1590.396   -4111.1499    2.1774925  0.061401869   0.12315024 
    7500    -946.4762    44.480183   -901.99602    1593.1189    6092.6994    2.1892045 0.0012429032   0.12037669 
    7600   -943.45926    44.204683   -899.25458    1583.2514    2340.5858    2.1767599   0.69626686   0.13365105 
    7700   -947.23555     42.40274   -904.83281    1518.7124   -1839.6397    2.1763083  0.052440666   0.12454692 
    7800   -949.13911    45.025225   -904.11388    1612.6403   -853.85321    2.1805723  0.017166986   0.14758758 
    7900   -943.08069    46.815973   -896.26472    1676.7784    83.824277     2.171311    0.2915327   0.15710809 
    8000   -949.41903    45.531201   -903.88782    1630.7625    555.36579     2.184277  0.063830203    0.1536127 
    8100   -946.08107     41.57896   -904.50211    1489.2076    913.17057    2.1780623  0.034592785   0.14488734 
    8200   -944.11552     47.81249   -896.30303      1712.47   -2467.0865     2.165238   0.10109064    0.1350395 
    8300   -949.42897    44.913438   -904.51553    1608.6365    4862.1226    2.1932321 0.0082351442   0.11773065 
    8400   -946.43169     41.85707   -904.57462    1499.1684    1775.5829    2.1816991  0.012472186   0.12478381 
    8500   -947.17008    48.606927   -898.56315    1740.9239      -5323.2     2.159582   0.21321291   0.13487797 
    8600   -946.28882    41.583905   -904.70492    1489.3847    2034.9131     2.182416   0.25422673   0.13653359 
    8700   -947.59924    41.813901   -905.78534    1497.6223      6797.83    2.1972428   0.23143552   0.14696238 
    8800   -941.79737    41.394035   -900.40333    1482.5842    2875.8628    2.1740352   0.02090524   0.14931431 
    8900   -948.54538    45.647843   -902.89753    1634.9402   -8932.5375    2.1599112  0.045986139   0.16131258 
    9000   -950.21392    41.819171   -908.39475    1497.8111    2071.2222    2.1915993  0.037638357    0.1362687 
    9100   -941.12557    41.200747   -899.92483    1475.6613    11454.483    2.1964031   0.03879993   0.14733363 
    9200   -948.24721    45.373354   -902.87385     1625.109   -1337.1563    2.1746739   0.11350203   0.13069618 
    9300   -950.30096    41.074883   -909.22608    1471.1534   -6249.2474    2.1690825  0.042067946   0.12778864 
    9400    -946.2463    44.634937   -901.61136    1598.6616    37.046314    2.1838703  0.041997096   0.13569568 
    9500   -950.68295    50.170713   -900.51223     1796.933    8447.9638    2.2064802   0.12738358   0.14187254 
    9600   -949.14988    42.730834   -906.41904    1530.4635   -2443.8645    2.1788662  0.057933657   0.12969001 
    9700   -943.51003     44.10031   -899.40972    1579.5132   -9129.0551    2.1487196  0.039504453   0.14168738 
    9800   -943.99499    44.810374   -899.18461    1604.9451    4010.6373    2.1831069 0.0064590512   0.17726706 
    9900    -945.8016     41.73983   -904.06177    1494.9694     8920.798    2.2018378   0.19235522   0.15444308 
   10000   -949.31528    46.202908   -903.11237    1654.8206   -4415.4264    2.1734284   0.12580492   0.15696181 
   10100    -941.6327    45.381423   -896.25127     1625.398   -7652.2538    2.1499196   0.23842001   0.15173592 
   10200   -950.38865    45.208386   -905.18026    1619.2004    3109.6315    2.1944508  0.028949852   0.13870986 
   10300   -948.18727    45.057667    -903.1296    1613.8022    3691.5654    2.1935954  0.061880755   0.14037492 
   10400   -942.63224    44.979087   -897.65315    1610.9878   -657.43479    2.1644405  0.031803095   0.13641422 
   10500   -950.14428    43.346739   -906.79754     1552.523   -2487.8686    2.1807492   0.10844404   0.12421006 
   10600   -949.54773    44.711386   -904.83634    1601.3997    133.42293    2.1837268  0.038480578   0.13060614 
   10700   -945.46033    45.688872   -899.77146    1636.4097    2136.0836    2.1796391   0.10328574   0.14533807 
   10800   -948.67102    43.207654   -905.46337    1547.5415   -2733.6899    2.1811532  0.077334127   0.17031435 
   10900   -948.20135     41.06802   -907.13333    1470.9075   -1020.1389    2.1819623   0.11841951   0.15233406 
   11000     -947.706    47.019117   -900.68689    1684.0543     1642.314    2.1805898   0.23744328   0.14515227 
   11100   -949.56007    45.853348   -903.70672    1642.3006     128.6665    2.1849531  0.014780505   0.13615256 
   11200   -950.57835    41.118479   -909.45987    1472.7148    -961.4329    2.1889291   0.15549433   0.13411215 
   11300    -945.5092     44.95532   -900.55388    1610.1365   -2788.4709    2.1661282  0.053079104   0.13744253 
   11400   -942.90529    40.273798   -902.63149    1442.4614    5695.5807    2.1871294  0.080491696   0.13626848 
   11500   -949.19855    41.637874   -907.56068    1491.3176    7594.9004    2.2050894  0.026720198   0.12358733 
   11600   -947.96971    50.183299   -897.78641    1797.3838   -8340.3713    2.1546729  0.020999468   0.13251245 
   11700   -945.48435    43.783309   -901.70104    1568.1594   -2426.1406     2.164943  0.046114226    0.1423352 
   11800   -947.43304    42.916625   -904.51641    1537.1179    10222.148    2.2056904  0.018214526   0.13841435 
   11900   -946.09536    44.153068    -901.9423    1581.4028    6130.6592    2.1918104  0.057633068   0.14385887 
   12000   -944.32272    46.883945   -897.43878    1679.2129   -10339.523    2.1412699   0.14073312   0.14592591 
   12100   -946.20002    40.967396   -905.23263    1467.3036   -1767.8419     2.170046   0.16642502   0.12216002 
   12200   -947.91051    45.664785   -902.24572     1635.547    9883.1773    2.2060421  0.061687363   0.14086962 
   12300   -946.70994    50.524458   -896.18549    1809.6029    656.48624    2.1769466  0.029698054   0.13443542 
   12400   -947.68207    43.138239   -904.54383    1545.0553   -7706.7771    2.1599165  0.081907325   0.13998399 
   12500    -946.4238    41.861019   -904.56278    1499.3099   -2193.7503    2.1704104   0.10219333   0.15120167 
   12600   -945.53133    46.424074   -899.10726     1662.742      6102.47    2.1906974   0.22635024   0.13556315 
   12700   -947.62322    43.132573   -904.49065    1544.8523    1525.6018    2.1812995   0.12132299   0.13275188 
   12800   -948.82223     41.65702   -907.16521    1492.0034   -4117.9196     2.171121   0.25180882   0.12985062 
   12900   -945.57939    44.714708   -900.86468    1601.5187    253.02232    2.1735296   0.19471976   0.13963306 
   13000   -949.10897    46.018505   -903.09047     1648.216    2035.9248    2.1869269    0.1294292   0.13724098 
   13100   -951.12722     41.90205   -909.22517    1500.7795    2187.9096    2.1910166   0.15714816   0.13809899 
   13200   -948.83916    47.719439   -901.11972    1709.1372   -5857.2867    2.1660813   0.07919811   0.12851925 
   13300    -948.9419    46.332342   -902.60956    1659.4564   -1458.5862    2.1760047  0.076595074   0.12092362 
   13400   -949.95393    41.285247   -908.66869    1478.6878    3617.1158    2.1954012  0.016512924   0.13111963 
   13500   -946.22322     46.55949   -899.66373    1667.5921   -1368.9304    2.1727746   0.21245453   0.13984244 
   13600    -950.2722    48.557512   -901.71469     1739.154   -3222.1089    2.1743772   0.21525286    0.1392721 
   13700   -951.23961    44.725046   -906.51457     1601.889   -1013.2608    2.1855952   0.19780013   0.14282775 
   13800    -948.6693    48.917367   -899.75193    1752.0427   -346.96063    2.1799368  0.072828133    0.1294227 
   13900   -946.07205    46.550878   -899.52117    1667.2836   -1422.7659    2.1727018  0.041052908    0.1391144 
   14000   -948.27623    42.805862   -905.47037    1533.1508   -779.20397    2.1782551  0.027697201   0.13891335 
   14100   -945.73524    44.166012   -901.56923    1581.8664    1874.7871     2.180384  0.095702907   0.12720522 
   14200   -942.76825    45.547613   -897.22064    1631.3503    932.17498    2.1668542   0.21990974   0.12904911 
   14300   -949.25757    43.834069    -905.4235    1569.9774    508.08463    2.1823729   0.17774862   0.12042051 
   14400   -949.21881    46.957766   -902.26104    1681.8569    176.82624    2.1813199   0.17317583   0.11662199 
   14500   -944.78334    47.936295   -896.84705    1716.9042   -281.44312    2.1679765  0.095244403   0.13834619 
   14600   -952.44621    45.955659   -906.49055    1645.9651   -1013.8027    2.1862469   0.22111417   0.12900034 
   14700   -949.12093     45.64181   -903.47912    1634.7241   -1254.9498    2.1766956   0.27944388    0.1319854 
   14800   -943.78359    45.049694   -898.73389    1613.5167    986.29414    2.1699131  0.018105787   0.13305783 
   14900    -950.5177    42.620174   -907.89752    1526.5001     2514.919    2.1900754 0.0043330717   0.13714513 
   15000    -946.4818    42.210123   -904.27168    1511.8135   -239.65444    2.1747147  0.095450104   0.13420763 
   15100   -946.58042    46.407265   -900.17316    1662.1399   -3207.9277    2.1678477  0.029293915   0.12715038 
   15200   -953.90506    46.161255    -907.7438    1653.3288    746.62864    2.1936777  0.020584425   0.11531882 
   15300   -950.06277    44.771422   -905.29135      1603.55    2120.4725    2.1902008   0.13050265   0.11342273 
   15400   -944.42655    43.984244   -900.44231    1575.3561   -3029.4319    2.1634938  0.031722088   0.14001076 
   15500   -947.87011    41.656783   -906.21333    1491.9949   -2299.4475    2.1738382  0.036764693   0.12257562 
   15600   -948.69506    42.572497   -906.12257    1524.7924    5135.6749    2.1942998  0.098811371   0.11903043 
   15700     -948.533    49.620446   -898.91256    1777.2244    519.22355    2.1789149   0.16980192   0.13014855 
   15800   -949.86011    45.015754   -904.84436     1612.301   -6460.2854    2.1640606  0.022302978    0.1353775 
   15900   -951.75059    45.975977   -905.77461    1646.6928   -3854.4041    2.1761915  0.078264179   0.12949909 
   16000   -947.27302    50.156926   -897.11609    1796.4392    777.63115     2.178397  0.068813296   0.14093098 
   16100   -947.93351    44.984886   -902.94862    1611.1955     3419.964    2.1877068   0.11632804   0.12442993 
   16200   -948.75993    42.739058   -906.02087    1530.7581   -4072.6881    2.1687794   0.26407063   0.11052708 
   16300   -942.79103    45.549091   -897.24194    1631.4033   -1916.0481    2.1558586   0.20872443   0.11803426 
   16400   -948.29322    45.355875   -902.93734     1624.483    8513.3789    2.1985671   0.10254807   0.11348228 
   16500   -949.44305    44.092256   -905.35079    1579.2247    1120.2762    2.1863128   0.02354219    0.1327854 
   16600   -946.62013    47.099437   -899.52069     1686.931   -9413.1576    2.1509539  0.057837094   0.14273361 
   16700   -945.89538    45.052129   -900.84325    1613.6039   -3016.2179    2.1661162 0.0064555057   0.15669864 
   16800    -947.4628    41.410031   -906.05277    1483.1571    10542.693    2.2078818  0.055105865   0.13170204 
   16900   -947.45417    47.390548   -900.06362    1697.3576    4430.1028    2.1840588  0.050982147   0.13220074 
   17000   -948.56668    46.612142   -901.95454    1669.4779   -11425.093    2.1450412   0.16079213   0.12766968 
   17100   -950.47689    41.450512   -909.02638     1484.607    -4669.176    2.1756191   0.26879674   0.12334943 
   17200   -945.23932    44.522286   -900.71704    1594.6268    13203.024     2.204123   0.10986202   0.13926057 
   17300   -945.68006    44.478442   -901.20161    1593.0565    6959.4066     2.187304   0.14677103   0.12380287 
   17400   -948.90155    40.459301   -908.44225    1449.1054   -10627.581    2.1551166  0.047999565   0.13397105 
   17500   -948.72722    46.579725    -902.1475    1668.3168     -6635.46    2.1654045 0.0057769621   0.13391317 
   17600    -944.7997    46.002654   -898.79704    1647.6482    8716.1531    2.1934687  0.035443781   0.14294435 
   17700   -950.38207    43.984769    -906.3973    1575.3749    2375.0007    2.1888756   0.24790986   0.12869563 
   17800   -944.55082    43.084891   -901.46592    1543.1446   -2081.1738    2.1665525   0.20829926    0.1453088 
   17900   -942.63117    44.036907   -898.59426    1577.2423   -877.30848     2.164623   0.24008313   0.12997081 
   18000   -948.11691    42.080022   -906.03689    1507.1538    4234.9868    2.1902775   0.13638718   0.12374239 
   18100   -947.49269    45.841465   -901.65123     1641.875    2290.4731    2.1843252   0.12096405   0.12696701 
   18200   -943.77614    45.080589   -898.69555    1614.6232   -2950.9805     2.164715  0.076864035   0.11437975 
   18300   -947.78163    40.469452   -907.31218     1449.469     221.4525    2.1837372    0.0307546   0.13584156 
   18400   -948.57614    46.697159   -901.87898    1672.5229    1691.7741    2.1863716  0.033851164   0.12586574 
   18500   -947.74276    48.296234   -899.44652    1729.7959    734.26578    2.1779068   0.13859753   0.13118526 
   18600   -949.55895    41.358622   -908.20033    1481.3158   -1935.2167    2.1790173  0.045661235   0.13298235 
   18700   -945.75062    43.357512   -902.39311    1552.9088   -1270.3315     2.171513  0.075452608   0.12928058 
   18800   -946.68977     46.96383   -899.72594    1682.0741    3285.5273    2.1831026   0.37668064   0.12177732 
   18900   -950.22726    42.425324   -907.80194    1519.5212    4535.4297    2.1950146    0.3039716   0.11791722 
   19000   -946.42759     44.85751   -901.57008    1606.6333      -6206.3    2.1574909  0.022527561   0.11994127 
   19100   -945.86978    45.360935   -900.50885    1624.6642   -1893.7355    2.1676336  0.036489756    0.1311616 
   19200    -947.4189    41.285748   -906.13315    1478.7058    12017.001    2.2059939   0.10960132   0.13990237 
   19300   -949.16294     46.22459   -902.93835    1655.5972    1799.1854    2.1852317  0.052842508   0.11732104 
   19400   -943.88594    44.234106   -899.65183    1584.3053    -11615.46    2.1448247   0.11247264    0.1389833 
   19500   -952.46905    46.267354    -906.2017    1657.1288   -5047.4643    2.1754067 0.0023917978   0.11166625 
   19600   -948.71001    46.069519   -902.64049    1650.0431    14682.712     2.211751  0.052085878   0.11562566 
   19700   -944.61579    47.120645   -897.49515    1687.6906    1980.4487    2.1729454  0.032501737   0.14496703 
   19800   -946.73091    40.807744   -905.92316    1461.5854   -10082.381    2.1526204   0.11602295    0.1417436 
   19900   -951.38122    47.272769   -904.10845    1693.1392   -4907.3798    2.1746364  0.088296895   0.12771962 
   20000   -946.37992    49.328414   -897.05151    1766.7649    6244.3113    2.1897676 0.0068562479   0.11789002 
   20100   -947.88567    42.740707   -905.14496    1530.8171    433.88587    2.1823504  0.013543629   0.13251337 
   20200    -948.1304    43.037143   -905.09326    1541.4344   -6919.6732    2.1620772  0.055831662   0.12781953 
   20300   -943.11903    44.394023   -898.72501    1590.0329     358.7697    2.1687169   0.04475919   0.15515106 
   20400   -952.21087    45.928714   -906.28215         1645      2413.72     2.194949   0.12250305   0.13676296 
   20500   -946.95946    41.721561    -905.2379     1494.315    1544.8877     2.180013  0.024014886   0.12435743 
   20600   -945.46826    45.968178   -899.50008    1646.4134   -4101.7111     2.160706  0.044283191   0.14518404 
   20700   -950.28076    43.804435   -906.47632     1568.916   -309.40228    2.1838651  0.065646017   0.12574145 
   20800    -949.1515    44.005007   -905.14649    1576.0998     2683.765    2.1885633  0.053783237   0.14037429 
   20900   -942.44926    43.368531   -899.08073    1553.3035   -1110.6828    2.1674593  0.011509321   0.14747179 
   21000   -951.96561    45.654468   -906.31114    1635.1775   -5441.2032    2.1731942   0.10970555   0.13067668 
   21100   -948.48663    44.342214   -904.14441    1588.1773    1900.3754    2.1806465   0.11446108   0.13183508 
   21200    -948.6701    50.539076   -898.13102    1810.1264    2287.3177    2.1816106   0.14457342   0.14175272 
   21300   -949.81573    44.227728     -905.588    1584.0768   -2327.2355     2.175398   0.20449369   0.13239627 
   21400   -947.07831    43.647127   -903.43119    1563.2818   -7972.5872    2.1549077    0.2393443   0.13380056 
   21500   -944.33829     46.71333   -897.62496    1673.1021    4667.6437    2.1789363   0.48152591   0.13285847 
   21600   -948.58959    44.697365   -903.89222    1600.8975    10562.185    2.2059289  0.079324841   0.12343027 
   21700   -949.53557    43.660263   -905.87531    1563.7523   -5020.6552    2.1694781  0.079187683   0.14014669 
   21800   -944.98814    47.273252   -897.71489    1693.1565   -12646.616    2.1398666   0.22522833    0.1412521 
   21900   -950.54822    45.433554   -905.11466    1627.2651      6212.53    2.1989998  0.076345334   0.12383419 
   22000   -950.48345    45.746113   -904.73734    1638.4599    8443.3145    2.2039326  0.070385142   0.13337919 
   22100   -946.23812    46.934787   -899.30334    1681.0339   -8188.0796    2.1538311  0.061407391   0.13869524 
   22200   -944.92074    41.527446   -903.39329    1487.3625   -7006.0578    2.1568606  0.055952376   0.15496876 
   22300    -951.4165    45.273217   -906.14328    1621.5225    4990.8599    2.1982349  0.096107602   0.13478531 
   22400   -946.89034    47.773813   -899.11653    1711.0847    6239.2152    2.1900352   0.11964673   0.14032249 
   22500      -946.47    43.059269   -903.41074    1542.2268   -3997.1011    2.1674151   0.02355748   0.14230882 
   22600   -950.75523    42.872574   -907.88266    1535.5401   -4297.0635    2.1730769  0.083952883   0.13389527 
   22700     -946.438    46.918277   -899.51972    1680.4425    847.77255    2.1775369   0.12154025   0.15119132 
   22800   -950.30439    47.202409   -903.10199    1690.6191    1303.0889    2.1880183   0.12354666   0.14013064 
   22900   -949.24755    41.156821   -908.09073    1474.0881   -306.16462    2.1834139  0.016663739   0.14339163 
   23000   -944.42276    45.215888   -899.20687    1619.4691   -2210.9039    2.1634013   0.10046747   0.14667941 
   23100   -946.56049    43.660741   -902.89974    1563.7694     2715.923    2.1848528  0.041956028   0.15303011 
   23200   -949.25852    42.392621    -906.8659    1518.3499    2230.2743     2.191038  0.071415214   0.14145468 
   23300    -944.3044    46.117963   -898.18644    1651.7782   -403.60192    2.1650442    0.1348879    0.1400183 
   23400   -947.43501    43.694271   -903.74074    1564.9703   -1334.1056    2.1769823   0.27068744   0.13614224 
   23500   -945.18888    39.236872     -905.952    1405.3225    4341.8721    2.1863644  0.016364578   0.14223153 
   23600   -943.42778    45.752916   -897.67486    1638.7035   -819.06903    2.1675344  0.016855635   0.14946095 
   23700    -946.5589     42.80203   -903.75687    1533.0135    1434.1014    2.1789274  0.038512341    0.1321373 
   23800   -947.17828    41.882729   -905.29555    1500.0875    401.81228    2.1814167   0.16060636   0.13699149 
   23900   -943.93923    46.102446   -897.83678    1651.2224   -2277.9724    2.1674849  0.030484762    0.1445146 
   24000    -945.3269    40.499968   -904.82693     1450.562    3492.7094    2.1828542  0.015381075   0.13950406 
   24100   -945.93116    40.431848   -905.49931    1448.1222    2069.4903    2.1827266  0.074706698   0.14630448 
   24200   -946.21616    47.402951   -898.81321    1697.8018   -2516.2797    2.1684793  0.017989571    0.1408762 
   24300   -949.78915    44.640481   -905.14867    1598.8601   -1027.9807    2.1800086  0.068572304   0.11982757 
   24400   -948.13694    41.851238    -906.2857    1498.9596   -236.42016    2.1784398  0.046840428    0.1312118 
   24500   -943.85733     44.48299   -899.37434    1593.2194   -1323.4109    2.1717585    0.1673127   0.13112905 
   24600   -948.90752    43.575707   -905.33181    1560.7238    1825.6709    2.1849203  0.035549206   0.13167307 
   24700   -951.73337    45.229388   -906.50398    1619.9526    462.36692      2.18334  0.061363927   0.13386835 
   24800   -945.47955    46.336361   -899.14319    1659.6004     -1621.12    2.1664759   0.10327026   0.14717873 
   24900   -948.90129     43.66429     -905.237    1563.8965   -481.30423    2.1796826  0.087372399   0.14674977 
   25000   -948.78682    42.872827     -905.914    1535.5492    2959.2747    2.1881677  0.059361704   0.13566562 
   25100   -945.71796    47.590652   -898.12731    1704.5246    -212.5743    2.1702559  0.032595162   0.12759448 
   25200   -949.21822    44.223112   -904.99511    1583.9115   -4345.3737    2.1717294  0.044542335   0.13884697 
   25300   -948.18947    42.825196   -905.36427    1533.8432   -740.67436    2.1796182  0.054763068   0.13272145 
   25400   -945.47334    48.336513   -897.13682    1731.2386    1670.3317    2.1744459 0.0060352938   0.13284034 
   25500    -950.5468    46.007276   -904.53952    1647.8138   -2174.6273    2.1783833  0.071005143   0.13167847 
   25600   -948.03736    42.918779   -905.11858     1537.195   -3591.6913    2.1714332   0.01293053   0.12913025 
   25700   -945.79278    48.710946   -897.08183    1744.6494   -602.62968    2.1663665  0.034057512   0.14102004 
   25800   -949.17075    44.689936   -904.48082    1600.6315    5325.7437    2.1911681 0.0052208191   0.14418182 
   25900   -950.86809    45.978815   -904.88928    1646.7944   -2188.9533    2.1782254   0.14342694   0.13858665 
   26000   -944.59071    46.772544   -897.81817    1675.2229    -7352.851    2.1528956  0.030199861   0.14807238 
   26100   -951.34371    45.604944   -905.73876    1633.4037    205.50834    2.1889332  0.074002488   0.13413759 
   26200   -949.41695    44.512097   -904.90486    1594.2619     7460.976    2.1996077  0.060565911    0.1224267 
   26300   -945.04575    45.860822   -899.18493    1642.5683   -3252.1177     2.167201 0.0051681184   0.13956235 
   26400   -948.88926    44.622518   -904.26674    1598.2168   -8885.1956     2.156667   0.11039587    0.1431982 
   26500   -950.81079    44.563263   -906.24752    1596.0945    3398.4589    2.1934088  0.071561967    0.1293283 
   26600   -947.32456    48.867281   -898.45728    1750.2488    9357.8495    2.2014024  0.069659069   0.15369139 
   26700    -949.1133    45.170653   -903.94264     1617.849   -5692.9674    2.1672166 0.00074693456   0.14677016 
   26800   -947.93048    39.907914   -908.02257    1429.3568   -11087.942    2.1551311  0.072536932   0.14990164 
   26900   -946.66129     47.23871   -899.42258    1691.9193    5089.4809    2.1856257   0.12357271   0.14714373 
   27000   -947.43306    45.693317   -901.73974    1636.5689    11024.873    2.2052163  0.002942285   0.14240127 
   27100   -949.43106    41.771369   -907.65969    1496.0989   -4050.5866    2.1754281  0.011451455   0.12982597 
   27200   -944.43025    45.281258   -899.14899    1621.8104   -6593.0976    2.1539676  0.067010322   0.14102119 
   27300   -949.11422    47.458738   -901.65548    1699.7999    1365.4156    2.1838098   0.12066751   0.13719842 
   27400   -946.86341     40.75759   -906.10582    1459.7891    5836.2699    2.1938996  0.015205844   0.12781631 
   27500   -944.13861    45.236209   -898.90241     1620.197   -2944.3201    2.1667354   0.14781519   0.15297418 
   27600   -948.76919    47.091232   -901.67796    1686.6372   -5666.7312    2.1679469  0.076385587   0.14403975 
   27700   -952.00598    45.628673    -906.3773    1634.2536    753.36914    2.1901997  0.079410128   0.13326624 
   27800   -944.23186    45.514726   -898.71713    1630.1724    3797.3228    2.1799586  0.043616487   0.16253061 
   27900   -947.49106    45.304188   -902.18688    1622.6317   -1359.6197    2.1741058  0.032390074   0.15501384 
   28000   -950.20862    43.074178   -907.13444    1542.7608   -4057.0529    2.1777607  0.011470385   0.13828467 
   28100   -944.10107    44.715159   -899.38592    1601.5348    1535.5928    2.1774894  0.047772544   0.16028705 
   28200   -945.97037    43.514043   -902.45633    1558.5152    7568.7832    2.1932724   0.10471508   0.13727515 
   28300   -951.95933    44.718603   -907.24073    1601.6582   -3886.8672     2.178999  0.070304154   0.12412597 
   28400   -942.72058    42.504407   -900.21618    1522.3537   -6246.2961    2.1527522    0.4539121   0.16016434 
   28500   -946.93925    45.628345   -901.31091    1634.2419    3799.9611    2.1893467   0.11044153   0.14300628 
   28600   -949.61298    43.248016   -906.36496    1548.9871    12458.768    2.2165786   0.12596924   0.14595675 
   28700   -943.12573     43.66194   -899.46379    1563.8124   -5193.5868    2.1566914  0.096998196    0.1637168 
   28800   -947.71697    46.029598   -901.68737    1648.6133    -13759.78    2.1468817   0.17121176   0.15256667 
   28900   -948.14336    42.358007   -905.78535    1517.1102    7913.6754     2.202779   0.09839508   0.14791404 
   29000    -943.2584    43.960811   -899.29759    1574.5168    13618.353    2.2017755   0.06824236   0.15792902 
   29100   -942.24139    42.291583   -899.94981    1514.7311   -5397.0682    2.1574399  0.072191692   0.16331221 
   29200   -949.14422     42.23856   -906.90566     1512.832   -6125.4463    2.1657767  0.071407245   0.15118637 
   29300   -951.60452    50.136462   -901.46806    1795.7063    2779.2683    2.1895171    0.1785962   0.14298747 
   29400   -944.71708    46.188179    -898.5289    1654.2931     3406.988    2.1796829  0.095838991   0.13291078 
   29500   -947.76996     40.58076    -907.1892    1453.4557   -1613.2113    2.1764772  0.041819704   0.14121852 
   29600   -949.57003    46.879741   -902.69029    1679.0623   -4279.1597    2.1695949   0.02759143   0.13545956 
   29700   -947.18689    49.114008   -898.07288    1759.0856   -498.22913      2.17466  0.092548322   0.14244372 
   29800     -950.246    43.136924   -907.10908    1545.0082    3739.1095    2.1940943  0.080853866   0.15238273 
   29900   -947.86171    44.755633   -903.10608    1602.9845   -4297.4756    2.1697654   0.10570379   0.14938921 
   30000   -943.03077    43.479177    -899.5516    1557.2665   -804.81007    2.1642426  0.094303867   0.15271573 
   30100   -953.73731    45.894594   -907.84272    1643.7779    1152.6811    2.1943022  0.087698821   0.13309548 
   30200   -950.96366    48.460239   -902.50342      1735.67    -94.28598     2.181262  0.033729642   0.13815971 
   30300   -944.19731    43.992547   -900.20476    1575.6535   -865.92892     2.166035  0.022254613   0.13945832 
   30400    -952.4687    44.382778   -908.08592    1589.6301   -5579.1696    2.1784896  0.088279668   0.14326821 
   30500   -947.24751    44.685185   -902.56233    1600.4613    6727.6618    2.1944937   0.23777326   0.13555264 
   30600   -947.64848    48.385102   -899.26337    1732.9789    4762.5927    2.1899606  0.049001855    0.1376596 
   30700   -946.66755    39.668534   -906.99902     1420.783   -8205.5836    2.1596127  0.046496844   0.13554006 
   30800   -945.99752    43.501571   -902.49595    1558.0685   -7461.0572    2.1624085     0.082441     0.153078 
   30900   -946.31101    49.233902   -897.07711    1763.3798    11561.357    2.2037102  0.020012973   0.14736672 
   31000   -948.67663    43.592143   -905.08448    1561.3125    6081.0938    2.1980285  0.044839801   0.14738228 
   31100   -947.06202      43.8592   -903.20282    1570.8775   -11387.408    2.1533689  0.034186322   0.16375927 
   31200   -943.30968    45.557216   -897.75246    1631.6943   -4612.2492    2.1579499  0.035159765   0.13622505 
   31300   -951.19922    45.847811   -905.35141    1642.1023    10047.762    2.2107795  0.038084532   0.12380829 
   31400   -950.32041     46.09858   -904.22183    1651.0839    1363.1621    2.1874502   0.10755048   0.13327493 
   31500   -944.72931     45.76066   -898.96865    1638.9809   -9962.8844    2.1484726   0.12085294   0.13773675 
   31600   -949.19129    41.946138   -907.24515    1502.3585   -931.40634    2.1815829  0.040934559   0.13145562 
   31700   -950.27187    46.126753   -904.14512     1652.093    5109.6931    2.1969415  0.030178624   0.12798208 
   31800   -947.04069    48.124001   -898.91669    1723.6272   -854.56571    2.1717941  0.061135181   0.13629129 
   31900   -948.91971    42.607702   -906.31201    1526.0534   -5378.4979     2.165884  0.015815794   0.13015423 
   32000   -949.53042    43.779818    -905.7506    1568.0343   -2449.5981    2.1731484   0.11579882   0.12719706 
   32100    -945.5163     46.55064   -898.96566    1667.2751    5626.9389    2.1854698  0.032036012   0.11669511 
   32200   -949.56306    44.223126   -905.33993     1583.912     1799.646    2.1835872  0.021062792    0.1286129 
   32300   -948.53116    41.724673   -906.80649    1494.4265   -3482.4789     2.169926  0.049943445    0.1241187 
   32400   -946.18958    47.324409   -898.86517    1694.9887   -3703.4736    2.1639971  0.059266475   0.13932379 
   32500   -947.73122    44.255452   -903.47577    1585.0698    4650.7808    2.1884707    0.4819901   0.15675982 
   32600   -949.65166    45.699158    -903.9525    1636.7781    3091.1271    2.1850378   0.18820414   0.12394168 
   32700   -942.54829    45.982802   -896.56549    1646.9372   -5825.7212    2.1503969  0.011469253   0.12863183 
   32800   -946.88844    41.922432     -904.966    1501.5095   -1630.7414    2.1744821   0.10351603   0.13887966 
   32900   -947.06724    44.050838   -903.01641    1577.7413    12443.404     2.211636  0.069538517   0.12181437 
   33000   -944.24665     48.53735    -895.7093    1738.4318    4758.7713    2.1804377   0.23578821   0.13547844 
   33100   -942.00579    40.565402   -901.44039    1452.9056   -14853.916     2.128421   0.10236255   0.14965997 
   33200   -949.96386    44.946135   -905.01773    1609.8076   -5955.8862    2.1699711 0.0055415883   0.11897485 
   33300   -946.13135    46.792116   -899.33923    1675.9239    18650.489    2.2200838  0.033489963   0.13519263 
   33400   -944.19223    44.473335   -899.71889    1592.8736    916.17094    2.1782495   0.12099707   0.14425261 
   33500   -948.68116    41.021292   -907.65987    1469.2339   -8303.1299    2.1604706  0.078018315   0.12545064 
   33600   -946.37019    43.291958   -903.07823    1550.5609    2002.6837    2.1810183   0.10695364   0.12454829 
   33700   -947.85018    48.786678    -899.0635    1747.3619     7507.296    2.1974067   0.02706479   0.11514029 
   33800   -951.38748    43.818415   -907.56907    1569.4167   -2633.3846    2.1792193   0.15687161   0.11267318 
   33900   -949.28583    43.875995   -905.40983     1571.479    -11392.43    2.1543049  0.060961917    0.1278945 
   34000   -945.83982    45.550863   -900.28896    1631.4667     3349.505    2.1810971  0.098877154   0.13223063 
   34100   -951.49493    46.412378   -905.08256     1662.323    8186.6924    2.2060133  0.091840339   0.12802506 
   34200   -953.81518    44.370981    -909.4442    1589.2076   -4114.6809    2.1807106  0.025836055   0.13002361 
   34300   -944.70167    44.089496   -900.61217    1579.1258   -9008.1669    2.1482465   0.23735487   0.13825436 
   34400   -946.17572    43.287384   -902.88834    1550.3971    4645.5396    2.1861131   0.16200897   0.12118912 
   34500   -948.98235    42.085788   -906.89656    1507.3603    10060.001    2.2074582  0.039559691   0.13323726 
   34600   -943.73116    46.606981   -897.12417     1669.293   -2811.5911    2.1576842  0.037820843   0.13175772 
   34700   -946.74579    44.566225   -902.17957    1596.2006   -3845.3862    2.1671786  0.027861988   0.12118503 
   34800   -946.41352     41.47928   -904.93424    1485.6374    4433.3955    2.1904657  0.059892333   0.13762815 
   34900    -944.1838    46.182345   -898.00146    1654.0841    5118.8479    2.1823906  0.056225145   0.12822489 
   35000    -945.4614    45.915578   -899.54582    1644.5295   -3453.5467    2.1646221  0.051153028    0.1336846 
   35100   -946.03466    40.491927   -905.54273     1450.274   -1955.8447    2.1712669  0.016882288   0.14112967 
   35200   -946.24455    45.892167   -900.35238     1643.691    3240.2055    2.1817041   0.25356904   0.13735217 
   35300   -945.38081    47.335566   -898.04525    1695.3883    181.99141    2.1731635  0.059009465   0.14079842 
   35400   -947.04449    40.646747   -906.39774    1455.8191    1462.0889    2.1812913  0.091909826   0.13473602 
   35500    -950.1025    47.754149   -902.34835    1710.3804   -3656.7823    2.1770031  0.023144026    0.1335853 
   35600    -946.8898    48.313681   -898.57612    1730.4209   -1495.1579    2.1720506  0.018162656   0.13349203 
   35700   -950.58266    42.431386   -908.15127    1519.7384    2362.8789    2.1922502  0.025743052   0.13851313 
   35800   -945.84496    41.679099   -904.16586    1492.7942   -1778.5953    2.1749818  0.055537053    0.1391516 
   35900   -946.33418    46.164055   -900.17013     1653.429   -2650.5986    2.1705155   0.10001601   0.13844464 
   36000    -951.8838    43.807928   -908.07587    1569.0411     -739.464     2.187527   0.20115452   0.14322725 
   36100   -948.65727    43.065664    -905.5916    1542.4559   -242.04801    2.1813014  0.084666392   0.13677254 
   36200    -944.2833    43.705896    -900.5774    1565.3867     895.3983     2.171603   0.23489907   0.15122727 
   36300   -946.43203     40.78112   -905.65091    1460.6318    1545.3541    2.1822345  0.073651872   0.13897192 
   36400   -953.28768    45.118965   -908.16872    1615.9977   -535.28151    2.1888573  0.055287385   0.11464733 
   36500   -947.20465    47.389213   -899.81544    1697.3098   -3375.9779    2.1693988  0.017565916   0.13749894 
   36600   -947.80285    43.961891   -903.84095    1574.5555   -832.73724     2.174734   0.07981332   0.13176072 
   36700   -950.66296    43.320057    -907.3429    1551.5673    -576.8897    2.1886506 0.0049872927   0.12593922 
   36800   -944.32429    46.802645   -897.52164     1676.301   -1160.8053    2.1668335   0.14384219   0.14559419 
   36900   -950.07694    48.190159   -901.88678    1725.9967     -202.879    2.1814917  0.063996106   0.12719263 
   37000    -950.6667    45.261877   -905.40482    1621.1163   -604.32982     2.183022  0.012207753    0.1377825 
   37100   -942.98889    45.504429   -897.48446    1629.8036   -1278.9291    2.1643808  0.073288568   0.16111389 
   37200   -947.05408    46.738185    -900.3159    1673.9923   -471.63649    2.1781683  0.024151898    0.1444967 
   37300   -950.81479    46.019404   -904.79539    1648.2482   -715.91245    2.1824355 0.0086933027   0.14032155 
   37400   -946.30908    46.296776    -900.0123    1658.1826    1397.4984    2.1773348  0.020133106    0.1328377 
   37500    -943.6332    45.693522   -897.93968    1636.5763   -1072.4678    2.1668708  0.057373964   0.14757847 
   37600   -947.83849     41.60697   -906.23152    1490.2108    3294.6474    2.1892353  0.046972402   0.14328026 
   37700   -946.51799    44.682117   -901.83587    1600.3514    4451.7198     2.187083   0.31640286   0.12837531 
   37800   -943.87922    44.621805   -899.25742    1598.1912   -1786.5271    2.1657402   0.03377622   0.14357607 
   37900   -952.04564    43.071584   -908.97406     1542.668   -2785.7177    2.1818628   0.14066421   0.12924412 
   38000   -948.89478    44.874763   -904.02002    1607.2513    619.95476    2.1809356   0.25244913   0.14143895 
   38100   -947.00035    46.971887   -900.02847    1682.3626    3702.0401    2.1804174  0.024933904    0.1421724 
   38200    -950.6137    43.785397    -906.8283    1568.2341   -1281.3507    2.1798589   0.15661622   0.13555957 
   38300   -947.52623    40.745708   -906.78053    1459.3635   -3453.1158    2.1690359  0.035500749   0.13916779 
   38400   -943.98911     43.36722   -900.62189    1553.2565    4890.7345    2.1807702  0.036866091    0.1356681 
   38500   -950.48972    46.416926    -904.0728     1662.486    4007.4836    2.1936069  0.022438259   0.13414315 
   38600    -952.3485    42.294417   -910.05409    1514.8326   -4190.4043    2.1805513   0.40412308   0.13185593 
   38700   -945.99588    45.047496   -900.94838     1613.438   -9044.3513    2.1547569   0.05675942   0.12885726 
   38800   -949.49522    47.584768   -901.91045    1704.3138    5808.2581    2.1979209   0.29036299   0.13303983 
   38900   -949.41764    42.591373   -906.82626    1525.4685     12052.97    2.2119224  0.023542073   0.13190631 
   39000   -943.72074    46.079839    -897.6409    1650.4127    -8442.782     2.147586 0.0084945131   0.14401933 
   39100   -947.38062    46.356042   -901.02458    1660.3053   -6987.1391    2.1612222  0.037837717    0.1435774 
   39200   -953.10695     48.81836   -904.28859    1748.4966    5754.6594    2.2038496  0.079646335   0.13126155 
   39300   -949.31054    45.902813   -903.40773    1644.0723    3622.5396    2.1953891  0.039393895   0.13850106 
   39400   -942.11497    45.548888   -896.56608     1631.396   -8124.2175    2.1431556  0.025351372   0.15607448 
   39500   -949.17069    43.992561   -905.17813     1575.654   -4137.3612     2.176559  0.061368954   0.12837611 
   39600   -948.64704    45.656039     -902.991    1635.2338    6363.3467    2.1984205 0.0073878261   0.13586597 
   39700   -943.09726    46.482585   -896.61467    1664.8376    2003.6203    2.1710622  0.038296094    0.1352815 
   39800   -948.72068    44.406922   -904.31376    1590.4949   -3617.6107    2.1698473    0.1446476   0.12098411 
   39900   -949.79768    44.955152   -904.84252    1610.1305   -2783.8418    2.1747083   0.37973505   0.12870141 
   40000   -947.13765    47.177348    -899.9603    1689.7215    4893.7275    2.1837577    0.1434797    0.1371001 
   40100   -949.84814    45.853975   -903.99417    1642.3231   -1282.1735    2.1792937   0.14612474   0.13509867 
   40200   -952.32886    44.389784   -907.93907    1589.8811   -3181.9564     2.180166   0.17211117   0.13814306 
   40300   -946.60605    45.118485   -901.48756    1615.9805    1028.9892    2.1791589  0.028468481   0.14567962 
   40400   -944.75113    42.612229    -902.1389    1526.2155    3508.4406    2.1822836 0.0045737358   0.12182765 
   40500   -953.06637    42.929593   -910.13678    1537.5823   -1360.8036    2.1883299    0.1306219   0.11580406 
   40600   -949.08958    46.918348   -902.17123    1680.4451   -6488.8084    2.1657923  0.024324601   0.13194072 
   40700   -946.97278    45.434021   -901.53876    1627.2819    3384.9108    2.1870926  0.074848063   0.13547074 
   40800   -947.38604    40.182828   -907.20321    1439.2032    9264.6593    2.2026795  0.050728506   0.12412313 
   40900   -948.73877    46.368285   -902.37048    1660.7438   -7295.3774    2.1641388  0.024891772    0.1216926 
   41000   -946.16813    46.011579   -900.15655    1647.9679   -6676.9225    2.1565874  0.063894888    0.1398249 
   41100    -948.8053    45.151615   -903.65369    1617.1671    7244.7725    2.1998731   0.11372149   0.13221318 
   41200   -949.06257    43.012585   -906.04999    1540.5548     9135.403    2.2054899  0.078121612   0.13220514 
   41300   -943.95143    47.281896   -896.66954    1693.4661   -14927.201    2.1385914   0.16852244   0.14728016 
   41400   -948.57446    45.495154   -903.07931    1629.4714   -7349.2799    2.1606096   0.43093009   0.13797589 
   41500   -951.23437    48.342886   -902.89148    1731.4669    7348.8421    2.2008341   0.72751271   0.12380457 
   41600   -942.07806    46.685042   -895.39302    1672.0889    6324.1824    2.1805829  0.070364377   0.13447575 
   41700    -945.3154    42.092217   -903.22318    1507.5906   -5545.2565     2.161919  0.027566353   0.13203349 
   41800   -945.18992    40.403307   -904.78661    1447.0999   -2843.0296    2.1665523  0.091732855   0.12381418 
   41900   -944.27536    45.992439   -898.28292    1647.2824    8565.9767    2.1863839   0.28783378   0.12278504 
   42000   -949.04881    45.480127   -903.56868    1628.9332    1461.3305    2.1846884   0.17570858   0.12885217 
   42100   -949.33373     42.50066   -906.83307    1522.2195   -5121.2263    2.1691709  0.071994381   0.13579476 
   42200   -946.32057    45.230782   -901.08978    1620.0026   -636.70825    2.1739875 0.0076682956   0.13406285 
   42300   -950.90081    48.983965   -901.91685     1754.428    2091.7238    2.1862556  0.035219462   0.12267469 
   42400   -949.52144    40.605105   -908.91634    1454.3276    4742.6467    2.1952085   0.12103917   0.10664586 
   42500     -944.456    42.679465   -901.77654    1528.6237    -1135.865    2.1696106   0.15701379    0.1345299 
   42600   -943.82196    42.083335   -901.73862    1507.2724    97.473147    2.1736292   0.12767285   0.12884492 
   42700   -950.02853    41.078684   -908.94985    1471.2895    3730.5783    2.1954498  0.050864117   0.12681298 
   42800   -947.01259    46.327042   -900.68555    1659.2666   -619.10662    2.1773304   0.15467241   0.13926529 
   42900    -942.3858    41.021575   -901.36423     1469.244    2453.3693    2.1757713  0.027817985   0.13008391 
   43000   -952.11211    45.006714    -907.1054    1611.9773   -879.64305    2.1845004   0.20770338   0.13944927 
   43100   -947.17527    46.106251   -901.06902    1651.3587    1330.6345    2.1820322   0.11803009   0.14192882 
   43200   -945.41164    45.897001   -899.51463    1643.8641    775.50004    2.1738852   0.19370803   0.12248619 
   43300   -950.14895    44.484989   -905.66396     1593.291   -2636.4813    2.1782007   0.13854832   0.13473883 
   43400   -948.05546    45.511382   -902.54408    1630.0527    1378.2757    2.1789832   0.16706201   0.13504048 
   43500   -944.55875    47.501012   -897.05774     1701.314   -1091.9196    2.1688332   0.22794555   0.13393777 
   43600   -946.88267    41.880476   -905.00219    1500.0068    1757.3088    2.1803968  0.018533557   0.13792729 
   43700   -948.79907    45.696805   -903.10226    1636.6939    -283.6313    2.1774848  0.055970126    0.1405256 
   43800   -944.52361    48.153447   -896.37016    1724.6818   -2712.3689    2.1632908   0.19144038   0.15624498 
   43900   -945.38308    39.906896   -905.47618    1429.3203    4856.1347    2.1870638  0.068055187   0.14777724 
   44000    -948.3205     44.62204   -903.69846    1598.1997   -305.90793    2.1787259   0.17617272    0.1325533 
   44100   -945.56677    47.359482   -898.20729    1696.2449   -2657.9964    2.1626339   0.21013383   0.13481469 
   44200   -948.44348    41.314057   -907.12942    1479.7197    3048.6399    2.1857607  0.012394891   0.12995555 
   44300   -951.07118    46.100848   -904.97033    1651.1652     -961.813    2.1822612  0.020997813   0.13455413 
   44400    -948.5526    48.219377   -900.33322    1727.0432   -2700.9128    2.1722263   0.10792318   0.14812701 
   44500   -949.42771    43.462209   -905.96551    1556.6587   -3096.2267    2.1760483   0.12032378   0.14110737 
   44600   -949.62642    42.350642   -907.27578    1516.8464    1184.8826    2.1854886   0.13920869   0.13197641 
   44700   -949.86021     49.35585   -900.50436    1767.7475   -119.96427    2.1797724  0.094181249   0.13918861 
   44800   -949.27611    45.089512    -904.1866    1614.9428   -3916.3735    2.1738405   0.10440613   0.13353655 
   44900   -953.32197    43.670644   -909.65132    1564.1241   -3148.8588    2.1821271   0.10847138    0.1339822 
   45000   -945.06215     44.72112   -900.34103    1601.7483    608.22504    2.1722457   0.10911045   0.13004717 
   45100   -947.11288    45.179799   -901.93308    1618.1766    5211.5174    2.1877612   0.25419561   0.12198564 
   45200   -950.82408    43.431586    -907.3925    1555.5619   -1580.8228    2.1826897  0.039150948   0.12649546 
   45300   -944.58188     45.81457   -898.76731    1640.9118   -6991.1279    2.1526135  0.013446047   0.13895701 
   45400   -947.35641    46.894166   -900.46224    1679.5789     5152.868    2.1845858   0.12071942   0.13159222 
   45500   -951.27106    46.787087   -904.48398    1675.7438    3817.2094    2.1942302  0.026218229   0.14764658 
   45600   -945.84896    44.331702   -901.51726    1587.8008   -4033.1772     2.158943  0.071590958   0.14461433 
   45700   -943.79719    46.909189     -896.888     1680.117    -9044.942    2.1428098   0.34319229   0.15123346 
   45800   -946.17136    41.718111   -904.45325    1494.1915    8179.0548    2.2008111   0.02097096   0.15832946 
   45900   -948.79421    45.783715   -903.01049    1639.8066    9174.1074    2.2014841   0.20253288   0.12809463 
   46000   -943.87147    46.460933   -897.41054    1664.0621   -10123.337    2.1435653  0.064630216   0.14211505 
   46100   -949.74936    44.173204   -905.57616     1582.124   -11058.908    2.1585358  0.049700565   0.14307949 
   46200   -950.48175    45.568997   -904.91275    1632.1162    5259.7996    2.1988133  0.088156569   0.13234894 
   46300   -948.46571    48.084475   -900.38124    1722.2115    5309.3646    2.1926765   0.18190212   0.16202341 
   46400   -947.39015    44.717993   -902.67215    1601.6363   -7318.8968     2.160382   0.11013843   0.15595023 
   46500    -952.1608    43.286095    -908.8747     1550.351   -3698.1445    2.1827202   0.18359913     0.137784 
   46600   -951.00478    49.849258   -901.15553    1785.4196    130.03737    2.1854569  0.079837553   0.15874524 
   46700   -948.08456    45.657808   -902.42675    1635.2971     1633.258    2.1827951  0.076177177   0.14030573 
   46800   -950.61062    40.830982   -909.77964    1462.4177   -2903.9292    2.1848329  0.016717587   0.13977122 
   46900    -947.2222    45.962924   -901.25928    1646.2252   -3411.5932    2.1706381   0.17416985   0.15490191 
   47000   -945.40801    43.868274   -901.53973    1571.2025    3815.3833    2.1859401  0.034761578   0.13071063 
   47100   -951.37447    43.892235   -907.48223    1572.0607      2341.52    2.1915153   0.18269061   0.12278408 
   47200   -944.84978    45.439074   -899.41071    1627.4629   -1317.6369    2.1676685  0.068899936   0.14845253 
   47300   -944.26945    43.614999   -900.65445    1562.1311    -38.34446    2.1756237  0.032404833   0.15058367 
   47400   -952.44927    46.562275     -905.887    1667.6918    1754.3103    2.1904487   0.30581085   0.14272632 
   47500   -943.76316    43.867837   -899.89532    1571.1868    1388.9494    2.1758364    0.1308729   0.14425132 
   47600   -944.29352    45.271231   -899.02229    1621.4513    880.49738    2.1738216   0.16239177   0.13689372 
   47700   -952.04124    46.363154   -905.67809      1660.56   -4270.0335    2.1765599    0.3745838   0.13056847 
   47800   -944.64161    45.773267   -898.86834    1639.4324    5.9711592    2.1764138    5.4629141   0.17186783 
   47900   -946.62438    47.570905   -899.05348    1703.8173   -797.21994    2.1797056    7.8407381    0.1447215 
   48000   -946.89951    41.788857   -905.11065    1496.7253   -1641.9092     2.180583    5.4081549   0.14648716 
   48100   -946.58265    46.571364   -900.01129    1668.0174   -2016.8467    2.1713081    5.8984418   0.14677688 
   48200   -942.25722    43.958371   -898.29885    1574.4294     663.0343    2.1720436    8.9205108   0.15448043 
   48300   -947.40532    40.395058   -907.01026    1446.8045    5855.4183    2.1957697    5.8704378   0.16704962 
   48400   -948.16021    46.938598   -901.22161    1681.1704   -2693.3188    2.1724704    5.2601744   0.16070066 
   48500   -943.31163     43.14355   -900.16808    1545.2455   -3639.1642    2.1654463    4.7725682   0.16697872 
   48600   -950.59722    41.846808   -908.75042    1498.8009    3074.6679    2.1936345    4.2575887   0.15143956 
   48700   -949.00914    47.545451   -901.46369    1702.9056    2017.6588    2.1874202    5.0034549   0.14817191 
   48800   -945.55325    45.686564   -899.86668     1636.327   -1187.7274    2.1726548    5.5055771   0.16764405 
   48900   -949.34925    42.101057   -907.24819    1507.9072   -5944.5843    2.1724727    3.9930602   0.15561857 
   49000   -945.43541    42.730882   -902.70453    1530.4652    507.44444    2.1802791    5.9013316   0.17199643 
   49100   -944.15958    46.760342   -897.39924    1674.7859    9182.6967    2.1915281    4.1023473   0.15584321 
   49200   -947.68699    43.278934   -904.40805    1550.0945   -1101.7122    2.1783059     4.167284   0.16848237 
   49300   -945.77262    44.113831   -901.65878    1579.9975   -10083.925     2.147376    4.6546098   0.17294469 
   49400    -945.1975    49.242392   -895.95511    1763.6839   -19.589616    2.1690587    5.4264376   0.17251148 
   49500    -948.4043    45.539993   -902.86431    1631.0774    12999.316    2.2113167    5.1688945   0.15677572 
   49600   -946.08069     42.27701   -903.80368    1514.2092   -235.30863    2.1758437    4.9552014   0.16465934 
   49700   -940.13217    43.378984   -896.75318    1553.6779   -11952.339    2.1339905    5.3823075   0.17217971 
   49800   -949.80968    44.376037   -905.43365    1589.3887    587.99839    2.1871109    4.3629308   0.15716091 
   49900   -948.17024    44.692929   -903.47731    1600.7386    6074.8387    2.1935937    5.5384511   0.14446286 
   50000   -949.44874    50.916997   -898.53175    1823.6622   -2740.9196    2.1684279     3.872356   0.15864269 
   50100   -945.32614    43.362917   -901.96322    1553.1024   -5934.4739    2.1582957    5.6708017   0.18327723 
   50200   -947.89847    42.173146   -905.72532    1510.4892     3299.122    2.1864897    5.7888063   0.17546041 
   50300   -944.72203    45.279206   -899.44283     1621.737    5210.5797    2.1829344    4.6626751   0.18354536 
   50400   -948.01833      46.0863   -901.93203    1650.6441   -3939.6925    2.1691918    6.0415792   0.15249963 
   50500   -949.33754    41.631852   -907.70568     1491.102   -2080.7372    2.1777024    4.2124211   0.15401036 
   50600   -945.78102    46.560869   -899.22015    1667.6415    -222.4667    2.1718344    6.2584802   0.15055878 
   50700   -947.21027    45.156759   -902.05351    1617.3513    2414.8552    2.1807534    3.6546041   0.14731638 
   50800    -948.8599    42.189896   -906.67001    1511.0891   -180.98248    2.1815463    6.1776829   0.15333531 
   50900   -945.37881    47.212517    -898.1663    1690.9811   -2811.3165    2.1617293    4.3278826   0.15726041 
   51000   -948.49583    46.576597   -901.91923    1668.2048   -1054.6431    2.1782033    8.6200502   0.15345953 
   51100    -947.9586    42.872953   -905.08565    1535.5537    3079.4364    2.1862728    6.9003032   0.15835131 
   51200   -940.65214     44.06856   -896.58358     1578.376   -2041.7986    2.1583435    6.3040776   0.16989898 
   51300   -949.21581    46.683058   -902.53275    1672.0178   -2413.2155    2.1735114    7.9454135   0.14923326 
   51400    -949.5851    45.379855   -904.20525    1625.3418    1670.1029    2.1859348    9.7604782   0.13191478 
   51500   -946.42959    49.878463   -896.55112    1786.4656   -244.53876    2.1745473    8.3353411   0.13889182 
   51600   -945.99915    43.259259   -902.73989    1549.3898   -2795.0103    2.1666809     4.455678   0.14341729 
   51700   -948.15697    43.343894   -904.81308    1552.4211   -4280.2262    2.1702039     5.228232   0.15368158 
   51800   -945.97908    48.573118   -897.40596    1739.7129    6633.4803    2.1897483    4.5556919   0.15661241 
   51900   -947.44157    43.983399   -903.45817    1575.3258    2092.1313    2.1853844    4.3351213   0.14907072 
   52000   -950.29706    44.605439   -905.69162    1597.6051   -10010.331    2.1587887    3.9790166   0.14396485 
   52100   -947.85052    48.855181   -898.99534    1749.8154    -6228.516    2.1613426     8.437735   0.15185647 
   52200   -947.76866    44.298306   -903.47036    1586.6047    9067.8364    2.2011029    5.6068096   0.13672715 
   52300   -950.34232    43.987026   -906.35529    1575.4557    1477.6301    2.1864114    7.7019989   0.13586103 
   52400   -945.23436    45.796331   -899.43803    1640.2585   -7750.4596    2.1491347    7.4992365    0.1417558 
   52500   -946.45038    44.257086    -902.1933    1585.1283   -1924.5711    2.1722805    6.0654057   0.14245301 
   52600   -951.24342    45.467357   -905.77606    1628.4758    10437.399      2.20862    5.8332513   0.12818504 
   52700   -942.77926    45.685067   -897.09419    1636.2734   -418.68256    2.1671649    9.4786866   0.15246777 
   52800   -944.59956     42.19124   -902.40832    1511.1372   -8803.1503    2.1493263  0.092097047   0.13067047 
   52900   -948.25548     42.47673   -905.77875    1521.3624   -1325.9423    2.1796077  0.049299709   0.12664829 
   53000   -946.80555    49.345614   -897.45994    1767.3809    9684.2637    2.1972352  0.045411883   0.11980084 
   53100   -945.25974    43.505648    -901.7541    1558.2145    2010.4667    2.1792058  0.062037464   0.12570647 
   53200   -948.97435    41.771508   -907.20284    1496.1039   -9350.2063    2.1585177   0.13929013   0.14313606 
   53300   -947.56455    47.670601   -899.89394     1707.388   -494.40488    2.1748445   0.15789006   0.13132313 
   53400    -949.6408    47.235165   -902.40563    1691.7923    2933.9535     2.189834  0.086197248   0.12625408 
   53500   -950.05111    42.382013    -907.6691      1517.97    1355.5952    2.1871118  0.012476194   0.12112287 
   53600   -943.25129    42.920525   -900.33077    1537.2575   -110.24865    2.1680462  0.044746199   0.12720317 
   53700   -948.11164    45.423768   -902.68787    1626.9146   -141.62068    2.1791619  0.022186117   0.13105135 
   53800   -950.66175    42.695315   -907.96643    1529.1913    3845.1033    2.1956126  0.069166009   0.12326662 
   53900   -946.09319    46.721166   -899.37203    1673.3827   -2506.0513    2.1679682  0.082901155   0.12302089 
   54000     -948.637    45.956665   -902.68034    1646.0011   -2813.6813    2.1713677  0.039173307   0.11410647 
   54100   -952.23768    45.473396   -906.76429    1628.6921    1198.6257    2.1892681   0.10216956    0.1268558 
   54200   -943.31804    45.484963   -897.83308    1629.1064    1991.4654     2.176073   0.18035554   0.15450454 
   54300   -944.73933    42.538709   -902.20062    1523.5823    2093.6524     2.176544   0.14459694   0.14598638 
   54400   -950.58515    44.235587   -906.34957    1584.3583   -2235.3716    2.1787083   0.10440739   0.12413032 
   54500    -947.7964    49.895933   -897.90046    1787.0914   -3280.8726    2.1693537   0.16067335   0.12383234 
   54600   -949.61507    47.875114   -901.73995    1714.7129    769.02056    2.1857793  0.066101145   0.12876802 
   54700   -951.14253    45.274544   -905.86798      1621.57   -1018.7791    2.1810749   0.03943457    0.1246131 
   54800   -946.90607    48.225425   -898.68065    1727.2598   -5667.3581    2.1580921   0.17299492    0.1268915 
   54900   -945.19192    43.802673   -901.38924    1568.8529    2719.6489    2.1788394  0.088361018    0.1278054 
   55000   -948.10754    42.651933   -905.45561    1527.6376    7133.8668    2.1959682  0.093163021   0.13270275 
   55100     -946.068    46.178491   -899.88951    1653.9461   -724.54053    2.1704786  0.033375241   0.13535014 
   55200   -944.16825     43.56412   -900.60413    1560.3088    -6472.286    2.1559517  0.044809207   0.15132235 
   55300   -949.09099    41.906433   -907.18456    1500.9365    3311.1806    2.1920457  0.041510873   0.14177282 
   55400   -945.07551     45.35046   -899.72505     1624.289    10243.345     2.197137   0.16082524   0.12771659 
   55500   -944.22631    41.857655   -902.36866    1499.1894   -2633.0373    2.1644506  0.085091911   0.14349559 
   55600   -952.13705    42.735677   -909.40138     1530.637   -9979.6878    2.1671039  0.014505773   0.11966127 
   55700   -949.03943    47.553603   -901.48583    1703.1976    3970.7707    2.1886781  0.034276763    0.1257723 
   55800   -948.95415    48.163877   -900.79027    1725.0554     8928.135    2.2001286  0.083603786   0.11651629 
   55900   -951.70706    43.414333   -908.29273     1554.944   -6753.6572    2.1707115   0.18707933   0.11256966 
   56000   -948.11518    46.984855   -901.13033    1682.8271   -10094.357    2.1496133   0.11783632   0.12637161 
   56100    -948.8017    48.972268   -899.82943    1754.0091    5076.7078    2.1877638   0.10420409   0.13089684 
   56200   -951.64815      46.0994   -905.54875    1651.1133    5068.9924    2.1974132  0.093903898   0.13880333 
   56300   -945.37334    44.976622   -900.39672    1610.8995   -3698.6706    2.1598433    0.2411987   0.14888816 
   56400   -947.06867     48.01028   -899.05839    1719.5541   -7188.2095      2.15883  0.081985323   0.13584196 
   56500   -948.92018    43.895622   -905.02456     1572.182    2890.6918    2.1891741  0.033036318   0.11614535 
   56600   -948.24402    46.109608   -902.13441    1651.4789     3156.279    2.1850709  0.071991159   0.11511565 
   56700   -942.68683    45.528941   -897.15789    1630.6816   -1918.6146    2.1591509  0.064745496   0.13361043 
   56800   -949.76125    43.757616   -906.00364    1567.2391   -612.13044    2.1841109 0.0093082765   0.13297194 
   56900   -948.39366    45.782336   -902.61132    1639.7573    1865.9869     2.185613 0.0039433517   0.11515074 
   57000   -947.76615    49.805392   -897.96076    1783.8485   -1897.7354    2.1684692   0.13641315   0.12394626 
   57100   -949.60289    42.155225   -907.44767    1509.8473    551.19859     2.182379  0.028599623   0.12744378 
   57200   -948.19614    44.213226   -903.98291    1583.5574   -1532.5518    2.1754976   0.12053984   0.14109777 
   57300   -943.46827    43.803041   -899.66523    1568.8661    1726.5509    2.1777865   0.19518071   0.17247279 
   57400   -954.59815    46.600622   -907.99752    1669.0653   -405.58346    2.1925449  0.025466957   0.13554792 
   57500   -948.68266    43.638781   -905.04388    1562.9829   -2316.0457     2.171158    0.0529059   0.11537688 
   57600   -946.66536    45.836387   -900.82897    1641.6931   -3677.4031     2.172075   0.10729421   0.11693888 
   57700    -948.8421    43.172762   -905.66934    1546.2918    5502.9392    2.1975968  0.098584844   0.11636632 
   57800   -953.86728    45.526217   -908.34106     1630.584    1224.3399    2.1933149  0.051950609   0.10768869 
   57900   -944.42986    43.894027   -900.53583    1572.1249   -8471.4572    2.1541498  0.069420052   0.13181121 
   58000   -948.27185    44.445304   -903.82654    1591.8696   -2695.4505    2.1742844   0.11321571   0.13987197 
   58100   -948.44638    42.230695   -906.21568    1512.5504     12387.24    2.2124693     0.102666   0.13543316 
   58200   -944.47236    47.616537   -896.85582    1705.4517   -1546.1885    2.1689131   0.12944308   0.15251648 
   58300   -949.11953    46.147458   -902.97207    1652.8346   -9257.7842    2.1608074  0.022638977   0.14873361 
   58400   -948.18605    43.351618   -904.83443    1552.6977    227.05975    2.1880098  0.095873853   0.13036192 
   58500   -945.99057    49.253309   -896.73726    1764.0749    7317.3194    2.1950096  0.089166143   0.13393492 
   58600   -942.23828    41.785798   -900.45248    1496.6157    699.55912    2.1748803    0.4283746   0.14129361 
   58700   -947.71903    41.858347   -905.86069    1499.2142    -9787.655    2.1584131  0.020704808   0.12923162 
   58800   -945.07479    44.967132   -900.10766    1610.5596    1754.2694    2.1803898  0.042969334   0.11758707 
   58900    -944.2973    47.258196    -897.0391    1692.6172    9390.0464    2.1958309  0.011965709   0.12264429 
   59000    -948.3814    42.375727   -906.00567    1517.7449     97.21912    2.1814042  0.091830027   0.12560709 
   59100   -947.77936    44.540868   -903.23849    1595.2924   -8711.6054    2.1557298  0.081786231   0.13438343 
   59200   -944.75395    46.080397   -898.67355    1650.4327    3812.7228    2.1789078  0.045834609   0.14637532 
   59300   -948.85386     41.07985   -907.77401    1471.3312    11340.044    2.2101389   0.23684072   0.14656631 
   59400   -946.45485    42.331289   -904.12356    1516.1533   -2816.8587    2.1717881  0.048403497   0.14123637 
   59500   -944.10174    43.468739     -900.633    1556.8926   -4268.7988     2.164364   0.17310844   0.13054992 
   59600   -950.06713    43.281016   -906.78611     1550.169    2110.7947    2.1876482  0.072435327   0.11231574 
   59700   -951.13279    44.850559   -906.28223    1606.3844    2499.8692    2.1920849   0.18084545   0.10538596 
   59800   -944.02772    44.098274   -899.92944    1579.4403   -1747.9313    2.1692711   0.34004691   0.13667485 
   59900   -947.36599    42.195571   -905.17042    1511.2923   -3397.7048    2.1721801   0.21530391   0.11886508 
   60000   -952.01156     45.83472   -906.17684    1641.6335    1339.4116    2.1899055  0.072406456   0.11346987 
   60100   -947.74925    50.152607   -897.59664    1796.2845   -93.808749    2.1753666   0.17454835   0.12674031 
   60200   -945.93785    42.080467   -903.85738    1507.1697   -950.42051    2.1751061 0.0067608947    0.1291776 
   60300   -946.38138    41.188947   -905.19243    1475.2387    348.73714    2.1790386   0.42942291   0.15407263 
   60400   -939.50775    43.393907   -896.11385    1554.2124    6127.3264    2.1733406   0.06542925   0.15305588 
   60500   -947.44282    44.203346   -903.23947    1583.2036     3344.947     2.191626   0.12775117   0.13047109 
   60600   -946.14445    41.125321   -905.01913    1472.9599   -2922.4943    2.1719171  0.035362593   0.12470625 
   60700    -947.4127    49.608473   -897.80423    1776.7956   -8146.4781    2.1555813  0.039299402   0.11848892 
   60800   -946.28895    41.564791   -904.72416    1488.7001    7728.6748    2.1992175  0.014192881   0.11219701 
   60900   -948.86535    43.597055   -905.26829    1561.4884    5532.7145    2.1946215   0.04234026    0.1088322 
   61000   -945.05661    44.351592   -900.70502    1588.5132   -7336.9506    2.1574025  0.019163411    0.1157756 
   61100   -943.34866     43.47535   -899.87331    1557.1294   -5109.2041    2.1616372  0.059682624    0.1380529 
   61200   -950.45681    43.053112    -907.4037    1542.0063    12909.585    2.2209182   0.34820609   0.13767009 
   61300   -950.36563    49.710304   -900.65533    1780.4428    2084.1426    2.1913355  0.039354647   0.14124471 
   61400   -945.24899    43.354089    -901.8949    1552.7862   -11588.327    2.1479302  0.014050191    0.1531461 
   61500   -951.71201    42.674684   -909.03732    1528.4524   -5901.3054    2.1801103  0.092086731   0.13511642 
   61600   -948.10134    45.374145    -902.7272    1625.1373    11697.819    2.2103877  0.061231099   0.12999288 
   61700   -943.31533    43.097801   -900.21753    1543.6069    5031.3127    2.1831894  0.041175785   0.11826261 
   61800   -948.05344    41.018392   -907.03504      1469.13   -6426.5031    2.1642388  0.093964181   0.11891452 
   61900    -947.6289    43.810935   -903.81796    1569.1488   -1023.6094    2.1776179  0.033907765    0.1180614 
   62000   -946.94825    48.374036   -898.57421    1732.5826     2775.642    2.1834262  0.089377021   0.11948934 
   62100   -952.30015    46.995802   -905.30435    1683.2192   -1912.1637    2.1820023 0.0058191529   0.12049017 
   62200   -949.37042    45.879515   -903.49091    1643.2379   -3145.5611    2.1720979  0.033192199    0.1280766 
   62300   -945.11181    47.795758   -897.31606    1711.8707   -1413.3615    2.1665765    0.1157812   0.14496328 
   62400   -945.70635    40.896407   -904.80994     1464.761    5722.4655    2.1897106   0.20812535   0.15957933 
   62500   -949.26715    45.935982   -903.33117    1645.2603    747.47816    2.1844306  0.040459526   0.16145506 
   62600   -944.59348     48.08778    -896.5057    1722.3299   -5539.0491     2.155364  0.066421865   0.13371442 
   62700   -949.48277    43.543762   -905.93901    1559.5796    443.22253    2.1837809  0.062363767   0.12770105 
   62800   -949.63759    46.254988    -903.3826    1656.6859    4365.3904    2.1921537  0.034477569    0.1110172 
   62900   -946.04893    47.690874   -898.35806    1708.1142   -2269.3038    2.1692939   0.16886374   0.13020949 
   63000   -949.88547    44.815166    -905.0703    1605.1167   -11094.819     2.157555    0.0616069   0.12762275 
   63100   -948.09494    42.216321   -905.87861    1512.0355   -241.55465    2.1806743   0.16978163   0.12433464 
   63200   -949.67266    50.435857   -899.23681    1806.4295    11696.616    2.2100219  0.040604564   0.14411455 
   63300    -951.1587    46.738508   -904.42019    1674.0038   -4890.6065    2.1761663  0.025493761    0.1410552 
   63400   -949.23283    39.448233    -909.7846    1412.8927   -12771.158    2.1543778   0.22407591   0.16074087 
   63500   -947.51162    45.999331   -901.51229    1647.5292    1665.9312    2.1803093  0.037442787   0.15002994 
   63600   -948.08572    46.712313   -901.37341    1673.0657    10542.179    2.2065101   0.18433923   0.12496506 
   63700   -950.68538    42.403697   -908.28169    1518.7467   -1735.6314    2.1822266   0.12136102   0.12002456 
   63800   -948.59232    48.700095   -899.89223    1744.2608   -10572.654    2.1509265 0.0096963745   0.12273247 
   63900    -945.1973    44.791436   -900.40586    1604.2668    4737.4003    2.1835682   0.05941146   0.12778699 
   64000   -946.96585    42.399859   -904.56599    1518.6092    7473.8341    2.1931721   0.65835441   0.13167854 
   64100   -942.72338    46.193109   -896.53027    1654.4696   -1460.2403    2.1647187   0.91903034   0.15672025 
   64200   -942.39659    42.744004   -899.65259    1530.9352   -2002.7354    2.1668645    0.3990557   0.15607948 
   64300   -947.76778    43.633387   -904.13439    1562.7897    1120.1308    2.1824886  0.066940508   0.16517288 
   64400   -944.64839    47.003105   -897.64529    1683.4808    4980.2826    2.1802868   0.18484613   0.14762362 
   64500   -948.11398    47.356491   -900.75749    1696.1378   -2790.5266    2.1719489   0.12237468   0.13811175 
   64600   -948.19128    42.475856   -905.71542    1521.3311   -4433.4242    2.1699606   0.21977957   0.12318902 
   64700   -948.47183    47.980499   -900.49133    1718.4875    220.48045    2.1827882   0.02203608    0.1308922 
   64800   -941.59858    43.053783    -898.5448    1542.0304    10636.397    2.1920961  0.028074869   0.12891232 
   64900   -948.69785     41.61452   -907.08333    1490.4812   -939.47136    2.1799449   0.04011869   0.12302232 
   65000   -945.84081    42.651591   -903.18922    1527.6253   -10308.444     2.149638   0.01972724   0.13666656 
   65100   -946.69946    47.275693   -899.42376    1693.2439    2049.3646    2.1802588  0.089820115   0.12583297 
   65200   -953.26462     45.96685   -907.29777    1646.3659    12565.488    2.2225453  0.095854032   0.12724799 
   65300    -946.4993    42.129332   -904.36997    1508.9199   -3076.8428    2.1680481  0.078657534   0.12283246 
   65400     -943.586    42.508515   -901.07748    1522.5008   -9195.9561     2.147185   0.13991604   0.13218394 
   65500    -948.1461    43.488044   -904.65806     1557.584    3095.9346    2.1912912   0.12591386   0.12275633 
   65600   -949.49089    41.914735   -907.57616    1501.2338    11995.353    2.2124045   0.07105275   0.13157329 
   65700    -944.2234    45.489461   -898.73394    1629.2675   -7010.7913    2.1548301   0.03280888   0.13355413 
   65800   -950.42455    46.563369   -903.86118     1667.731   -8170.4032    2.1642363   0.18198089   0.12738342 
   65900   -952.24394    47.222504   -905.02144    1691.3388    3688.9929    2.1955874  0.038493071   0.12777481 
   66000   -942.04567    46.315407   -895.73027    1658.8499    3058.9506    2.1757424  0.089771561   0.12689227 
   66100    -948.1297    45.493098    -902.6366    1629.3978   -2791.9037    2.1721022  0.081187188   0.14208363 
   66200   -949.85128    45.068971   -904.78231    1614.2071   -4507.0595    2.1729384   0.24720587   0.12786559 
   66300   -944.22449    47.152767   -897.07173    1688.8411    3259.7461    2.1759053  0.090943467   0.13299485 
   66400   -949.20078    46.979985    -902.2208    1682.6527    1114.4053     2.183393    0.1990415   0.12316898 
   66500   -950.37028    44.783976    -905.5863    1603.9996   -5953.7758    2.1708101   0.05676489    0.1245559 
   66600   -947.27192    47.117504   -900.15441    1687.5781   -1576.4035    2.1727318  0.038008674   0.12187216 
   66700   -944.34932    43.266549   -901.08278    1549.6509     4344.968    2.1835891  0.099985772   0.15360014 
   66800   -948.12237    40.425342   -907.69703    1447.8891    4562.2478    2.1936209  0.010592295   0.13871865 
   66900   -943.43561    41.517345   -901.91826    1487.0007   -96.793698     2.171632  0.010137319   0.14416924 
   67000   -944.86251    43.425277   -901.43723    1555.3359   -3738.3365    2.1642371   0.11207606   0.12913199 
   67100   -951.05435    41.355459   -909.69889    1481.2026    7579.2626    2.2075438  0.013284838   0.11218037 
   67200   -948.32903    46.074191   -902.25484    1650.2104    2218.8338    2.1894343   0.20657307   0.13815803 
   67300   -943.97678    42.292482    -901.6843    1514.7633    -7001.147    2.1574827   0.17264622   0.13677198 
   67400   -948.19042    42.108816   -906.08161    1508.1851   -3854.2525    2.1713321   0.19950416    0.1334488 
   67500   -950.51312    42.958017    -907.5551    1538.6004    10593.251    2.2150671  0.063419914   0.12635708 
   67600   -942.77016    43.550056   -899.22011    1559.8051    4309.2671    2.1814909    0.1013149   0.12939607 
   67700   -945.88395    42.073048   -903.81091     1506.904   -9409.6642    2.1540786   0.01655544   0.12827683 
   67800   -947.58319    42.462725   -905.12047    1520.8608   -1297.8037    2.1774411   0.27936613   0.13424143 
   67900   -944.16031    49.052079   -895.10823    1756.8676    8338.7033    2.1865856   0.19850178   0.12681525 
   68000   -947.06961    46.431594   -900.63801    1663.0113    3774.1067    2.1830041  0.099901278   0.13173575 
   68100   -947.93278    42.658339   -905.27444     1527.867   -7378.6685    2.1593533  0.075060867   0.13076227 
   68200   -945.34249    45.607832   -899.73466    1633.5071    -1853.314    2.1681269  0.044715971     0.122015 
   68300   -942.30402    46.285196   -896.01883    1657.7679    9670.5432    2.1867029 0.0055380914   0.13043266 
   68400   -949.95211    45.660022   -904.29209    1635.3764    141.72518    2.1839621  0.035461412   0.11968703 
   68500   -943.85484    40.651443   -903.20339    1455.9873   -4460.7599    2.1622426   0.04514035   0.14045516 
   68600   -943.00955    46.530416   -896.47914    1666.5507   -2165.5425    2.1627168   0.30990177   0.13515205 
   68700   -952.73414    47.884281   -904.84986    1715.0413     5564.918    2.2024805   0.10154508   0.12177341 
   68800   -949.46322    44.674376   -904.78884    1600.0741   -3594.7456    2.1760888  0.050846387   0.12472684 
   68900   -947.54997    45.601772   -901.94819    1633.2901   -9109.5928    2.1527692   0.34646623   0.14845827 
   69000    -943.5148    46.752027   -896.76277    1674.4881    6310.4058    2.1820949  0.038400794   0.12603449 
   69100   -951.44956    45.299406   -906.15016    1622.4605    21362.527     2.237045   0.25300251   0.11498344 
   69200    -948.2508    43.985667   -904.26514    1575.4071   -12569.849    2.1496825   0.12356358   0.12851335 
   69300   -945.18351    43.261539   -901.92197    1549.4714   -13532.127    2.1383989   0.32309848   0.13886984 
   69400   -946.60888    44.476135   -902.13274    1592.9739    8299.6765    2.1990528   0.25295197   0.13441094 
   69500   -952.27942    41.721658   -910.55776    1494.3185    8819.6021    2.2137003  0.077387931   0.11950747 
   69600   -945.94001    43.647179   -902.29283    1563.2837   -6237.2343    2.1571446   0.27401356   0.13118299 
   69700   -943.35242    41.406337   -901.94608    1483.0248   -1717.2057    2.1658905  0.066716928   0.13082049 
   69800   -949.13331    43.864909    -905.2684     1571.082    6800.9738    2.2010457   0.11419389   0.13368052 
   69900   -951.01838    39.281075    -911.7373    1406.9056    5404.7718    2.2029518   0.14090577   0.13256139 
   70000   -949.94471    48.126141   -901.81857    1723.7038   -11431.898    2.1531583  0.011972992   0.13481784 
   70100   -948.30014    45.669008   -902.63113    1635.6982   -1926.4073    2.1755421   0.25061185   0.13345043 
   70200   -946.15495    42.131116   -904.02384    1508.9838    10624.149    2.2039502   0.07497051   0.12855303 
   70300   -944.90062    39.169517    -905.7311      1402.91    1781.5269    2.1826758  0.065478162   0.14105504 
   70400   -939.39258    44.548624   -894.84396    1595.5702    -5244.219    2.1465548    0.1771906   0.14303199 
   70500   -946.84133    48.617512   -898.22382     1741.303    5384.9421    2.1873225    0.1382688   0.11855044 
   70600   -945.93671     44.82313   -901.11358     1605.402    7350.3579    2.1919394   0.23356646   0.12692835 
   70700   -947.54416    42.946452   -904.59771    1538.1862   -6149.9769    2.1625927  0.027127844   0.13487841 
   70800   -943.45717    43.431078   -900.02609    1555.5437   -2741.6242    2.1630448  0.028576223   0.14031372 
   70900   -946.00104    49.871628   -896.12941    1786.2208     2191.466    2.1796792    0.1873777   0.15171389 
[...]
  186800   -943.15525    43.924449   -899.23081    1573.2145    1631.8778    2.1724945    21.998526   0.14185804 
  186900   -949.25685    41.861278   -907.39557    1499.3192    7306.2417    2.2011247    20.797273   0.14084756 
  187000   -945.87563    43.199911   -902.67572    1547.2642    382.47683    2.1767324    19.530334    0.1487773 
  187100   -943.32025    42.957402   -900.36285    1538.5784   -3166.2694    2.1611929    19.207351   0.15234362 
  187200   -951.76014    44.484719   -907.27542    1593.2813    960.64317    2.1887064    18.522664   0.13216206 
  187300   -946.36821    43.023286   -903.34493    1540.9381    5797.6543    2.1935783    19.993129   0.13288359 
  187400   -945.31741    45.689042   -899.62837    1636.4158   -3030.2832    2.1663329    22.969416   0.13573149 
  187500   -949.68894    42.740143   -906.94879    1530.7969    -7731.639    2.1693944    23.463667   0.14256649 
  187600   -947.66876    44.347224   -903.32154    1588.3567    5533.2987    2.1930406     20.96576   0.14469862 
  187700   -948.13514    50.836499   -897.29864     1820.779    9149.1077     2.198552     24.20497   0.14038779 
  187800    -948.2406    43.291656   -904.94894    1550.5501   -8427.3262    2.1585996    20.734746    0.1516931 
  187900   -943.42967     39.77324   -903.65643    1424.5332   -11692.348     2.143069    21.542542    0.1544517 
  188000   -944.38123    48.327615   -896.05361    1730.9199    9233.9787    2.1943938    17.118194   0.15056633 
  188100     -944.803    42.183325   -902.61967    1510.8537    14611.192    2.2080132    20.785363   0.14455196 
  188200   -948.60079    42.160113   -906.44068    1510.0224   -7948.6559    2.1614305    21.641938   0.14159461 
  188300   -943.41215    45.126193   -898.28596    1616.2566   -8419.9533    2.1530659    21.009663   0.15233225 
  188400   -950.12135    46.470384   -903.65097    1664.4006    4841.1819    2.1966149    20.763883   0.12966266 
  188500    -949.4699    43.908967   -905.56094    1572.6599    3570.4361     2.193126    21.977838   0.13474331 
  188600   -942.74754    43.154179   -899.59336    1545.6262   -4154.2051    2.1581474    23.514079   0.14590224 
  188700   -948.11407    46.392087   -901.72198    1661.5963    -4014.637    2.1666552     18.35005   0.13525154 
  188800   -949.08178    42.629148   -906.45264    1526.8215    7798.7307    2.2002831    19.699903   0.14064881 
  188900   -949.50004    49.929344   -899.57069     1788.288   -821.00537    2.1815435    20.474065   0.15222398 
  189000   -948.15413    45.786585   -902.36754    1639.9094   -8841.9697    2.1607196    20.313521   0.14256033 
  189100   -951.44772    43.160767   -908.28695    1545.8621    -2562.316    2.1809901    20.711497   0.14118879 
  189200   -948.24935    48.245442    -900.0039    1727.9768    5630.2443    2.1931429    25.019618   0.14371902 
  189300   -947.36835    45.296607   -902.07175    1622.3602    2849.6539    2.1857029    21.897136   0.12341306 
  189400   -948.40176    39.424958    -908.9768     1412.059   -6858.9457    2.1697704    20.861931   0.13570021 
  189500   -948.54529    47.582275   -900.96301    1704.2245   -6023.0209    2.1640531    21.140142   0.12393838 
  189600   -947.61768    47.407305   -900.21037    1697.9578    13084.867    2.2107795    20.157178    0.1342103 
  189700   -947.98161    41.772172   -906.20944    1496.1277    7480.1668     2.200499    20.125283   0.14553398 
  189800   -946.17416    46.942467   -899.23169    1681.3089    -19502.24    2.1250065    20.387177   0.14055724 
  189900   -948.18373    48.723157   -899.46057    1745.0868    -5915.209    2.1649389    20.307424   0.15085541 
  190000    -950.0129    46.590531   -903.42237    1668.7039    14080.918    2.2208496    20.726885   0.14146397 
  190100   -949.11727    44.490385   -904.62689    1593.4842   -746.48732    2.1862951    19.545214   0.14421589 
  190200   -944.26013    47.993667   -896.26646    1718.9591    -10835.05    2.1451092    22.427263   0.15273638 
  190300   -951.06341    46.054144   -905.00927    1649.4924   -202.19695    2.1864905    23.532783   0.12269471 
  190400   -949.33311    45.448802   -903.88431    1627.8113    4116.7597    2.1971338    21.790226   0.11626893 
  190500   -943.97153    46.168737   -897.80279    1653.5967   -323.32342     2.169997    19.176451   0.12072416 
  190600   -947.54268    43.530418   -904.01226    1559.1017    -5130.284    2.1683667    19.980309    0.1301816 
  190700   -946.23671    40.690773   -905.54593    1457.3959    1813.4709    2.1853647    21.197944   0.13558042 
  190800    -946.6837    46.758383   -899.92532    1674.7157    7474.3697    2.1912812    22.030081   0.12915798 
  190900   -945.97863    42.779225   -903.19941    1532.1967   -866.16026    2.1776253    22.613423   0.14340886 
  191000   -949.70196    41.262086   -908.43987    1477.8583   -3892.7115    2.1766383    22.344979   0.13382476 
  191100   -946.82733    45.377006   -901.45033    1625.2398    4900.2474    2.1885973    23.090057   0.14127521 
  191200    -944.0607    42.423087   -901.63761    1519.4411    6558.6007    2.1921793    22.411177    0.1424061 
  191300   -952.68126    42.602634   -910.07863    1525.8718   -5534.5415      2.17782    22.451057   0.12002726 
  191400   -947.60752    44.795508   -902.81201    1604.4126   -9744.9675    2.1535418    19.883664    0.1311508 
  191500   -947.18149     46.75825   -900.42324     1674.711    8645.9341    2.1997673    20.088488   0.12258573 
  191600   -952.04088      46.0916   -905.94928     1650.834     8081.666     2.209099     18.18801   0.11674975 
  191700   -947.38619    44.665199     -902.721    1599.7454   -9205.7999     2.152583    22.049553   0.13268321 
  191800   -946.06663    46.968587   -899.09805    1682.2444   -9864.2744     2.148539    22.855085   0.14665716 
  191900   -951.96142    48.388907   -903.57251    1733.1152     6737.608    2.2046181    20.502087   0.13300459 
  192000   -946.07169    41.003529   -905.06817    1468.5977    10082.765    2.2048696    20.920566   0.14247812 
  192100    -945.0174    48.567082   -896.45032    1739.4968   -10036.606    2.1447269    23.374684   0.13669583 
  192200   -950.70853    46.754635    -903.9539    1674.5815   -3491.9811    2.1713274    21.888773   0.12763582 
  192300   -945.99807      41.7161   -904.28197    1494.1194    6256.7963     2.191356    22.036262    0.1337538 
  192400    -948.7035     49.68867   -899.01483     1779.668   -677.78933    2.1784489    19.873089   0.12796404 
  192500   -946.04521    45.480593   -900.56461    1628.9499   -3723.9014    2.1638258    21.313475   0.12523653 
  192600   -949.60096    43.263689   -906.33727    1549.5485   -1893.2441    2.1811416     23.36078   0.13479751 
  192700   -944.66818    43.593958   -901.07423    1561.3775     5187.527    2.1878844    24.292739   0.15220424 
  192800   -944.31351    43.856129   -900.45738    1570.7675    1275.1601    2.1776561    24.642729   0.14151238 
  192900   -950.42312    41.403499   -909.01962    1482.9232   -1575.6947    2.1837583    21.146644   0.14109264 
  193000   -944.32753     41.30604   -903.02149    1479.4326   -452.14189    2.1761347    20.835809   0.12883317 
  193100   -947.13433     46.64402   -900.49031    1670.6196     1229.064    2.1793613     21.95088   0.13438949 
  193200   -950.65665    41.709722   -908.94693     1493.891    2763.1551    2.1924967    21.762674   0.12647311 
  193300   -947.48224    43.908011   -903.57423    1572.6257   -5238.6959    2.1667062    19.148968   0.13112536 
  193400   -944.53127    43.701392   -900.82988    1565.2254    1895.9625    2.1757914    22.807357   0.13079226 
  193500   -947.50222    41.571814   -905.93041    1488.9516     9215.448    2.2021257    24.019503   0.13139418 
  193600   -951.69123    43.233733    -908.4575    1548.4755   -1189.1831    2.1837638    21.717419   0.12214018 
  193700   -944.99944    45.037953   -899.96149    1613.0962   -12156.623     2.142993    24.856831   0.14022314 
  193800   -949.10194    45.049427   -904.05251    1613.5071    111.04492    2.1830862    22.997641   0.13425857 
  193900   -950.91293    45.916261   -904.99666     1644.554    12565.144    2.2174171    22.489733   0.10995235 
  194000   -943.86263    47.762836   -896.09979    1710.6916   -2830.9114    2.1611367    18.433422   0.14299758 
  194100   -946.25783    43.031523    -903.2263    1541.2331   -8317.0285    2.1551771    19.874688   0.12688995 
  194200   -947.87322    43.532239   -904.34099    1559.1669    3530.6791    2.1897957    21.504894   0.12655038 
  194300    -948.5188    51.059473   -897.45932    1828.7652    6275.0203    2.1932374    23.616253   0.12736068 
  194400   -946.82226    45.886009   -900.93625    1643.4705    -4806.893     2.164695     21.58373   0.10084562 
  194500   -952.28269    45.983682     -906.299    1646.9687   -9217.2686    2.1660394    21.685706   0.11704183 
  194600   -949.17372    49.094769   -900.07895    1758.3966    2698.1841     2.186973    22.200126   0.14349699 
  194700   -943.97438    43.107405   -900.86698    1543.9509     5989.083    2.1860772     22.22606   0.13775556 
  194800   -951.61764    43.813283   -907.80436    1569.2329   -2167.9034    2.1809208    23.956988   0.14474946 
  194900   -948.63581    46.703111    -901.9327    1672.7361   -2616.1912    2.1720512    21.093625   0.11663059 
  195000   -948.92863    48.756533    -900.1721    1746.2822   -510.39779    2.1780835    20.402517    0.1234441 
  195100   -951.87751    42.791983   -909.08552    1532.6537    2127.2596    2.1931916    18.343887   0.11881768 
  195200   -945.58943    42.976223   -902.61321    1539.2525    -909.0598    2.1722079    21.101515   0.13495936 
  195300   -947.77491    46.928229   -900.84668     1680.799   -1688.8276    2.1720497    20.129137    0.1291959 
  195400   -949.87892    41.782872   -908.09605     1496.511    2620.3511    2.1905173    24.040306   0.12037368 
  195500   -947.79377    45.279253   -902.51452    1621.7386     1139.378    2.1796702    23.371454   0.12014372 
  195600   -944.25411    43.795176   -900.45894    1568.5844    354.94234    2.1714384    23.427702   0.12763919 
  195700   -948.60735    42.026507   -906.58085    1505.2371   -297.81395    2.1816469    22.233733   0.13608181 
  195800    -950.4243    47.091521   -903.33278    1686.6475   -466.24065    2.1834949     21.08321   0.12479936 
  195900   -942.41989    43.374425   -899.04547    1553.5146   -302.05955    2.1702002    21.307383   0.15340022 
  196000   -945.95493    40.120683   -905.83425    1436.9774   -721.65021    2.1782351    21.824765   0.13514058 
  196100   -945.91053    42.809946   -903.10059     1533.297    1595.9925    2.1792031    18.491469   0.13647196 
  196200   -948.10298    50.339838   -897.76314    1802.9904   -3764.4624    2.1699783    19.226444   0.14385333 
  196300   -949.22845    43.676134   -905.55231    1564.3207   -246.03595    2.1819783    21.030904   0.13785799 
  196400   -947.55464    44.489783   -903.06486    1593.4627   -404.49463    2.1759123    21.009195   0.13128488 
  196500   -944.67045    47.561611   -897.10884    1703.4844   -1870.7413    2.1654701     22.04296   0.12610737 
  196600   -950.80429    44.900501   -905.90379    1608.1731    2662.9874    2.1890927    20.333699   0.13261111 
  196700   -947.32178    44.181832   -903.13994     1582.433   -307.12791    2.1786421    19.036266   0.14365447 
  196800   -940.95043     42.85514   -898.09529    1534.9157   -616.59828    2.1639073    20.165141    0.1490916 
  196900   -952.04648    44.761416   -907.28507    1603.1916   -120.75728    2.1859831    23.434781   0.11995549 
  197000   -943.52389    40.352976   -903.17092    1445.2973    2940.7403    2.1777499    21.819978   0.13612617 
  197100   -942.81485    43.530557    -899.2843    1559.1067    1470.0702    2.1698821    21.725975   0.14176769 
  197200   -949.99574     42.26068   -907.73506    1513.6243    2737.2609    2.1886587    20.875763   0.14083163 
  197300   -948.47867    45.312762   -903.16591    1622.9388   -1881.7724    2.1761611    19.686866    0.1494191 
  197400   -948.79945    48.790339   -900.00911     1747.493   -3082.0657    2.1735832    22.426781   0.13079707 
  197500   -951.31262    43.731263   -907.58136    1566.2953    354.63139    2.1889026    21.687311   0.12459405 
  197600   -950.17753    47.223986   -902.95354    1691.3919   -1959.0581     2.178849    19.150966   0.13424908 
  197700   -947.31185    47.587822   -899.72403    1704.4232   -669.85374    2.1722453      18.6718   0.13971823 
  197800   -951.45863    44.623243   -906.83539    1598.2427   -926.89978    2.1828832    21.966424    0.1355979 
  197900   -951.28685    48.755177   -902.53168    1746.2336   -866.64621    2.1827664    22.006715   0.12564227 
  198000   -947.54267    48.511696   -899.03098     1737.513   -175.75925    2.1754936    22.171933   0.13489281 
  198100     -946.255    39.746479   -906.50852    1423.5747   -235.01027    2.1771085    23.218238    0.1396965 
  198200   -950.64431    48.849348   -901.79497    1749.6065   -2402.5099    2.1754764    22.324361   0.15474381 
  198300   -944.72186    46.869462    -897.8524    1678.6942     5435.247    2.1825178    21.965636   0.13786196 
  198400   -948.44313     42.74605   -905.69708    1531.0085    477.67765    2.1837017    20.102227   0.12874178 
  198500   -944.73059    42.723797    -902.0068    1530.2115   -4069.0032    2.1633283    19.629376   0.13179502 
  198600   -944.76996    47.149815   -897.62015    1688.7354   -631.82257    2.1694396    20.655504   0.13184057 
  198700   -951.20478    45.295184    -905.9096    1622.3092    9039.2348     2.206386    20.570284   0.12090049 
  198800   -949.74359    47.434671   -902.30892    1698.9379    -1839.109    2.1782351    23.516608   0.13418191 
  198900   -944.45442    44.929991   -899.52443    1609.2293   -8039.0156    2.1502896    20.653081   0.13831449 
  199000   -953.05409    44.946109   -908.10798    1609.8066    617.74445    2.1918845    20.566034   0.12996768 
  199100   -947.75509    45.224658   -902.53043    1619.7832    10312.081    2.2031551    20.997179   0.13889284 
  199200   -949.11411     48.93515   -900.17896    1752.6796   -3252.8044    2.1695094     23.86496   0.13491033 
  199300   -951.54438    43.545807   -907.99857    1559.6529   -10673.442    2.1585251    21.916662   0.13393943 
  199400    -948.9779    45.196367   -903.78153    1618.7699    813.18181    2.1819828    22.997339   0.13486855 
  199500   -942.46754    44.196144   -898.27139    1582.9456    12063.615    2.1951862    19.378591   0.12872835 
  199600   -948.45604    42.230024   -906.22602    1512.5263   -1196.8145    2.1765698    24.424278   0.12397567 
  199700   -949.84154    46.425512   -903.41603    1662.7935   -9626.7512    2.1561808    23.403823   0.13006734 
  199800    -945.2296    46.996885   -898.23272     1683.258    1065.8038    2.1737356    23.062132   0.13820861 
  199900   -950.89143    45.877365   -905.01406    1643.1608    4952.2306    2.1956772    21.253931   0.13716658 
  200000   -950.68533    46.249593   -904.43574    1656.4927   -2664.8525    2.1761895    23.085243   0.13035095 
  200100   -945.65641     47.89892   -897.75749    1715.5656   -6165.3434    2.1566082    20.757952   0.14995588 
  200200   -944.91296    39.573489   -905.33947    1417.3789    3405.9444    2.1850389    20.792835   0.15421223 
  200300   -946.60198    42.943775   -903.65821    1538.0903    4777.8219    2.1885864    19.143766    0.1343153 
  200400   -944.26713    46.818745   -897.44838    1676.8777   -1706.9941    2.1675673    21.331312   0.13856081 
  200500   -947.75896    41.553573   -906.20539    1488.2983      355.189    2.1805745     22.15414   0.12471014 
  200600   -948.36545    44.648818   -903.71663    1599.1587   -180.89328     2.182501    22.261954   0.13420269 
  200700   -946.40853     48.39232   -898.01621    1733.2374    802.78622    2.1742792     22.26924   0.14786311 
  200800   -950.10237    43.356747   -906.74563    1552.8814    555.19841    2.1884937    22.435894   0.14241702 
  200900   -950.64511     45.89295   -904.75216     1643.719   -7053.6773    2.1695191    21.909823   0.12508996 
  201000   -945.84989    46.431791   -899.41809    1663.0184   -404.19642    2.1723792    20.068616   0.13572546 
  201100    -950.0654    43.100337   -906.96506    1543.6978     5883.184    2.2027919    21.215582   0.14110282 
  201200   -947.02462    41.607864   -905.41675    1490.2428   -943.92734     2.179919    19.896206   0.15074276 
  201300   -947.72302    47.132341   -900.59068    1688.1095   -11356.145    2.1507908    22.326102   0.15831953 
  201400    -947.6251    42.246051   -905.37905    1513.1003     335.6771    2.1855194    21.401643   0.12943346 
  201500   -949.75296    43.354655    -906.3983    1552.8065    15148.839    2.2197975    23.013672   0.12549304 
  201600   -946.36544    47.432505   -898.93294    1698.8603   -3442.7192    2.1641632    19.469515   0.13982437 
  201700   -948.51008    45.162725   -903.34735     1617.565   -14325.088    2.1442831    21.587675   0.13921778 
  201800   -950.01603    43.795905   -906.22013    1568.6105    3096.2714    2.1955454    20.308684   0.14285158 
  201900   -947.20053    50.020669   -897.17986    1791.5589    6442.3145    2.1958414    21.311721   0.14034579 
  202000   -944.76654    42.807901   -901.95864    1533.2238    531.19609    2.1731438    21.737068   0.13726027 
  202100   -946.83674    40.020408   -906.81633    1433.3859   -6402.5892    2.1645124    19.282009   0.15261508 
  202200   -948.40728    49.537682    -898.8696    1774.2601    104.02853    2.1780416    19.650244   0.15197297 
  202300   -946.92357     46.76881   -900.15476    1675.0892    7500.6895     2.190766    19.828889   0.14652642 
  202400    -949.5038    43.172059   -906.33175    1546.2666    -3353.163    2.1776556     25.27677   0.15075144 
  202500   -945.08457    44.946971    -900.1376    1609.8375   -5411.8197    2.1635482    21.560256   0.13555142 
  202600   -947.61263    48.305307   -899.30732    1730.1209   -294.38963    2.1824945    19.903989   0.14638916 
  202700   -949.71052    43.367413   -906.34311    1553.2634    4480.0642    2.1970213    20.208407   0.13159417 
  202800   -945.57247    44.405843   -901.16663    1590.4563   -644.79208    2.1730744    23.423534   0.12315576 
  202900   -943.78332    44.123288   -899.66003    1580.3362   -2992.2597    2.1645833    19.812544    0.1459854 
  203000   -949.85619    42.194618   -907.66157    1511.2582    4838.7441    2.1965845    22.422851   0.12276932 
  203100   -948.06973    47.058068   -901.01166    1685.4494    1565.9783     2.184767    19.993463   0.15183924 
  203200   -944.61045    43.383693   -901.22676    1553.8466   -1416.5057    2.1694873    22.017068    0.1609965 
Loop time of 142.661 on 1 procs for 200000 steps with 217 atoms

Performance: 363.380 ns/day, 0.066 hours/ns, 1401.928 timesteps/s
100.0% CPU use with 1 MPI tasks x no OpenMP threads

MPI task timing breakdown:
Section |  min time  |  avg time  |  max time  |%varavg| %total
---------------------------------------------------------------
Pair    | 138.15     | 138.15     | 138.15     |   0.0 | 96.84
Neigh   | 1.2924     | 1.2924     | 1.2924     |   0.0 |  0.91
Comm    | 0.89707    | 0.89707    | 0.89707    |   0.0 |  0.63
Output  | 0.069232   | 0.069232   | 0.069232   |   0.0 |  0.05
Modify  | 1.9287     | 1.9287     | 1.9287     |   0.0 |  1.35
Other   |            | 0.3257     |            |       |  0.23

Nlocal:    217 ave 217 max 217 min
Histogram: 1 0 0 0 0 0 0 0 0 0
Nghost:    953 ave 953 max 953 min
Histogram: 1 0 0 0 0 0 0 0 0 0
Neighs:    4180 ave 4180 max 4180 min
Histogram: 1 0 0 0 0 0 0 0 0 0
FullNghs:  8360 ave 8360 max 8360 min
Histogram: 1 0 0 0 0 0 0 0 0 0

Total # of neighbors = 8360
Ave neighs/atom = 38.5253
Neighbor list builds = 2181
Dangerous builds = 17
Total wall time: 0:02:24
