LAMMPS (3 Mar 2020)
Reading data file ...
  orthogonal box = (0 0 0) to (17.469 17.469 17.469)
  1 by 1 by 1 MPI processor grid
  reading atoms ...
  217 atoms
  read_data CPU = 0.000998554 secs
Reading potential file library.meam with DATE: 2012-06-29
Reading potential file LiSi.meam with DATE: 2020-11-07
1 atoms in group Li
216 atoms in group Si
Neighbor list info ...
  update every 1 steps, delay 10 steps, check yes
  max neighbors/atom: 2000, page size: 100000
  master list distance cutoff = 6
  ghost atom cutoff = 6
  binsize = 3, bins = 6 6 6
  2 neighbor lists, perpetual/occasional/extra = 2 0 0
  (1) pair meam/c, perpetual
      attributes: full, newton on
      pair build: full/bin/atomonly
      stencil: full/bin/3d
      bin: standard
  (2) pair meam/c, perpetual, half/full from (1)
      attributes: half, newton on
      pair build: halffull/newton
      stencil: none
      bin: none
Setting up Verlet run ...
  Unit style    : metal
  Current step  : 0
  Time step     : 0.003
Per MPI rank memory allocation (min/avg/max) = 8.895 | 8.895 | 8.895 Mbytes
Step Temp E_pair E_mol TotEng Press Volume 
       0         1700   -951.04357            0   -903.57924   -114721.17    5330.9442 
    3200    1581.9919   -943.80807            0   -899.63855   -10221.282     4696.294 
Loop time of 2.27665 on 1 procs for 3200 steps with 217 atoms

Performance: 364.325 ns/day, 0.066 hours/ns, 1405.576 timesteps/s
100.0% CPU use with 1 MPI tasks x no OpenMP threads

MPI task timing breakdown:
Section |  min time  |  avg time  |  max time  |%varavg| %total
---------------------------------------------------------------
Pair    | 2.1774     | 2.1774     | 2.1774     |   0.0 | 95.64
Neigh   | 0.050094   | 0.050094   | 0.050094   |   0.0 |  2.20
Comm    | 0.014881   | 0.014881   | 0.014881   |   0.0 |  0.65
Output  | 2.5106e-05 | 2.5106e-05 | 2.5106e-05 |   0.0 |  0.00
Modify  | 0.029328   | 0.029328   | 0.029328   |   0.0 |  1.29
Other   |            | 0.004901   |            |       |  0.22

Nlocal:    217 ave 217 max 217 min
Histogram: 1 0 0 0 0 0 0 0 0 0
Nghost:    957 ave 957 max 957 min
Histogram: 1 0 0 0 0 0 0 0 0 0
Neighs:    4139 ave 4139 max 4139 min
Histogram: 1 0 0 0 0 0 0 0 0 0
FullNghs:  8278 ave 8278 max 8278 min
Histogram: 1 0 0 0 0 0 0 0 0 0

Total # of neighbors = 8278
Ave neighs/atom = 38.1475
Neighbor list builds = 85
Dangerous builds = 1
Setting up Verlet run ...
  Unit style    : metal
  Current step  : 3200
  Time step     : 0.003
Per MPI rank memory allocation (min/avg/max) = 9.659 | 9.659 | 9.659 Mbytes
Step PotEng KinEng TotEng Temp Press Density c_msdli[4] c_msdsi[4] 
    3200   -943.80807    44.169516   -899.63855    1581.9919   -10221.282    2.1475035            0 5.3202031e-32 
    3300   -943.82908    49.436095   -894.39298    1770.6216    904.28773    2.1723449   0.36860194   0.13841848 
    3400   -942.37815    53.379162   -888.99899     1911.848     9037.852    2.1857021   0.24579509   0.12803509 
    3500   -946.07749    48.121393    -897.9561    1723.5338   -6969.2939    2.1622459  0.043281217   0.13933567 
    3600   -942.76487    45.548622   -897.21625    1631.3865   -4993.3233    2.1521083  0.098109012   0.17204631 
    3700   -941.62911    52.624722   -889.00439    1884.8267    7605.1604    2.1793793  0.035282065   0.12140668 
    3800   -947.74737    50.688127   -897.05924    1815.4649    1812.8886    2.1820649   0.13497775   0.11095725 
    3900   -942.10745    42.799399   -899.30805    1532.9193   -10353.768     2.143478   0.32965652   0.14614901 
    4000   -941.40248    47.793305   -893.60917    1711.7829    617.03146     2.165241    0.0200599   0.12804072 
    4100   -945.89792    47.426433   -898.47148    1698.6428      10855.5     2.201171   0.15618484    0.1353295 
    4200   -945.48812    43.288704   -902.19941    1550.4444   -4420.8411    2.1660521  0.098991682   0.12766462 
    4300   -940.18832    44.131912   -896.05641    1580.6451   -7388.4981    2.1452396  0.050902104   0.14672393 
    4400   -939.77994    45.297806   -894.48213    1622.4031    7019.6634    2.1774195   0.13037764   0.16279413 
    4500   -945.72801    42.560103   -903.16791    1524.3485    7857.9436    2.1955438  0.078148455   0.14671972 
    4600   -943.01268    47.651636   -895.36105    1706.7088   -10022.867    2.1425477   0.18632834   0.12779094 
    4700   -943.41409    48.681659   -894.73243    1743.6005   -1725.2509    2.1617451   0.41658632   0.12628654 
    4800   -945.38283    46.640155   -898.74267    1670.4812    8745.4238    2.1967388   0.17862878   0.13769257 
    4900   -948.46267    45.244189   -903.21848    1620.4828    -2116.762    2.1778966  0.055425834   0.12160543 
    5000   -940.20823    47.829905   -892.37832    1713.0938   -11688.708    2.1335587   0.14256988   0.16624336 
    5100   -942.34749    47.196724   -895.15077    1690.4155    5191.6256    2.1849494  0.057796897   0.14889086 
    5200   -947.05815    48.345571   -898.71258     1731.563    4525.4509    2.1865258  0.074320983   0.13837033 
    5300   -941.12041    50.419029   -890.70138    1805.8268   -6683.1344    2.1409771  0.084226142   0.14561416 
    5400   -940.48159     48.23164   -892.24995    1727.4824   -2950.5974    2.1572021   0.44423038    0.1462664 
    5500   -945.67623    48.806195   -896.87003    1748.0609    6182.2161    2.1878509    0.2557492   0.13939684 
    5600    -945.2217    46.282884   -898.93882     1657.685    342.61076     2.174531  0.057929675   0.12784474 
    5700   -939.62697    51.874934   -887.75204     1857.972      -6940.8    2.1379993   0.23207331   0.11336191 
    5800   -942.66183    48.446944   -894.21488    1735.1939    6535.3342     2.183001  0.089565626   0.13215772 
    5900   -943.68518    46.221503   -897.46368    1655.4866    3682.0961    2.1806255   0.30670541   0.14877912 
    6000   -945.16582    48.555748   -896.61007    1739.0908     -8757.69    2.1520061   0.12624309   0.14517656 
    6100   -939.93657    53.200924   -886.73565    1905.4641   -4053.5865    2.1485256  0.013188436    0.1401309 
    6200   -943.47195    47.542677   -895.92927    1702.8063    13270.835    2.2010326 0.0066041204   0.14170648 
    6300   -945.05425    47.183302   -897.87095    1689.9348   -2901.8677    2.1614912   0.10603471   0.11933278 
    6400   -938.62655     44.81299   -893.81356    1605.0388   -5822.0165    2.1392007    0.3122915   0.13102322 
    6500   -934.11273    48.386331    -885.7264    1733.0229    9482.1652    2.1720497  0.095044527   0.13447847 
    6600   -945.66699    49.170376   -896.49662    1761.1046    8577.4088    2.1929358   0.02429493   0.13179976 
    6700   -945.73782    48.015797   -897.72203    1719.7517   -9979.6042    2.1477279  0.045522226   0.12462377 
    6800   -940.81452    46.345927   -894.46859     1659.943   -355.58153    2.1626746   0.08564094   0.14875984 
    6900   -947.98599    51.176829   -896.80916    1832.9684    3713.4805    2.1835016  0.099231421   0.13322286 
    7000   -949.60652     46.65429   -902.95223    1670.9875    176.42215    2.1841475   0.28593555   0.12550015 
    7100   -946.44157    49.044057   -897.39751    1756.5803   -2595.8097    2.1633818  0.034541314   0.12329022 
    7200   -941.72702     46.91832    -894.8087    1680.4441   -274.29997    2.1652479   0.36040617   0.13874615 
    7300   -948.50489    46.313842   -902.19105    1658.7939    289.88191     2.183858  0.033023635   0.14040442 
    7400   -947.24589    45.689868   -901.55602    1636.4454   -469.48782    2.1777644   0.14512522   0.13407906 
    7500   -945.72519    50.233733   -895.49145    1799.1901   -2824.7209    2.1645817   0.13833063    0.1426675 
    7600   -945.44366    48.396667   -897.04699    1733.3931   -2139.5709    2.1671185  0.039501271   0.13301712 
    7700   -950.33026     44.95167   -905.37859    1610.0058   -25.799422    2.1857905  0.014021281   0.13738443 
    7800   -942.47866    46.145504   -896.33316    1652.7646   -1953.2468    2.1626256  0.043603779   0.14312385 
    7900   -944.38511    48.659068   -895.72604    1742.7913    49.700326    2.1698738    0.2687763   0.14456399 
    8000   -948.56869    49.537705   -899.03099    1774.2609    1569.8756     2.177253   0.13672842   0.11815351 
    8100   -951.55935     44.41683   -907.14252    1590.8498   -2500.7418    2.1793348  0.063120051   0.12413586 
    8200   -944.58507    46.946212   -897.63886    1681.4431   -5854.2457    2.1578782   0.33287135   0.14542099 
    8300   -943.76353    47.875323   -895.88821    1714.7205    8034.1362    2.1899406  0.044957319   0.14977612 
    8400   -946.46624    49.248343   -897.21789     1763.897   -261.36565    2.1735313   0.28981942   0.13831199 
    8500    -942.1922    51.047866   -891.14433    1828.3494   -8107.8248    2.1427975  0.050285718   0.13943554 
    8600   -940.80346    51.589574   -889.21388    1847.7514   -1154.8032    2.1541314  0.049779438   0.13758692 
    8700   -940.88167    45.324752   -895.55692    1623.3683    6462.9765    2.1750554   0.19015316   0.14156568 
    8800   -943.53618    45.825723   -897.71046    1641.3112     179.6308    2.1691446   0.27315618   0.15203881 
    8900   -939.69857    45.585922   -894.11265    1632.7224   -1225.5297    2.1585331   0.17735445   0.13215681 
    9000   -939.87883    51.034351   -888.84448    1827.8654   -2968.5671     2.152616   0.10081447   0.14226943 
    9100    -944.1671     47.28763   -896.87947    1693.6714    1367.3409    2.1792002  0.033909902   0.15711567 
    9200   -942.07045    44.985928   -897.08452    1611.2328    4810.2973    2.1791558  0.050558998   0.14670782 
    9300   -942.80899    53.221431   -889.58756    1906.1986   -7812.5742    2.1441524  0.016270196   0.16444506 
    9400   -942.04821    49.853628   -892.19458    1785.5762   -3016.3052    2.1571797  0.060944073   0.15109845 
    9500    -941.2003    44.231837   -896.96847     1584.224    7747.5551    2.1827097    0.3071591   0.13048671 
    9600    -942.4974    46.331055   -896.16635    1659.4104    3993.9621     2.173172   0.10049345   0.13225552 
    9700   -937.80553    47.538668   -890.26686    1702.6627   -5203.5365    2.1397444  0.082341656   0.15014067 
    9800   -939.51525     52.37474   -887.14051    1875.8732   -3820.5092    2.1460322  0.024581673   0.14087942 
    9900     -942.279    46.768072   -895.51093    1675.0627    10445.333    2.1907346  0.079074726   0.14900717 
   10000   -945.32816    48.897094   -896.43107    1751.3166   -690.70631    2.1672352   0.01889578   0.14107097 
   10100   -946.10328    48.031361   -898.07192    1720.3092   -12253.941    2.1446648   0.04104461   0.13127134 
   10200   -952.06073     44.73916   -907.32157    1602.3945     3212.502    2.1969822   0.19901256   0.13442454 
   10300   -942.60992    44.541756   -898.06817    1595.3242    7320.8125    2.1837644  0.050852074   0.13735634 
   10400   -944.84996    48.292668   -896.55729    1729.6682   -7324.7743    2.1526143  0.023611352   0.13907774 
   10500   -946.45658     50.08276   -896.37382    1793.7828   -6244.9423    2.1567514  0.015588032   0.12400204 
   10600   -949.79805    44.203353    -905.5947    1583.2038    9746.4021    2.2059743  0.026794883   0.11976727 
   10700   -948.22548    48.818402   -899.40708    1748.4981   -939.32346    2.1694653 0.0087883589   0.11822765 
   10800   -944.36111    47.890166   -896.47094    1715.2521   -9964.6411    2.1430206   0.10150792   0.13005074 
   10900   -945.69065    50.056192   -895.63446    1792.8313    4097.9208    2.1792947   0.15870996    0.1431873 
   11000     -949.322    45.677507   -903.64449    1636.0027    11578.423    2.2095399  0.049586635   0.13252465 
   11100   -946.38102    46.387498   -899.99352     1661.432   -11457.182    2.1452527  0.039730652   0.13523107 
   11200   -945.27209    48.806227   -896.46586    1748.0621   -5751.9585    2.1545535  0.071548467   0.12053365 
   11300   -943.19097    47.934239   -895.25673    1716.8306    12538.851    2.1969625  0.028619597   0.12730793 
   11400   -943.19608    41.721895   -901.47419     1494.327    1725.1361    2.1776255   0.37831737   0.13263373 
   11500   -948.50774    43.929258   -904.57848    1573.3867   -10332.821    2.1562724   0.80652678   0.12567553 
   11600   -944.91103    49.465172   -895.44586    1771.6631   -939.40763    2.1673326  0.030891639   0.13181471 
   11700   -943.66353    47.949669   -895.71386    1717.3832    7108.3787    2.1827812  0.089461456   0.13490847 
   11800   -944.75131    45.849843   -898.90147    1642.1751   -1940.5694    2.1677319  0.021561543   0.14162517 
   11900   -948.76628    44.516846   -904.24943     1594.432   -5296.5273    2.1678025  0.025256239     0.130692 
   12000   -951.11222     44.72329   -906.38893     1601.826    5002.1187    2.1962696  0.092294624   0.13790311 
   12100   -946.11253     47.56944   -898.54309    1703.7648    199.91578    2.1735032   0.02487839   0.13451184 
   12200   -946.62835    49.693704   -896.93465    1779.8483    -6738.097    2.1577998 0.0093422719   0.11948722 
   12300   -943.53736    49.196123   -894.34124    1762.0267    1006.5779    2.1672115   0.23892902   0.13738844 
   12400   -946.13261    47.774129   -898.35848     1711.096    817.45089    2.1758484  0.026775591   0.13683213 
   12500   -944.87261      42.2818   -902.59081    1514.3807     2107.229    2.1792394  0.092122064   0.12675434 
   12600   -948.66368     50.79466   -897.86902    1819.2805   -1525.3408     2.172321    0.2231978   0.14107531 
   12700   -941.27265    46.726926   -894.54572     1673.589    1146.7403    2.1647807  0.076738276   0.13540228 
   12800   -943.65345    45.335581   -898.31787    1623.7561   -949.03934    2.1621407   0.10067447   0.12969071 
   12900   -946.04127    43.407317   -902.63396    1554.6927    5840.8329    2.1850617  0.060055659    0.1274229 
   13000   -943.20461    47.822672   -895.38193    1712.8347     3418.188    2.1723488  0.082739235   0.13211215 
   13100   -943.49546    47.422405   -896.07306    1698.4986    -5120.018     2.151104   0.23515987   0.13433067 
   13200   -948.03518    43.003525   -905.03165    1540.2303    364.65157    2.1808222  0.094175237   0.11335157 
   13300   -944.60233    46.955946   -897.64639    1681.7917    9648.5342    2.1901087   0.22187787   0.12954702 
   13400   -939.53359    44.655762   -894.87782    1599.4075    286.90798    2.1572763  0.014684137   0.14298968 
   13500   -943.31406    44.137076   -899.17698      1580.83   -10194.827    2.1410748   0.27279642   0.12654199 
   13600   -947.65478    46.573652   -901.08113    1668.0993    7789.7002     2.197376   0.23990527   0.14068306 
   13700   -943.65956     52.10865   -891.55091    1866.3429    4392.2083    2.1806067   0.24808216   0.14317471 
   13800   -943.51222    46.627729   -896.88449    1670.0361   -9539.8009    2.1432703  0.039018445   0.13438833 
   13900   -944.09116    45.559163     -898.532     1631.764    -3414.696    2.1677868  0.088058724   0.15268022 
   14000   -943.60995    50.107612   -893.50234    1794.6729    11237.433    2.1999303   0.14298122    0.1555354 
   14100    -943.5582     53.06814   -890.49006    1900.7083   -7238.4203    2.1487342  0.085551218   0.13931862 
   14200   -944.19518     46.07811   -898.11707    1650.3508   -8113.5227    2.1500394    0.1082228   0.13326253 
   14300    -941.9144    45.332846   -896.58155    1623.6581    9083.8966    2.1879674   0.50823135   0.14579113 
   14400   -938.89058    50.913197   -887.97738    1823.5261    4689.8046    2.1688901  0.022975924   0.14186144 
   14500   -942.33981    47.837294   -894.50251    1713.3584   -8356.1947    2.1475078   0.11853805   0.14706586 
   14600   -943.54716    45.324796   -898.22237    1623.3698   -864.50543    2.1663753   0.01788897   0.13553973 
   14700   -944.93397    50.919094   -894.01487    1823.7373    5838.6653    2.1886422  0.034335869   0.13510061 
   14800   -937.74918    48.869655   -888.87952    1750.3338    158.13482    2.1523821  0.019506285   0.14573131 
   14900   -946.37508     46.80339   -899.57169    1676.3277   -2916.5592    2.1675885  0.099285054   0.12196874 
   15000   -945.37033    48.109281   -897.26104       1723.1    2671.2026    2.1762347  0.035692968   0.13728456 
   15100   -942.90424    49.110822   -893.79342    1758.9715    2165.5795    2.1746683   0.17289642   0.12688096 
   15200   -939.27623    50.512554   -888.76368    1809.1765   -2478.0451    2.1536025   0.21943751   0.12920781 
   15300   -941.13999    52.468054   -888.67193    1879.2154    -5342.582    2.1476747 0.0047505187   0.14700689 
   15400   -945.00438    48.396539   -896.60784    1733.3885    6401.5237    2.1875405   0.10565802   0.12846185 
   15500   -945.09644    48.826595   -896.26984    1748.7916    3483.6556    2.1798782   0.37175678   0.13683569 
   15600   -943.55327    46.314609   -897.23866    1658.8213   -5563.3929    2.1581193   0.13836282   0.13802715 
   15700   -940.57401    44.926568   -895.64744    1609.1067    1697.1319    2.1705619  0.011524045    0.1461949 
   15800   -936.03741    49.497262   -886.54015    1772.8124    430.99909     2.154071    0.2490544   0.14198243 
   15900   -942.74837     48.70405   -894.04432    1744.4024   -196.17388    2.1679388  0.043780684   0.14079787 
   16000   -942.54237    45.258893   -897.28348    1621.0094    1980.2549     2.171719   0.16487096   0.14163574 
   16100   -947.66634    49.284346     -898.382    1765.1866   -1051.6812    2.1744008   0.11700092   0.13075734 
   16200   -939.79102    52.255469   -887.53556    1871.6014   -2571.7656    2.1528392    0.2722568   0.13310508 
   16300   -944.08353    49.489852   -894.59368     1772.547    4314.7595    2.1790042   0.36122096   0.15170384 
   16400   -948.92549    51.117354   -897.80814    1830.8382   -3383.1847     2.168223     0.203196   0.12217709 
   16500   -944.48229     49.48606   -894.99623    1772.4112    -3554.092     2.158947   0.27500212   0.14061875 
   16600   -940.72622    53.369818    -887.3564    1911.5134   -2504.7358    2.1558423  0.036194536   0.15655946 
   16700    -943.3103    46.487707   -896.82259    1665.0211     6127.268    2.1843962   0.11864095   0.14550397 
   16800    -943.0093    45.292487   -897.71681    1622.2126   -3297.5886    2.1620326   0.17946704   0.14919854 
   16900   -943.84172    52.584453   -891.25727    1883.3844   -6746.1149    2.1472089   0.11726952   0.14363791 
   17000   -935.56714     47.00515   -888.56199     1683.554    6625.9927     2.168769   0.51590717   0.15502575 
   17100   -942.87494    45.881415   -896.99353    1643.3059    9219.1728    2.1885472  0.027302707   0.15940166 
   17200   -944.09408    47.169443   -896.92463    1689.4384   -7592.1333    2.1510393   0.03035947    0.1374963 
   17300   -936.75299    43.571116   -893.18188    1560.5594    -3793.415    2.1492968  0.045419727   0.15130785 
   17400   -938.25147    54.428685   -883.82278    1949.4381     10722.42    2.1818558   0.70058725   0.15648375 
   17500    -939.8563    48.926124   -890.93017    1752.3563    1113.3969    2.1612809   0.49594886   0.14547981 
   17600   -943.17286     47.32153   -895.85133    1694.8856   -15708.511    2.1306378  0.036873752   0.15463037 
   17700   -941.80454    45.178663   -896.62588    1618.1359    7022.7012    2.1831708   0.25520669   0.13568037 
   17800   -951.53247    49.564057   -901.96841    1775.2048    6036.8559    2.2022731  0.047059918   0.13306816 
   17900   -950.61226     48.21643   -902.39583    1726.9377   -8652.5212    2.1620301  0.010571947   0.13080163 
   18000   -943.68965    49.083625   -894.60603    1757.9974   -6692.9805    2.1494883  0.075271419   0.12544792 
   18100   -945.75993    49.694902   -896.06503    1779.8912    3039.2191    2.1793593   0.08951415   0.14444724 
   18200   -942.67065    44.869638   -897.80101    1607.0677    6277.7202    2.1802079   0.02243716   0.12359905 
   18300   -938.62759    49.133233   -889.49436    1759.7742    -377.3744    2.1516824   0.16534195   0.13621202 
   18400   -942.78772    51.356058   -891.43166    1839.3878   -2631.9153    2.1604816   0.21143992   0.14373001 
   18500   -942.36563     45.43666   -896.92897    1627.3764     1959.898     2.175771  0.097053426    0.1392802 
   18600   -944.23614    46.651012   -897.58513    1670.8701     1015.921    2.1755804  0.072845192   0.13962082 
   18700   -934.50414    46.899657   -887.60448    1679.7756    628.26943     2.153883   0.15997264   0.14648616 
   18800   -941.07196    46.843466    -894.2285    1677.7631     3506.053    2.1785605  0.044333477   0.15237401 
   18900   -941.72676    44.039076   -897.68769      1577.32   -2268.7141    2.1668254  0.082112016   0.13690667 
   19000   -942.17839    46.956827   -895.22157    1681.8233   -1788.2516    2.1676528  0.031627901   0.14210449 
   19100   -937.99331    52.260852   -885.73246    1871.7942    4813.1646    2.1645531  0.050381352   0.14421954 
   19200   -942.51081    46.769295   -895.74151    1675.1065    5294.5036    2.1821671  0.099245265   0.13065707 
   19300   -943.69859    46.080164   -897.61842    1650.4244   -8490.8018    2.1504137  0.074251953   0.14309974 
   19400   -940.10437    46.063617   -894.04076    1649.8317   -371.06426    2.1631354     0.089647   0.12996904 
   19500   -938.27934    52.350545   -885.92879    1875.0067    10793.777    2.1845458   0.11194667    0.1354566 
   19600   -942.35975    49.241249    -893.1185     1763.643   -3767.9017    2.1539031   0.22931927   0.13357042 
   19700   -943.41059    46.329693    -897.0809    1659.3616   -11300.921    2.1357267  0.037296224   0.13017961 
   19800    -942.9009    47.409626   -895.49127    1698.0409    9732.7266    2.1901302   0.15421139   0.14414393 
   19900   -949.04026    47.036907   -902.00335    1684.6914    4495.3859    2.1910343   0.23239528   0.13825383 
   20000   -945.37278     40.88235   -904.49043    1464.2575   -4868.3364    2.1613646   0.10050717   0.11535864 
   20100   -946.07299    48.999146   -897.07385    1754.9717   -2773.8942    2.1621699  0.090420746   0.13366063 
   20200   -944.43528    48.525506   -895.90978    1738.0076    4857.2562    2.1806471   0.57005548   0.12535488 
   20300   -948.80444     48.69534    -900.1091    1744.0905   -3018.3434    2.1719304  0.031694437    0.1219886 
   20400   -949.96371    43.230504   -906.73321    1548.3599   -4498.7207    2.1741974  0.072822469   0.12822429 
   20500   -942.10802    44.647329   -897.46069    1599.1054     881.3476     2.171498  0.099438839   0.13228966 
   20600   -943.20074    47.316523   -895.88422    1694.7063    3312.7452    2.1765858  0.087910136   0.15202751 
   20700   -943.96884    45.295926   -898.67291    1622.3358   -2138.7964    2.1653155   0.24760395   0.14026007 
   20800   -949.12174    42.137274   -906.98446    1509.2043   -1527.7697    2.1768917   0.34095665   0.15961523 
   20900   -945.29348    47.748249   -897.54523    1710.1691   -2039.5531    2.1686508    5.5262733   0.16164585 
   21000   -942.22587    47.387483   -894.83838    1697.2478    9017.2401     2.185816    6.1717218    0.1621326 
   21100   -945.41955    49.102245   -896.31731    1758.6644   -5375.9052    2.1596181    5.3487054   0.16360735 
   21200   -945.95924    47.640163   -898.31907    1706.2979   -13643.319    2.1427069    3.8529335   0.14921267 
   21300   -949.50807    46.116929   -903.39114    1651.7411    12781.078    2.2105716    6.0674234   0.15390154 
   21400   -940.30414    45.579906   -894.72424    1632.5069    9124.1756     2.185959   0.45054456   0.14049477 
   21500   -943.96854    48.825068   -895.14347    1748.7369    -13961.09    2.1310979   0.31461971   0.14431536 
   21600   -944.99618     48.36912   -896.62706    1732.4065   -2470.9058    2.1652684  0.067295874   0.12923057 
   21700   -950.17041    47.731196   -902.43922    1709.5584    12695.311    2.2137698  0.061353002   0.13631116 
   21800   -944.96996    51.156951   -893.81301    1832.2565   -6586.2359    2.1539018   0.10376095    0.1355476 
   21900   -945.56018    49.060869   -896.49931    1757.1824   -10548.424    2.1480936   0.19738112   0.11736438 
   22000   -949.47424     48.87701   -900.59723    1750.5972    4890.2516    2.1927055   0.11905081   0.12152233 
   22100   -939.61362    48.686755   -890.92687     1743.783    8207.2734     2.174287   0.34350267   0.14629636 
   22200   -938.40664    44.684116   -893.72253     1600.423    -2079.574    2.1542852   0.24244463   0.12888599 
   22300   -944.86999    45.492364   -899.37763    1629.3715   -3366.2047    2.1628148   0.10551941   0.12484951 
   22400   -941.28307    46.439808   -894.84326    1663.3055    8612.9051    2.1844869  0.011697546    0.1378295 
   22500   -939.34859    48.562167   -890.78642    1739.3207    1569.0722    2.1622944  0.015806762   0.13271434 
   22600   -947.99658    48.445151   -899.55143    1735.1296   -6624.2435    2.1599925  0.016313582   0.12789981 
   22700   -944.37429    48.285213   -896.08908    1729.4012    1382.8281     2.176454  0.097546945   0.13751831 
   22800   -937.45266    48.111205   -889.34145    1723.1689    5140.4029    2.1734383   0.13077996   0.13261705 
   22900   -943.24599    44.046868   -899.19912    1577.5991   -1880.9554    2.1699563   0.53580116   0.13124078 
   23000   -940.14558    42.043284   -898.10229     1505.838   -8267.6874    2.1466386   0.10149686   0.13527039 
   23100   -940.06895    48.323606   -891.74534    1730.7763    11474.434    2.1909533   0.18940013   0.12629874 
   23200   -946.67631    47.155835   -899.52047     1688.951      10731.5    2.2056686  0.072008849    0.1259159 
   23300   -947.83887    46.114307   -901.72457    1651.6472   -15708.492    2.1407977   0.13260824   0.12722458 
   23400   -941.82049    46.737062   -895.08343    1673.9521   -4662.5025    2.1545263 0.0097929169   0.12691764 
   23500   -944.50984    48.964118   -895.54572    1753.7171    13788.546     2.203654   0.26469965   0.14192985 
   23600     -950.986    47.582685   -903.40331    1704.2392   -1121.9537    2.1848713   0.11307749   0.12264577 
   23700    -941.5846    47.594848   -893.98976    1704.6749   -8343.7886     2.142126  0.025515588   0.12235312 
   23800   -942.98598    48.309209   -894.67678    1730.2607    4853.0472    2.1786366  0.046452557   0.14789296 
   23900   -945.86615    46.491719   -899.37443    1665.1648    6816.3306    2.1930051   0.09588641   0.12917391 
   24000   -943.16173    50.738425   -892.42331    1817.2664   -4267.2426    2.1548435   0.19144899   0.13024843 
   24100   -941.37856    49.027341   -892.35122    1755.9816   -4158.3904    2.1531388   0.12701641   0.14804532 
   24200   -943.08411     44.71086   -898.37325    1601.3808    5134.0957    2.1850395  0.001705457   0.15502844 
   24300    -946.0515    48.953113   -897.09839     1753.323    1265.9736    2.1766056  0.078808438   0.15545847 
   24400   -939.59972    49.766304   -889.83342    1782.4485   -6201.5236    2.1412919   0.10422925   0.14450244 
   24500   -945.13136    45.432878   -899.69848    1627.2409    1059.9287    2.1772952  0.036490556   0.12445543 
   24600    -942.6847    45.978706   -896.70599    1646.7905    6142.3711    2.1852743    0.1220461   0.14130237 
   24700   -940.16997    48.185143   -891.98483    1725.8171    -4847.118    2.1500097   0.16925538   0.13032653 
   24800   -944.20796    44.217617   -899.99034    1583.7147   -6803.9903    2.1511879   0.10717953   0.12832045 
   24900   -946.78009    47.450056   -899.33003    1699.4889    7317.8262     2.192945   0.15443889   0.14350244 
   25000   -940.69779    47.894763   -892.80303    1715.4167    9457.8716    2.1883459  0.038838071   0.15445317 
   25100   -944.29875    46.921628   -897.37712    1680.5625   -14437.076    2.1311542   0.06216644   0.13787201 
   25200   -951.45364    48.713246    -902.7404    1744.7318   -6784.4549    2.1629121   0.23295402   0.12146008 
   25300   -942.20808       48.726   -893.48208    1745.1886    15277.411    2.2023521  0.081510416   0.12426506 
   25400   -942.12059    46.954947   -895.16565    1681.7559     2665.555    2.1710683  0.028722539   0.12783918 
   25500   -944.33294    43.029135   -901.30381    1541.1476   -9150.9903    2.1477792 0.0040743472   0.12695519 
   25600   -940.45918    44.816928   -895.64226    1605.1798    3981.0266    2.1764772  0.029079953   0.14219585 
   25700   -944.31909    52.289135   -892.02996    1872.8072    4623.4845    2.1754859   0.37534926    0.1451035 
   25800    -944.9026    45.094907   -899.80769     1615.136   -4620.1909    2.1631232   0.14984075   0.13294956 
   25900   -943.19236    47.173497   -896.01887    1689.5836   -3395.6991    2.1615774  0.017233298   0.12824987 
   26000   -940.89809    50.603903   -890.29418    1812.4483    1673.7442    2.1666831   0.23895046    0.1287828 
   26100   -943.40049     44.27986   -899.12063     1585.944    3385.4281    2.1792966   0.16865526   0.13616782 
   26200    -944.3126    48.163822   -896.14878    1725.0534   -3586.4322    2.1599218   0.20834497   0.13611019 
   26300      -941.15    50.212982   -890.93702    1798.4469   -3496.4591     2.152901 0.0081037529   0.13497644 
   26400   -946.31283    45.939094   -900.37374    1645.3717    7232.4718    2.1966265  0.097411195   0.13727278 
   26500   -944.76445    48.256821   -896.50763    1728.3843   -1822.3512    2.1635679  0.062967911   0.12150161 
   26600   -940.14101    46.654778   -893.48623    1671.0049    -11571.85     2.132911   0.01163154   0.13725025 
   26700   -948.56119    45.966348   -902.59485    1646.3479    5025.2778    2.1955673  0.024430253   0.13320152 
   26800   -944.44736    46.464088   -897.98328    1664.1751     11441.84    2.1969926  0.058943675   0.12988295 
   26900   -938.44845    43.856109   -894.59234    1570.7668    -8753.525    2.1341853   0.05608511   0.13896204 
   27000   -946.38204    48.271217   -898.11083    1728.8999    -9106.374    2.1525999  0.048401953   0.12461551 
   27100   -945.99114    45.929695   -900.06144    1645.0351    16695.564    2.2199936    0.1761606   0.14168271 
   27200   -938.52311    46.892135   -891.63098    1679.5062    1856.3734    2.1670488  0.059555319   0.13660357 
   27300   -942.20758    45.307763   -896.89982    1622.7597   -7830.6481    2.1472277   0.31336438   0.12506541 
   27400   -947.00726    48.139784   -898.86747    1724.1925    598.73209    2.1800302  0.029992407    0.1425811 
   27500   -939.62058    50.559865   -889.06071     1810.871    4763.6882    2.1694962   0.27809068   0.13209833 
   27600   -943.51175     47.51882   -895.99293    1701.9518   -482.53332    2.1660253  0.028420707   0.14853106 
   27700   -946.08711    46.637701   -899.44941    1670.3933   -5338.0986    2.1628039   0.13456172   0.13669877 
   27800    -944.1956    53.043437   -891.15216    1899.8235    1110.9539    2.1709608   0.08266493   0.12417715 
   27900   -948.10442    52.186316    -895.9181    1869.1246    483.25883    2.1752607  0.025994059   0.12567469 
   28000   -945.42603    45.316165   -900.10986    1623.0607   -5554.6883    2.1602942  0.049068423   0.12516514 
   28100   -940.98773    47.411941   -893.57579    1698.1238    1929.3684    2.1671755   0.07228006   0.13812765 
   28200   -942.53253    45.781303   -896.75123    1639.7203    6222.2952    2.1825902   0.12242426   0.14292951 
   28300   -947.44538    45.253049   -902.19233    1620.8001   -739.40039    2.1726915   0.20929029   0.13049766 
   28400   -942.14362    46.757056   -895.38657    1674.6682   -2118.1975    2.1599546   0.09893935    0.1337218 
   28500   -943.43125    48.917435   -894.51381    1752.0451    3331.1712    2.1789658   0.03887002   0.12162024 
   28600   -948.12817     45.16833   -902.95984    1617.7658    6581.9948    2.1946629  0.013263334   0.13191204 
   28700   -942.49576     47.77559   -894.72017    1711.1484   -12058.673    2.1332413   0.27836767   0.12997026 
   28800   -945.44049    50.625777   -894.81471    1813.2318   -1106.1834    2.1669572   0.10726718   0.13221072 
   28900   -946.41337    47.847455   -898.56591    1713.7223    13341.826    2.2117336  0.032266163   0.13687577 
   29000   -943.03929    46.983794    -896.0555    1682.7891   -5747.0576    2.1574428  0.083620301   0.12911392 
   29100   -941.87304    49.909932    -891.9631    1787.5928   -13274.737    2.1283966  0.032266106   0.13936308 
   29200    -944.3237     46.91664   -897.40706    1680.3839    8098.1853    2.1903544  0.020995694   0.13792159 
   29300   -945.91306    47.175598   -898.73746    1689.6589    8114.5618    2.1986217  0.029838878   0.14245731 
   29400   -938.14218    48.271621   -889.87056    1728.9144   -8740.5909    2.1370153   0.16069305   0.14052648 
   29500   -945.50342    47.515315   -897.98811    1701.8263   -2208.3037    2.1699613  0.059366958   0.11696801 
   29600   -944.57376     46.46421   -898.10955    1664.1795    7676.5712    2.1906593 0.0022608112   0.15467527 
   29700   -944.74301     51.74143   -893.00158    1853.1904   -1798.3993    2.1679271  0.070412579   0.14767505 
   29800   -943.91928    51.267269   -892.65201    1836.2077   -6930.1606    2.1492915 0.0053646854   0.13284676 
   29900   -946.67725    46.483662   -900.19359    1664.8762    2748.1223    2.1827334    0.0441254   0.12816232 
   30000   -944.53889    50.094092   -894.44479    1794.1887    3993.3493    2.1828203   0.16844298   0.13385624 
   30100   -942.48349    46.765422   -895.71806    1674.9678   -4877.5376    2.1550747  0.069319418   0.11487745 
   30200    -948.1054     44.38499   -903.72041    1589.7094   -2200.3005     2.174723   0.18105792   0.10785512 
   30300   -941.94088    46.725066   -895.21581    1673.5224    8734.9988     2.181453 0.0077399066   0.15013708 
   30400    -947.6488     52.13435   -895.51445    1867.2634   -1043.6937    2.1740094  0.084161715   0.13262778 
   30500   -945.70865    42.095014   -903.61363    1507.6907   -4715.9726     2.161408  0.010144723   0.13923909 
   30600   -944.28458    47.712769   -896.57181    1708.8983   -1389.2985    2.1666064   0.08189478   0.15713042 
   30700   -942.80426    50.210763    -892.5935    1798.3674    16485.105    2.2046111  0.034384948   0.12634786 
   30800   -944.41847    44.798908   -899.61957    1604.5344   -4623.5323    2.1550551    0.1120683   0.11225833 
   30900   -942.77131    47.927366   -894.84395    1716.5844   -16743.656    2.1218269   0.20176475   0.13979286 
   31000   -942.99537    53.361496   -889.63387    1911.2153    8440.1101    2.1849542    0.1999397   0.13031722 
   31100    -942.2315    46.801194    -895.4303    1676.2491    7574.6045    2.1831695   0.87904692   0.14895556 
   31200   -943.17628    44.942432   -898.23385    1609.6749   -7355.7219    2.1481088   0.10326305   0.14117409 
   31300   -946.20149    51.044914   -895.15657    1828.2437   -1803.7107    2.1656594  0.087768133   0.13749167 
   31400   -941.18412    52.102705   -889.08142      1866.13    3499.8704    2.1676166  0.096742395    0.1284431 
   31500   -940.85356    45.015097   -895.83847    1612.2775    1052.5963    2.1665171  0.070062851   0.14366449 
   31600   -946.47217    47.968916   -898.50325    1718.0726   -3920.1459     2.168584  0.083949512    0.1257158 
   31700   -943.07713    50.348862   -892.72827    1803.3137    1077.4636    2.1744922   0.21849451   0.14104829 
   31800   -940.73566    50.168973   -890.56669    1796.8707   -734.52305    2.1612237   0.27528842   0.14444492 
   31900   -944.00777    45.903972   -898.10379    1644.1138   -3839.1678     2.160405    0.1183413   0.13447562 
   32000   -943.84843    47.489676   -896.35875     1700.908    3694.4031    2.1817382  0.054462733   0.14371507 
   32100   -937.71497    50.257849   -887.45712    1800.0539     7365.928    2.1720408   0.13839832   0.14542689 
   32200   -941.48066    46.576816   -894.90385    1668.2127   -6479.3027    2.1474475  0.027738721   0.13619581 
   32300   -942.76162    44.140662   -898.62096    1580.9584   -7672.5352    2.1502869  0.040081227   0.13593908 
   32400   -942.31457    49.706785   -892.60778    1780.3168    16621.975    2.2025865   0.12044677   0.12504849 
   32500   -944.02137    47.936711   -896.08466    1716.9192    2864.5684    2.1738213  0.087277689    0.1445129 
   32600   -944.75651    42.131249   -902.62526    1508.9885   -11489.218    2.1446378   0.10474223   0.11561023 
   32700   -945.64253    48.753546   -896.88898    1746.1752    1495.4195    2.1796671  0.092995039   0.14332556 
   32800   -943.05037    49.650797   -893.39957    1778.3115    8472.8959     2.189542   0.17412353   0.15451524 
   32900   -946.31113    45.492013   -900.81911    1629.3589   -6566.1466    2.1574429   0.13421833   0.12434847 
   33000   -944.78788    43.909916   -900.87796     1572.694   -2686.7477    2.1678892  0.012369941   0.14118792 
   33100   -947.16271    53.405923   -893.75679    1912.8065    3081.0502    2.1795092  0.067109742   0.12546229 
   33200   -944.79439     46.64164   -898.15275    1670.5344    2163.6851     2.174209  0.068716686   0.11718299 
   33300   -947.86484    43.893091   -903.97175    1572.0913   -4168.6482     2.167189   0.18882628   0.13104683 
   33400   -941.57379    47.390318   -894.18347    1697.3493   -1185.8583    2.1621103  0.068111425   0.14788238 
   33500   -945.45575    49.867612   -895.58814     1786.077    4890.1018    2.1834661  0.056412779   0.13464273 
   33600   -949.74494    48.521951   -901.22299    1737.8803   -2295.3926    2.1721076    0.0763041   0.12402021 
   33700   -937.81272    45.394871   -892.41785    1625.8796   -3579.0037    2.1477396   0.10324161   0.12334897 
   33800   -943.42244    49.789108   -893.63333    1783.2653    4846.1434    2.1777816   0.17555639   0.13650972 
   33900   -948.11885    49.404191   -898.71465     1769.479     1379.682    2.1766819    0.1114669    0.1271463 
   34000    -940.8711    46.549985   -894.32112    1667.2516   -6577.1707    2.1443178  0.055695286   0.11026772 
   34100    -939.8301     49.40934   -890.42076    1769.6634    -334.4612    2.1562114  0.047023039   0.13234422 
   34200   -945.39574    47.688944    -897.7068     1708.045    12811.354    2.2029418   0.16820562   0.13179561 
   34300   -944.22642    46.698692   -897.52773    1672.5778   -2686.5269    2.1617799  0.017669906   0.12338169 
   34400   -939.84953    48.220995   -891.62854    1727.1012   -16753.603    2.1159788   0.32404283   0.14333313 
   34500   -948.30074    46.336599   -901.96414    1659.6089    11352.284    2.2084183  0.097016692   0.14071281 
   34600   -944.92398    46.513661   -898.41032    1665.9507    9593.5382    2.1956894   0.26209048   0.12672579 
   34700   -939.63536     44.35052   -895.28484    1588.4748    -8094.491     2.141676  0.068343012   0.14525205 
   34800   -943.70761    49.567799   -894.13982    1775.3388   -5675.0391    2.1567529  0.046772875   0.14074119 
   34900   -948.58711    45.870772   -902.71633    1642.9247    11506.346    2.2089149   0.11025267   0.12843686 
   35000   -942.27094    47.144658   -895.12628    1688.5507   -1984.7186    2.1633016  0.037540066   0.12505904 
   35100   -944.94228    49.284595   -895.65769    1765.1954    -7480.193    2.1476097   0.20254307   0.12718497 
   35200   -945.90054     44.17565   -901.72489    1582.2116    5052.9399    2.1871376  0.060306532   0.13826475 
   35300   -947.45499    46.869769   -900.58522    1678.7051    6311.0235    2.1934747   0.11336442   0.14520206 
   35400   -943.32971    48.870491   -894.45922    1750.3638   -4757.7808    2.1514359  0.098255822   0.13691762 
   35500   -946.45603    48.679463   -897.77657    1743.5218   -5524.8431    2.1607615   0.17078103   0.14048077 
   35600   -946.86895    45.001178   -901.86777     1611.779    8005.5452    2.1946626   0.15804006   0.13473297 
   35700   -940.88291     49.40057   -891.48234    1769.3493    1236.7421    2.1630345   0.19691384   0.13066189 
   35800   -939.28509    44.776684    -894.5084    1603.7385   -2236.3331    2.1593078  0.091745396   0.14792427 
   35900    -943.7768    45.638121   -898.13868     1634.592    698.48334    2.1725694   0.22408464   0.13055585 
   36000   -949.33152    50.402053   -898.92946    1805.2187    4209.5794    2.1864519   0.11403986   0.13976081 
   36100   -941.69159    52.534013   -889.15758    1881.5778   -7569.0338    2.1422565   0.18797045   0.15550014 
   36200   -943.92269    47.214328   -896.70836     1691.046   -5813.0555    2.1568735  0.049360893    0.1342732 
   36300   -945.12709    48.507903   -896.61919    1737.3772    14607.483    2.2068409  0.084932135   0.14633126 
   36400   -944.97966    49.820605   -895.15906    1784.3934   -422.01905     2.171682  0.095942109   0.13793406 
   36500   -938.29288    48.810853   -889.48203    1748.2277   -18189.656    2.1075592  0.084404655    0.1504125 
   36600   -946.33342    47.099979   -899.23344    1686.9504    4724.8519    2.1889957    0.1250677   0.13768624 
   36700   -943.39106    46.913973   -896.47708    1680.2884     11760.82    2.2004493  0.080496734   0.15323656 
   36800   -939.48369    46.404051   -893.07963    1662.0248   -7192.4266    2.1437432   0.20137206   0.13287936 
   36900   -940.15929    49.150767   -891.00853    1760.4022   -8570.0274    2.1383783  0.013688899   0.14041703 
   37000   -948.01411    47.278709    -900.7354    1693.3519    11162.297    2.2081062  0.022868252   0.14566645 
   37100   -946.75168     49.93785   -896.81383    1788.5927    1176.6453    2.1770856  0.034715685     0.132639 
   37200   -943.45889    48.331765   -895.12712    1731.0685   -8941.1303    2.1404249  0.039333767   0.12362931 
   37300   -951.45918    49.173998   -902.28518    1761.2343   -1770.3026    2.1801931   0.10920729   0.12669608 
   37400   -952.10486    50.532739   -901.57212    1809.8995    7008.8151    2.2050965   0.21227343   0.12031794 
   37500   -943.64859     48.22347   -895.42512    1727.1898   -2345.6533    2.1644664 0.0054429448   0.14125245 
   37600   -947.22122    50.821549   -896.39967    1820.2436   -12660.813    2.1468745  0.050214398   0.13692431 
   37700    -951.6192    47.201489   -904.41771    1690.5861    4732.0568     2.198759   0.13921871   0.12701431 
   37800   -945.84488     49.09751   -896.74737    1758.4948    5169.5102    2.1852244  0.072967262   0.12903334 
   37900   -941.16946    45.678672   -895.49079    1636.0444   -7167.5722     2.151934   0.12383741   0.13430339 
   38000   -945.10812      46.5512   -898.55692    1667.2951   -4436.2568    2.1611466  0.038080249    0.1419274 
   38100    -950.0321    46.434113   -903.59798    1663.1015    7226.7673    2.2009876   0.33300062   0.12840752 
   38200   -940.26684    47.377569   -892.88927    1696.8927   -725.57626    2.1588043  0.039233799   0.13012477 
   38300   -947.51575    51.905267   -895.61049    1859.0584   -7115.8588    2.1582641   0.21601453     0.128609 
   38400   -944.86003    46.688237   -898.17179    1672.2033    3781.6291    2.1795297  0.047010332   0.14651286 
   38500   -948.20154    45.410569   -902.79097    1626.4419     448.8252    2.1829116  0.027012393    0.1407282 
   38600   -949.14549     45.11784   -904.02765    1615.9574   -3951.0656    2.1749049   0.33226071   0.12622285 
   38700   -942.27594    47.373742    -894.9022    1696.7556   -2122.5397    2.1593327   0.16008256   0.13575855 
   38800   -941.73432    45.829435   -895.90488    1641.4442    4040.3344    2.1792102   0.10064455    0.1353433 
   38900   -942.03606    45.290494   -896.74557    1622.1412    3159.9641    2.1785311   0.17594789   0.13743248 
   39000   -946.70713    47.297293   -899.40984    1694.0175   -11048.053    2.1528154  0.064598379   0.13968502 
   39100   -954.68374     46.76102   -907.92272    1674.8101   -1566.6037    2.1861449  0.034558473   0.12280601 
   39200   -950.30781    51.277526   -899.03028     1836.575    10048.186    2.2073938   0.41502591   0.13055169 
   39300    -943.6778    46.936686   -896.74111    1681.1019   -6493.6221    2.1534364   0.12543531   0.14450948 
   39400   -941.02305    44.883472   -896.13957    1607.5632   -8911.8145    2.1396033    0.1342283   0.13075348 
   39500   -950.32182      45.3509   -904.97092    1624.3048    9572.2818    2.2098692   0.11875977   0.13385002 
   39600    -950.7006    50.456452   -900.24415    1807.1671    1332.6769    2.1858387  0.066298069   0.12058964 
   39700   -944.19892    47.503725   -896.69519    1701.4111   -10210.778     2.144541  0.032703145   0.12853444 
   39800   -945.48594     49.14529   -896.34065    1760.2061   -2019.6521    2.1648643   0.18763314    0.1428468 
   39900   -949.21849    44.935107   -904.28338    1609.4126    8453.9061    2.2042672  0.043600426   0.13004715 
   40000   -947.12398    47.314639   -899.80934    1694.6388   -2602.8532    2.1699753  0.049913597   0.12058223 
   40100   -948.86669     52.39565   -896.47104    1876.6222   -9291.3111    2.1520328   0.11250537   0.11372389 
   40200   -944.23355    47.654335   -896.57922    1706.8055    2402.1498    2.1752985   0.15854209   0.12071906 
   40300   -947.90657    44.913883   -902.99268    1608.6524    4690.5137    2.1907137   0.13312289   0.12442232 
   40400   -944.29585    40.360683   -903.93517    1445.5733   -2166.6535    2.1685726  0.033393136    0.1345347 
   40500   -942.29782    45.039166   -897.25865    1613.1396   -1828.6986    2.1607309   0.11209784   0.13789958 
   40600   -946.10301    50.119251   -895.98376    1795.0898    4744.0662    2.1842792   0.10271732   0.12600331 
   40700   -946.84726    47.391818   -899.45544    1697.4031    1979.6157    2.1816371  0.074253416   0.12660158 
   40800    -948.2201    41.145541   -907.07456     1473.684   -8883.8478    2.1622967 0.00087875947    0.1266754 
   40900   -946.53239     47.83106   -898.70133    1713.1351   -5845.3321    2.1593955   0.17991856   0.12534188 
   41000   -946.86374    51.695132   -895.16861    1851.5322    11381.551    2.2008514  0.017210138   0.13448691 
   41100   -944.77523    45.962415   -898.81282     1646.207   -937.22535    2.1689564  0.008811855    0.1322962 
   41200   -950.27058    43.171922   -907.09866    1546.2617    -14988.03    2.1443405  0.043658036    0.1118033 
   41300   -949.19567    49.615583   -899.58009    1777.0502      1500.41    2.1816538  0.024850052   0.13174485 
   41400   -945.75617    50.760085   -894.99609    1818.0422    11297.913    2.1985141   0.02855355   0.13868534 
   41500   -945.29932    47.086269   -898.21305    1686.4594   -7731.9811    2.1531325   0.13480344   0.12649612 
   41600   -946.30811    41.532103     -904.776    1487.5293   -5393.0223    2.1630548  0.070014855   0.12958298 
   41700   -948.35837    47.081994   -901.27638    1686.3063    6901.1158     2.195811  0.044295866   0.13795136 
   41800   -945.59284    49.525474   -896.06737    1773.8229    1493.3881    2.1771568   0.11587694   0.13807673 
   41900   -943.60374    46.327921   -897.27582    1659.2981     -7265.55    2.1505503   0.15462793   0.13262177 
   42000   -947.71312    48.415812   -899.29731    1734.0788   -510.59933    2.1752942   0.12465005   0.13219555 
   42100   -953.06207    45.445619   -907.61645    1627.6973      8163.81    2.2109255   0.14516327   0.12007679 
   42200   -945.97849    47.354748   -898.62374    1696.0754   -6383.9947    2.1572424    0.1183896    0.1500278 
   42300   -943.28443    46.572938   -896.71149    1668.0737   -6234.3017    2.1575254  0.058698864   0.13305018 
   42400   -945.89744    51.517343   -894.38009    1845.1644    6014.5445      2.18527   0.12716176   0.13575147 
   42500   -947.70746    45.019552   -902.68791    1612.4371    87.021834    2.1781811  0.045787267   0.12448048 
   42600   -946.29634    44.603571   -901.69277    1597.5382   -7407.5871    2.1557008  0.098788637   0.11231034 
   42700   -946.05841    49.866677   -896.19173    1786.0435    2360.0539    2.1806372   0.14747342   0.14882386 
   42800   -942.11452    46.995948   -895.11857    1683.2244    4065.7834    2.1795162  0.040769913   0.14610934 
   42900   -946.15296    43.727058    -902.4259    1566.1447   -5735.8435    2.1633413  0.040625168   0.12049891 
   43000   -948.23484    46.312543   -901.92229    1658.7474   -2920.7055    2.1738551    0.2169274   0.14336237 
   43100    -943.3046    48.060723   -895.24387    1721.3608    3558.2231    2.1807718   0.11299568   0.13674943 
   43200   -942.57207    45.850045   -896.72202    1642.1824   -2582.7083    2.1667256   0.12880076   0.13968029 
   43300   -947.03983    41.735178   -905.30466    1494.8027    -3099.144     2.173351   0.01799508   0.12739708 
   43400   -946.00465    47.191928   -898.81272    1690.2437    657.03213    2.1738731  0.079742022   0.12502534 
   43500   -941.79656    46.562629   -895.23393    1667.7045    4870.8655    2.1771197   0.14870427   0.13587309 
   43600   -941.41195    42.943717   -898.46824    1538.0882   -1156.4475    2.1662477  0.026065212   0.12894657 
   43700   -950.03502    44.265353   -905.76966    1585.4244     -3239.97    2.1789855  0.045026803   0.14494948 
   43800   -944.49126    47.830587   -896.66067    1713.1182    1867.1759    2.1757004   0.33207959   0.12758976 
   43900   -943.71511    48.260133   -895.45498     1728.503    4763.6724    2.1792995 0.0040377675   0.12814187 
   44000   -941.43349    43.318856   -898.11464    1551.5243   -2039.9063    2.1631202  0.037819624   0.14319071 
   44100   -945.47855    45.696384   -899.78216    1636.6788   -2164.7623    2.1699226  0.037379201   0.12474934 
   44200   -950.81202    42.863077   -907.94895       1535.2    5321.2912    2.2022021  0.047579813   0.12261631 
   44300   -947.94522    41.142308   -906.80292    1473.5683    659.73406    2.1845745   0.10929306   0.14790866 
   44400   -949.10202    47.837777   -901.26424    1713.3757   -6214.6231    2.1624649   0.14821504   0.13873494 
   44500   -945.30917    47.932463    -897.3767     1716.767     4206.685     2.182994   0.18612501   0.13220209 
   44600   -943.59854    49.666907   -893.93164    1778.8885     5518.201    2.1799395   0.52635853   0.15164361 
   44700   -941.38428    46.507603   -894.87667    1665.7337   -7966.5439    2.1453831   0.02236282   0.13363623 
   44800   -946.99105    44.268779   -902.72227    1585.5471   -1155.4992    2.1788978  0.029136718   0.13387352 
   44900   -943.26259    47.405171   -895.85741    1697.8813    9872.0577    2.1956976   0.02873077    0.1649878 
   45000   -942.05812    46.315406   -895.74272    1658.8499   -2965.6774     2.158727   0.09512625   0.15617358 
   45100   -946.06117    42.743371   -903.31779    1530.9125   -9713.5961    2.1549594   0.42101316   0.12857163 
   45200   -945.63118     44.77314   -900.85804    1603.6115    7809.5972    2.1913393  0.047805675   0.13788234 
   45300   -941.68114     47.35888   -894.32226    1696.2233    7973.7094    2.1866509   0.23852441   0.13576544 
   45400   -941.25301    43.163393   -898.08962    1545.9562    -6203.504    2.1498271  0.026528024   0.14509676 
   45500   -948.62488    44.485356   -904.13952    1593.3041   -4721.2985    2.1716443  0.032698268   0.13450212 
   45600   -941.69853    44.860634    -896.8379    1606.7452    12473.112    2.1973247  0.024309426   0.15485617 
   45700    -943.5078    48.620114   -894.88769    1741.3962    2331.1146    2.1719828  0.063761453   0.13368873 
   45800   -946.05972    47.859034   -898.20068    1714.1371   -9969.8241     2.150872   0.17756778   0.13501914 
   45900    -942.8696    45.356917   -897.51268    1624.5203    3689.7418    2.1768692  0.033951346   0.12921709 
   46000   -940.30146    52.121604   -888.17986    1866.8068     430.1775     2.160259   0.39858485   0.14501863 
   46100   -944.55661    48.943054   -895.61356    1752.9627   -2592.5141     2.165456  0.061418355   0.13932015 
   46200    -942.6686    44.519099    -898.1495    1594.5127    1012.1622    2.1710979  0.038325054    0.1308766 
   46300   -943.35502    49.574129   -893.78089    1775.5655    3490.8622    2.1741504  0.041687839   0.13146838 
   46400   -940.35758    50.649915   -889.70767    1814.0963   -3284.2523    2.1515847    0.1783405   0.14726703 
   46500   -943.91451    45.917874   -897.99663    1644.6117   -1471.9519    2.1679927  0.049666427   0.14061158 
   46600   -942.68615    46.319461   -896.36668    1658.9951    5706.2083     2.178994    0.2039854   0.13091398 
   46700   -937.39281    49.055933   -888.33687    1757.0056    2444.0447    2.1596919  0.082776647   0.13458163 
   46800   -941.51363    45.767424   -895.74621    1639.2231   -3646.8757    2.1548089    0.1515186   0.11808401 
   46900    -943.1198    44.971416   -898.14838     1610.713   -2188.1633    2.1618528    0.1804426   0.13698147 
   47000   -942.58063    48.635952   -893.94468    1741.9634    7844.1131    2.1846975   0.13394205   0.12919161 
   47100   -941.94277    51.157142   -890.78563    1832.2633    305.21273    2.1620311  0.052536289   0.13579254 
   47200   -943.41092    42.720757   -900.69016    1530.1026   -12060.837    2.1380439  0.013289058   0.14480781 
   47300   -946.15182    46.827775   -899.32404    1677.2011   -2803.5649    2.1694527   0.20625674   0.13266285 
   47400   -941.50518    47.571091   -893.93409     1703.824    19822.374    2.2115721  0.073893097   0.14719102 
   47500   -944.60244    45.998152   -898.60429     1647.487   -6848.5311    2.1556638   0.27531935   0.12890639 
   47600   -950.56403    44.156244   -906.40779    1581.5165   -13617.512    2.1491474   0.11924904   0.11789609 
   47700   -945.67528    47.456239   -898.21904    1699.7104    7078.1898    2.1904275  0.048728061    0.1406335 
   47800   -943.24916     48.04089   -895.20827    1720.6505    7628.9692    2.1890684   0.17352497   0.13248769 
   47900   -946.32615    47.544701   -898.78145    1702.8788   -6728.4947    2.1514645   0.41128151   0.11862537 
   48000   -952.56653    46.466059   -906.10047    1664.2457   -4345.8635    2.1756854  0.085894497    0.1004568 
   48100   -947.84804    50.017644    -897.8304    1791.4506    5809.7199    2.1904051  0.033358284   0.13460552 
   48200   -946.29626    50.312343   -895.98392    1802.0057    1436.7387     2.174263   0.25926573   0.15079391 
   48300   -943.42446    45.716771   -897.70769     1637.409   -5610.3629    2.1531396   0.10227036   0.14375046 
   48400   -946.28423    48.429774   -897.85445    1734.5789   -423.23603    2.1733969  0.094533761   0.13303996 
   48500   -939.89649     52.14268   -887.75381    1867.5617    2745.0116    2.1624218   0.12450718   0.14583784 
   48600   -943.46396    49.650908   -893.81305    1778.3155   -2205.8466    2.1627405   0.06389138    0.1377176 
   48700   -945.56145    47.785468   -897.77598    1711.5022   -3947.9822    2.1667196  0.063655224   0.13764818 
   48800     -944.396    47.671161   -896.72484    1707.4081    3115.8852    2.1790125  0.052108149   0.14608022 
   48900   -941.21083    53.988536    -887.2223    1933.6736   -3152.0906    2.1567266   0.26655096   0.15218358 
   49000   -940.31373     43.99351   -896.32022     1575.688    462.50473    2.1660258   0.24093979   0.15543809 
   49100   -944.39128    46.918906   -897.47237    1680.4651    2159.1209     2.176803  0.067674067   0.14896518 
   49200   -943.94368    50.621472    -893.3222    1813.0775    1781.4762    2.1739293  0.029185787   0.15799125 
   49300   -940.22659    51.413868   -888.81272    1841.4583   -6107.8475    2.1458745  0.058918802   0.14430469 
   49400   -942.19552    44.320478   -897.87504    1587.3988    522.36241     2.173169   0.14462585   0.14224244 
   49500   -945.17792    49.142327   -896.03559    1760.0999    4890.8578    2.1878154   0.10688205   0.12784212 
   49600   -942.58507    51.111923   -891.47315    1830.6437   -2771.5171    2.1555752 0.0021543475   0.13125896 
   49700   -934.08078    46.242418   -887.83836    1656.2357   -4978.9536    2.1350769   0.61800531   0.15020664 
   49800   -942.67596      46.1905   -896.48546    1654.3762    8203.2457    2.1904801   0.10413182   0.15724019 
   49900    -946.9614    50.706439   -896.25496    1816.1207     5346.117    2.1855895   0.04100766   0.14416432 
   50000   -943.01111    49.105069   -893.90604    1758.7655   -8884.2874    2.1440638  0.068101945   0.13123977 
   50100   -936.63275    52.242457   -884.39029    1871.1354   -3790.3181    2.1433661   0.35122113   0.15001196 
   50200   -942.04257    47.307759   -894.73481    1694.3924    16747.321    2.2110851  0.041743703   0.14907359 
   50300    -944.6894    47.636206   -897.05319    1706.1562   -5141.6982    2.1617793  0.080654325   0.13438308 
   50400   -942.64168    46.069226   -896.57245    1650.0326   -7626.1923    2.1479389   0.11820444   0.11497851 
   50500   -947.02409    40.796469   -906.22762    1461.1816    7323.8923    2.2016649  0.085310116   0.13927868 
   50600    -946.0741    45.348169   -900.72593     1624.207    1918.0219    2.1842679   0.16030055   0.13118885 
   50700   -947.19581    50.600778   -896.59503    1812.3363    -3705.638    2.1669349  0.062666261   0.12840459 
   50800    -944.8111    49.153676   -895.65742    1760.5064   -2257.5818    2.1694652   0.14673236   0.15548416 
   50900   -948.61834    44.143988   -904.47435    1581.0775   -531.97037    2.1847404   0.10636945   0.14330143 
   51000   -944.92386    44.212127   -900.71173    1583.5181   -1108.1964    2.1751068   0.31540876   0.15965831 
   51100   -942.93565    47.111541   -895.82411    1687.3645     1577.449    2.1762677  0.039775765    0.1461762 
   51200   -946.80758    50.204712   -896.60287    1798.1507   -972.05962    2.1737732   0.10383283   0.13610888 
   51300   -950.05332    44.284118    -905.7692    1586.0965   -2072.3256    2.1827063   0.31311966   0.12287459 
   51400   -944.01025     45.19834   -898.81191    1618.8406   -1502.1054    2.1706083   0.59261376   0.15013153 
   51500   -945.93601    50.731851   -895.20416    1817.0309    3665.1027    2.1830631  0.016665152   0.13247811 
   51600   -950.14379    51.565504   -898.57828    1846.8893     -6285.32     2.167918 0.0095844189   0.13859079 
   51700   -947.30322    41.109685   -906.19354    1472.3998   -4576.6811    2.1679904   0.01232636   0.13920894 
   51800   -945.50139    47.450142   -898.05125     1699.492    2745.1877    2.1823459  0.056183467   0.12941867 
   51900   -945.50283    50.266074   -895.23675    1800.3485    8816.2754    2.1936689  0.054058657   0.15543671 
   52000   -946.61129    47.926392    -898.6849    1716.5495   -10385.417    2.1508806   0.10499383   0.13411607 
   52100   -945.62467    43.495134   -902.12954     1557.838   -5513.9324      2.16093  0.059377507   0.11623977 
   52200   -952.81742    43.424457   -909.39297    1555.3066    13049.634    2.2229639   0.19460837   0.14885673 
   52300   -944.68736    45.888302   -898.79906    1643.5526   -1885.7625    2.1646767    0.1055953   0.13520278 
   52400   -944.57222    46.934736   -897.63748     1681.032   -8739.2148    2.1488949   0.21627045   0.11953592 
   52500   -943.56163    48.382735   -895.17889    1732.8941    5012.4482    2.1812315  0.086304591   0.14949343 
   52600   -943.74708    42.909662   -900.83742    1536.8685    5876.5714    2.1874787  0.042418782   0.13033421 
   52700   -948.93442    44.925905   -904.00851     1609.083   -5827.3454    2.1698161   0.25321672   0.13992621 
   52800   -943.87596    47.129058    -896.7469     1687.992    859.61097    2.1698083  0.018966055   0.12877253 
   52900   -941.87841    46.350328   -895.52808    1660.1007    2232.5291     2.175983  0.078770828   0.14527479 
   53000   -944.74102    42.648157   -902.09286    1527.5023   -792.22471    2.1747322   0.11136839   0.13413992 
   53100   -948.21772    45.823352   -902.39437    1641.2263   -2472.5719    2.1758833   0.10738911   0.12824571 
   53200   -945.80389    50.255051   -895.54883    1799.9537    641.68761    2.1746727  0.085486322   0.13934368 
   53300   -945.02543    48.316564   -896.70887    1730.5241   -2467.7901    2.1673414  0.077690551    0.1396255 
   53400    -949.9281    45.449432   -904.47867    1627.8338   -4064.3371    2.1742603 0.0045267593   0.13246153 
   53500   -947.33417    47.804864   -899.52931    1712.1969    822.43519    2.1790478  0.035295364   0.13796491 
   53600   -942.73695    47.830954     -894.906    1713.1313    9243.4619    2.1883287   0.12175688   0.13761925 
   53700   -945.52614    47.397333    -898.1288    1697.6006   -11798.735    2.1422094   0.12865547   0.11139912 
   53800   -944.07629    49.061196   -895.01509    1757.1941   -6772.1154    2.1497764  0.070688989    0.1154563 
   53900    -939.8332    52.270296    -887.5629    1872.1325    10185.343    2.1805687   0.20832667   0.12648141 
   54000   -942.40408    47.677561   -894.72652    1707.6373    251.82454    2.1619703  0.085892185   0.13485139 
   54100   -945.99879    47.729544   -898.26925    1709.4992   -7655.0001    2.1480124   0.05661841   0.12784331 
   54200   -943.21796    49.091574   -894.12638    1758.2821    6637.5789    2.1807524  0.059670596   0.14177681 
   54300   -940.77704    53.193504   -887.58353    1905.1984    1417.4936    2.1675693    0.0626611   0.14570855 
   54400    -939.2113    42.152659   -897.05864    1509.7554   -1913.6232    2.1564979   0.10375826   0.13208321 
   54500   -943.88878     46.45153   -897.43725    1663.7254   -1193.2244    2.1639854  0.039251071   0.13458897 
   54600   -939.05929    46.959727   -892.09956    1681.9271    8806.1905    2.1777202  0.070434154   0.13647524 
   54700   -939.71579    50.547182   -889.16861    1810.4167   -2152.8803    2.1493906    0.2406776   0.12945016 
   54800   -943.09598    44.521024   -898.57495    1594.5816   -5242.8549    2.1588309  0.022937682   0.12706552 
   54900    -946.2932    50.016634   -896.27657    1791.4145    6084.8434    2.1886704  0.056936039   0.14053791 
   55000   -943.60519    49.114882   -894.49031    1759.1169    2775.8629    2.1736254   0.14976496   0.14068689 
   55100   -933.49495    49.412532   -884.08242    1769.7777   -13133.761    2.1134034   0.16939587   0.16278507 
   55200   -942.41256    47.077758    -895.3348    1686.1546    8220.6539    2.1901369  0.056190942   0.14859793 
   55300   -945.41749    49.654361   -895.76313    1778.4391    10270.458    2.1988477   0.08752259   0.11714143 
   55400   -944.19448    46.600286    -897.5942    1669.0532    -10777.15    2.1388029  0.085563324    0.1245973 
   55500   -943.36267    52.315679   -891.04699    1873.7579   -6349.5707    2.1476219   0.15228662   0.12683988 
   55600   -942.63573    55.146297   -887.48943    1975.1404    9401.7149    2.1839787  0.025118227   0.13000278 
   55700   -945.52017     48.78497    -896.7352    1747.3007    916.26538    2.1741268   0.15755763   0.13265131 
   55800   -944.61998    47.498349   -897.12163    1701.2186   -5308.1053    2.1563877  0.021799961   0.13596768 
   55900   -942.78158    48.347236   -894.43435    1731.6226    1915.1792      2.17084  0.084385582   0.13113586 
   56000   -935.04002    50.947355   -884.09266    1824.7495    4182.6808    2.1618756  0.025381248   0.15331874 
   56100   -944.54316    50.334215   -894.20895     1802.789    417.51811    2.1700269 0.0024321199   0.13031381 
   56200   -947.19983    50.304035   -896.89579    1801.7081   -7866.7568    2.1590634  0.024139568   0.11921046 
   56300   -943.09958    46.353095   -896.74649    1660.1998    1529.0475    2.1769779  0.014916126    0.1329308 
   56400   -946.32164    43.424123   -902.89752    1555.2946     1729.496    2.1831883   0.14161932    0.1254681 
   56500    -951.4606    47.143724   -904.31688    1688.5172   -5720.6862    2.1726584 0.0081908576   0.11889561 
   56600   -945.58269    47.810052   -897.77264    1712.3827    1808.3481    2.1762192   0.15401145   0.11666891 
   56700   -945.93589    50.520839   -895.41505    1809.4732    556.78555    2.1716067    0.0406215   0.14311986 
   56800   -942.92859     46.60026   -896.32833    1669.0523   -2623.1931    2.1577255   0.57560378   0.16440204 
   56900   -946.20049    41.283934   -904.91656    1478.6408    7690.4102    2.1958735   0.07379425   0.13657707 
   57000   -944.20752    47.889111   -896.31841    1715.2143    1708.1699    2.1776685   0.29788428   0.14604761 
   57100   -944.22301    48.007879   -896.21513    1719.4681   -11510.785    2.1458118      0.24128   0.12176851 
   57200   -946.97245    48.936648    -898.0358    1752.7333   -1945.4112    2.1707418  0.047882833     0.132817 
   57300   -947.69504    43.011885   -904.68316    1540.5298     15240.43    2.2220247    0.1222975   0.15126109 
   57400   -939.63403    44.640703   -894.99333    1598.8681   -4580.1174    2.1516696  0.023702738    0.1386355 
   57500   -942.40794    45.851749    -896.5562    1642.2434   -8731.9408    2.1466233   0.10849149   0.14851296 
   57600   -947.23431    49.480826   -897.75348    1772.2238    7701.5672    2.1972409  0.019684879   0.13863615 
   57700   -950.34895    43.983206   -906.36575    1575.3189    1821.0561    2.1940559   0.12881615   0.13673984 
   57800   -944.64359    41.811907   -902.83168    1497.5509   -8195.3531    2.1570732   0.18271699   0.14511785 
   57900   -943.88544     45.86933   -898.01611    1642.8731    3035.3402    2.1806265  0.090266617   0.14348954 
   58000   -943.75564    48.304959   -895.45068    1730.1084    4768.8755    2.1854964   0.16227929   0.13908427 
   58100   -943.44483    47.052143   -896.39268    1685.2371   -5006.4769    2.1580285  0.089592618   0.13703301 
   58200   -947.01961    41.320638   -905.69897    1479.9554    221.15193    2.1830032   0.14947758   0.14100645 
   58300   -940.54997    42.998627   -897.55134    1540.0549    5915.0027    2.1804017  0.095212885   0.13845561 
   58400   -943.12325    47.895567   -895.22768    1715.4455    400.54632    2.1677865   0.24645682   0.13982107 
   58500   -944.55243    45.644995   -898.90744    1634.8382    -1382.885    2.1646048  0.063829049   0.13282837 
   58600   -946.10931    42.384775   -903.72453    1518.0689    5442.6107    2.1920972  0.020257364   0.13479426 
   58700   -941.12768    46.237451   -894.89023    1656.0578    2256.5937    2.1746599   0.11733285   0.16235278 
   58800   -942.07977    45.320297   -896.75948    1623.2087   -8237.5688    2.1498246   0.15509836   0.13985632 
   58900   -949.07394    47.263303   -901.81064    1692.8001   -3249.5367    2.1741086  0.061209807   0.13629226 
   59000   -949.90034    47.486351   -902.41399    1700.7889    15212.848    2.2195906  0.006958564   0.13775545 
   59100   -944.95804    50.275613   -894.68243    1800.6901   -6418.8585    2.1510279   0.11573683   0.13221839 
   59200   -946.08924     48.45277   -897.63647    1735.4025   -15580.646    2.1292961  0.025614534   0.13008257 
   59300   -941.87247    46.173352   -895.69912     1653.762    11905.034    2.1937327  0.093967829   0.13799852 
   59400    -932.3737    47.023758   -885.34994    1684.2205    6530.6801     2.161387   0.15749187   0.14380277 
   59500   -939.69419    45.095722   -894.59847    1615.1652   -4813.9401    2.1464032  0.097454755   0.13013958 
   59600   -945.02387    47.394604   -897.62927    1697.5028   -1236.5868    2.1678031   0.17931728   0.13419165 
   59700   -941.09425    45.586921   -895.50733    1632.7582    9568.7756     2.188239   0.21466603   0.15177366 
   59800   -935.86171    49.033719   -886.82799      1756.21   -2414.8589    2.1444011   0.12204333   0.15946264 
   59900   -942.96504    45.573166   -897.39187    1632.2655   -3368.9958    2.1633977  0.042057013   0.13436393 
   60000   -945.53398    48.481135   -897.05284    1736.4185      4582.35    2.1833101  0.020030053   0.13993932 
   60100   -943.77552    49.517453   -894.25807    1773.5356    1815.5962    2.1729445  0.098453303   0.12173604 
   60200   -937.25527    49.911784   -887.34348    1787.6591   -9155.1921     2.132049   0.11769841   0.14003908 
   60300   -945.86996    47.411728   -898.45823    1698.1162    4602.6313    2.1868024  0.028164906   0.12895324 
   60400   -944.68993    48.468604   -896.22133    1735.9696    8509.0181    2.1932818  0.036075825   0.12594877 
   60500   -943.16167    48.044132   -895.11754    1720.7666   -10679.602    2.1455746  0.034099949   0.13131212 
   60600   -938.39466    51.652614   -886.74205    1850.0093   -5425.8009    2.1427774  0.065569297   0.14749604 
   60700   -936.19832    47.808659   -888.38966    1712.3328    14278.092     2.192005   0.17275087   0.13705096 
   60800   -941.40623    47.212366   -894.19386    1690.9757   -2821.4704    2.1566558  0.027033899   0.15568725 
   60900   -946.19985    48.931174   -897.26868    1752.5372   -12897.399    2.1393786  0.081821809   0.12209409 
   61000   -944.69665    49.478554    -895.2181    1772.1424    11402.968    2.2001765   0.15793718   0.15010098 
   61100   -938.84107    53.144727   -885.69634    1903.4514    11510.959    2.1830908  0.021247754   0.14781273 
   61200   -938.00173    46.196756   -891.80497    1654.6003   -14523.211    2.1178258  0.018835024   0.12911727 
   61300   -943.50172    45.659671   -897.84205    1635.3638   -5356.3644     2.154498  0.021012921   0.11382508 
   61400   -944.01736    48.632469   -895.38489    1741.8387    13055.158    2.2001114  0.099498511   0.13115988 
   61500    -939.8846    50.089297   -889.79531     1794.017    -919.0057    2.1551567   0.11403927   0.13525995 
   61600   -939.12778    47.250942   -891.87684    1692.3574   -8455.7223    2.1378705   0.12450878   0.14925319 
   61700   -946.16216    48.619722   -897.54244    1741.3821    1359.2389    2.1781945   0.11428843   0.13115859 
   61800   -942.53637    46.852326   -895.68405    1678.0804    8342.9466    2.1874273  0.043047404   0.12557463 
   61900   -943.28367     49.73172   -893.55195    1781.2099    -6441.178    2.1510393   0.03100965   0.12957401 
   62000   -934.73574    52.728689   -882.00705    1888.5504   -2733.4036    2.1358771   0.07552167   0.12917143 
   62100    -941.0426     49.48954   -891.55306    1772.5359    11507.189    2.1887727  0.056436928   0.13882688 
   62200   -944.38581    49.208849   -895.17697    1762.4825   -6399.3371    2.1502006   0.28245797   0.13044498 
   62300   -943.56408    45.439338   -898.12474    1627.4723   -6992.0673    2.1522456  0.060401921   0.11825154 
   62400   -944.72165    47.013032   -897.70862    1683.8363    8496.5468    2.1907583  0.066600435   0.13231594 
   62500   -938.73802    51.002176   -887.73585     1826.713   -1717.2603    2.1498329   0.21151756   0.15410237 
   62600   -943.46824    47.394884   -896.07336    1697.5129   -6154.6691     2.150381  0.055428103   0.12877682 
   62700   -943.45408    45.944382    -897.5097    1645.5611    4402.5155    2.1827093  0.041887567   0.14397678 
   62800   -945.63628    50.045756   -895.59052    1792.4575    3647.9925    2.1805363   0.11720793    0.1287382 
   62900   -938.47726    50.164277   -888.31298    1796.7025   -9063.1523    2.1287871  0.077689277   0.13790569 
   63000   -943.97709    45.803524   -898.17357    1640.5161    641.64764    2.1708296  0.066471787   0.12739682 
   63100    -945.0513    48.885044   -896.16626     1750.885    11263.274    2.1966277  0.024564182    0.1313699 
   63200   -944.83463    50.823963   -894.01066      1820.33   -7252.6107    2.1525103  0.037746391   0.11702483 
   63300   -939.20406    53.351982   -885.85208    1910.8745   -12513.203    2.1231906  0.067831347   0.13151984 
   63400   -946.40436     49.05801   -897.34635      1757.08     12756.14    2.2038125  0.062815221   0.14275883 
   63500    -942.7601    46.030965   -896.72913    1648.6622    3707.2194    2.1782783   0.16145662   0.13519157 
   63600   -941.49306    45.401778   -896.09128     1626.127   -6068.5726    2.1491367   0.11612831    0.1382043 
   63700   -948.80925    44.850045    -903.9592     1606.366   -1415.4517    2.1764808   0.32357577   0.10942214 
   63800   -949.78314    47.474102   -902.30904    1700.3502    3642.0314    2.1886176   0.04880366   0.13288955 
   63900   -943.47552    47.004616   -896.47091    1683.5349    604.58999    2.1720033  0.072015122   0.13546163 
   64000   -940.60926    44.778773   -895.83049    1603.8133   -3214.1578    2.1559075  0.015211672   0.12678719 
   64100   -949.63731    45.433715    -904.2036    1627.2709   -823.11184     2.177477   0.15246256   0.12630208 
   64200    -948.6311    47.836989   -900.79411    1713.3475    3399.5372    2.1836577   0.05468716   0.12045586 
   64300   -941.02503    45.556922   -895.46811    1631.6837    2348.4654    2.1691609   0.13834444   0.13634915 
   64400   -942.97916    45.678234   -897.30093    1636.0287   -4448.1621    2.1548751   0.16807766   0.12419864 
   64500   -949.30432    43.643564   -905.66076    1563.1542    1698.0181    2.1857268  0.098258934   0.12251211 
   64600   -943.49912    46.532666   -896.96645    1666.6314    3121.1285     2.175211  0.097474673   0.12144427 
   64700   -942.08365     46.37831   -895.70534    1661.1029   -103.16831    2.1640952  0.070440967   0.11749472 
   64800   -942.08792    43.449303   -898.63861    1556.1965   -2732.4301     2.158575  0.082281104   0.13692453 
   64900   -948.60767    42.530952   -906.07671    1523.3045    5011.1126     2.190401   0.12220088   0.13397851 
   65000   -946.06223    49.040035    -897.0222    1756.4362    1129.6655    2.1710814  0.016582006   0.11449342 
   65100   -941.61724    45.408498   -896.20874    1626.3677    44.276306    2.1649195  0.072575046   0.13029565 
   65200   -945.11945    47.615856   -897.50359    1705.4273   -3077.0884    2.1629925  0.048445977   0.12197087 
   65300    -948.9973    46.883379   -902.11392    1679.1926    503.93283    2.1801294  0.012383864   0.11011765 
   65400   -948.20963    42.435605   -905.77403    1519.8895    8619.3937    2.1972664   0.08662196   0.13065088 
   65500   -944.71647    47.163062   -897.55341    1689.2098    -5807.234    2.1569601 0.0094587432   0.12618884 
   65600   -942.44629     45.93222   -896.51407    1645.1256   -5765.1927     2.152627    0.1569232   0.13801012 
   65700   -941.52443    48.372679   -893.15175    1732.5339    10349.269    2.1886665 0.0024842683    0.1215954 
   65800   -936.41102    53.484071   -882.92695    1915.6055    2554.7337    2.1595863 0.0071859041   0.14425616 
   65900   -937.64981    45.983466   -891.66635     1646.961   -5722.8281      2.14125   0.16696293   0.13619693 
   66000   -943.59733     47.84592   -895.75141    1713.6673   -3013.6163    2.1605044  0.015855355   0.12311694 
   66100   -943.67659    46.904577   -896.77201    1679.9518    10835.199    2.1987381  0.038698083   0.14407731 
   66200     -946.445    43.774561   -902.67044     1567.846   -2076.2819     2.172591  0.047485059   0.11531853 
   66300   -947.05296    46.498566    -900.5544      1665.41   -8325.0889    2.1568415  0.089972866   0.12057281 
   66400   -943.31048    48.845179    -894.4653    1749.4572    4089.2252    2.1801064  0.055543795   0.13256183 
   66500   -944.65175    48.771228   -895.88052    1746.8085    1889.4268    2.1772751  0.096553182   0.13473266 
   66600   -947.35151    47.768064   -899.58345    1710.8788    -7775.888    2.1567931  0.075757925    0.1136238 
   66700   -945.24865    42.978517   -902.27013    1539.3346    1176.8494    2.1778617   0.02543029    0.1300867 
   66800   -940.66156     49.06593   -891.59563    1757.3637    7331.4187    2.1804397   0.16699587   0.14715122 
   66900    -941.1998    46.952115   -894.24768    1681.6545    784.08647    2.1676462  0.080828107   0.13183272 
   67000   -947.40822    49.232632   -898.17559    1763.3343   -13912.838    2.1441659  0.055318465   0.13017661 
   67100   -943.33652    48.926291   -894.41023    1752.3623    8804.4708    2.1873074  0.032356085   0.15404722 
   67200   -939.99106    54.133485   -885.85758    1938.8651    5077.0265    2.1756645   0.14291218   0.13153874 
   67300   -945.64291    49.920745   -895.72217      1787.98   -10538.672    2.1480509  0.027417254   0.13919578 
   67400   -945.16778    47.861978    -897.3058    1714.2425   -4527.1784    2.1629232   0.11275974   0.14546329 
   67500   -943.50311    48.187447   -895.31566    1725.8996     8088.351    2.1934088   0.11065827   0.12111623 
   67600   -932.91304    47.506493   -885.40655    1701.5103    931.02513     2.147415  0.032885555   0.14549869 
   67700   -940.54246    44.966461     -895.576    1610.5356   -1463.9721    2.1583481   0.10122796   0.13035438 
   67800   -944.85103    47.845034     -897.006    1713.6356    455.44708    2.1748278   0.29331992   0.13922527 
   67900   -945.42607    49.314347   -896.11173    1766.2611    3237.6834    2.1775895  0.036392786   0.14312376 
   68000   -937.98255    52.300639   -885.68191    1873.2192   -6888.1314    2.1355029   0.21605207   0.15682498 
   68100   -943.86104    48.383953   -895.47709    1732.9377    4215.7769    2.1747611   0.14403119   0.14364232 
   68200   -946.72705    50.095202   -896.63185    1794.2285    4774.3241    2.1818283   0.01749835   0.13640531 
   68300   -947.48029    50.183155   -897.29714    1797.3786   -6816.7971     2.157818   0.16121835   0.13941444 
   68400   -941.71948    54.553506   -887.16598    1953.9088    -5374.526    2.1430993   0.12307994   0.12710595 
   68500   -943.72101    50.848344   -892.87267    1821.2033    12365.632    2.1999476   0.16790947   0.12696362 
   68600   -944.05468    47.057432   -896.99725    1685.4266   -5643.7437    2.1564983  0.005763602   0.13539808 
   68700   -942.94286    45.557016   -897.38584    1631.6871   -9782.3947    2.1429589  0.027978036   0.13808031 
   68800   -942.14945    51.096387   -891.05306    1830.0873    10997.912     2.193859    0.2056551   0.14157801 
   68900   -937.58665    47.917645   -889.66901    1716.2363    5658.0244    2.1672972  0.071316108   0.16179492 
   69000   -942.78327    44.628299   -898.15497    1598.4238   -9834.0478    2.1487041  0.011193426   0.15818387 
   69100   -946.11221    49.495371   -896.61684    1772.7447    85.811406    2.1741437  0.038282048   0.12914526 
   69200   -941.79605      47.1295   -894.66655    1688.0078    7824.2385    2.1848504  0.081477682   0.12747624 
   69300   -938.42591    54.172506   -884.25341    1940.2627   -8467.7292    2.1354426   0.22282764   0.15074671 
   69400   -943.90503    48.776982   -895.12805    1747.0146   -1509.9863    2.1694385   0.35988151   0.12795005 
   69500   -943.55684    47.087079   -896.46976    1686.4884    4361.2158       2.1799  0.016157802   0.13661602 
   69600   -947.57287    49.789289   -897.78358    1783.2718    -2535.986    2.1668238   0.08970647   0.13512235 
   69700   -940.77934    51.385154   -889.39419    1840.4299   -925.16537    2.1571089  0.012381854   0.12771041 
   69800   -943.68515    52.616008   -891.06914    1884.5146    211.93706    2.1685127   0.13569777   0.15218292 
   69900   -944.47149    47.836294    -896.6352    1713.3226   -3122.4176    2.1636253  0.036676698   0.13393748 
   70000   -943.85814     45.79689   -898.06125    1640.2785   -685.93733    2.1691983  0.018549648   0.13756361 
   70100   -940.34967    48.085584   -892.26409    1722.2513    9546.6545    2.1808211   0.13661799   0.12904188 
   70200   -942.51033    52.367942   -890.14238    1875.6298   -405.41302    2.1595486  0.063576317   0.12474429 
   70300   -942.24966     44.89347   -897.35619    1607.9213    -13534.19     2.134889   0.14473681   0.12225419 
   70400   -943.85087     47.50836   -896.34251    1701.5772     9249.578    2.1932802  0.054223814   0.12499281 
   70500   -944.52653     47.76974   -896.75679    1710.9388    15319.708    2.2077663   0.10969505   0.15256131 
   70600   -934.66943    49.062907   -885.60652    1757.2554   -16549.933    2.1103684    0.1664035   0.15695379 
   70700   -946.25252    50.669007   -895.58351    1814.7801   -2360.2285    2.1671591  0.014219839   0.13777987 
   70800   -947.50384    51.226178   -896.27767    1834.7359    6469.5072    2.1948737  0.013406405    0.1361427 
   70900   -947.49854    49.062014   -898.43653    1757.2234   -4947.4738    2.1652785    0.0802933    0.1195935 
[...]
  186800   -940.31955     44.46494   -895.85461    1592.5729    4018.2419     2.177386    52.867193   0.15504401 
  186900   -944.82966    48.578334   -896.25132    1739.8998   -3501.8832    2.1616306    49.507076   0.15433309 
  187000   -951.69017    45.785894   -905.90428    1639.8847    231.43415    2.1904125    52.924333   0.15255398 
  187100   -943.73221    45.494185   -898.23803    1629.4367    1824.6649    2.1786467    52.237059   0.14157984 
  187200   -943.46622    47.852642   -895.61358    1713.9081   -3390.3063    2.1607701     49.91062   0.16101559 
  187300    -938.7751    43.298416   -895.47669    1550.7922    1664.5385    2.1692225    52.428779   0.16485317 
  187400   -946.42113    42.273796   -904.14733    1514.0941    9737.5285     2.205011    50.891987   0.13766525 
  187500   -947.04797    50.943414   -896.10455    1824.6083   -6570.1786    2.1605993    52.027569   0.13967123 
  187600   -943.09638    47.224425   -895.87195    1691.4076   -5333.5423    2.1527724    56.060191   0.15313277 
  187700   -948.64936     47.38215   -901.26721    1697.0568    3467.4799    2.1932838    48.660739   0.14465272 
  187800   -949.93154    46.377683   -903.55385    1661.0804    3853.2369    2.1940798    49.329398   0.13795653 
  187900   -940.31228    45.007855   -895.30443    1612.0181   -11461.996    2.1382561    51.455461   0.14218679 
  188000   -942.45043    45.578877   -896.87156    1632.4701   -472.12081    2.1632189    51.403623   0.14991142 
  188100   -951.04575      51.2113   -899.83445     1834.203    9964.0061    2.2099526    52.299629   0.13754345 
  188200   -938.27494    49.109822   -889.16512    1758.9357   -2464.5997    2.1494295    53.686137    0.1515657 
  188300   -943.12878    49.768169   -893.36062    1782.5153   -7011.0651    2.1431179    54.431104    0.1438604 
  188400   -943.05225     45.87627   -897.17598    1643.1216    7263.5929    2.1874522    53.358989   0.13924079 
  188500   -947.72025    48.684809   -899.03544    1743.7133    3819.4079    2.1873564    50.305059   0.13293443 
  188600     -939.998    51.568347   -888.42965    1846.9912   -8468.3361    2.1327959    46.508868   0.13481035 
  188700   -945.86299    49.350121   -896.51287    1767.5424    373.15368    2.1712696    52.168145   0.12899142 
  188800   -944.76183     47.20953    -897.5523    1690.8742    6257.7383    2.1848348    54.632897   0.12693815 
  188900   -940.81035    48.377435   -892.43292    1732.7043     467.4721    2.1591607    50.937594   0.14329688 
  189000   -938.49833    48.110508   -890.38782    1723.1439   -3293.1428    2.1462578    50.521345    0.1278977 
  189100   -945.53414    46.933014   -898.60112    1680.9704    2723.1142    2.1808174     48.57325   0.13377783 
  189200   -944.58691    48.617269   -895.96964    1741.2943    1488.9265    2.1722338    57.325858   0.13617566 
  189300   -942.97333    51.619876   -891.35346    1848.8367    -5201.554    2.1458437    52.996912   0.14031543 
  189400   -948.85764    46.879169   -901.97848    1679.0418   -585.64774    2.1766344    54.601549   0.13138154 
  189500   -945.23029    46.470478   -898.75981     1664.404    585.11411    2.1726712    52.144737   0.14268083 
  189600   -944.77665    50.678876   -894.09777    1815.1335   -2931.0301    2.1592268    49.006942   0.13875771 
  189700   -944.48597    47.458321   -897.02765    1699.7849   -1219.6296    2.1605349    46.009835   0.12932899 
  189800   -947.54402    45.091491   -902.45252    1615.0137    4807.1295    2.1884385    53.054821    0.1328417 
  189900    -941.2018    46.735164   -894.46663    1673.8841    3776.0334    2.1724183    44.303398   0.14557672 
  190000   -943.90035    47.108991   -896.79136    1687.2732   -5610.8739    2.1501128    52.217182   0.14013559 
  190100    -947.8392     44.06581   -903.77339    1578.2775   -87.125754    2.1779058    53.566124   0.13581143 
  190200   -940.90351    45.971158   -894.93235    1646.5202    11055.545    2.1888905    53.483473    0.1514884 
  190300   -943.90098    49.073165   -894.82781    1757.6228   -2105.2442    2.1631342     51.63716   0.12878104 
  190400   -943.12695       42.835   -900.29195    1534.1944   -10613.969    2.1432572    54.125249   0.13747956 
  190500   -948.13674    52.425725   -895.71102    1877.6994    4490.9658    2.1878341    47.052095   0.13799172 
  190600   -942.84613     52.24845   -890.59768      1871.35     6363.989    2.1801955    50.517364   0.13781307 
  190700   -943.99766    45.140199   -898.85746    1616.7582   -8225.3114    2.1482689    50.608423   0.12342786 
  190800   -942.77165    46.156706   -896.61494    1653.1658   -1684.0259    2.1628463    51.316471    0.1433666 
  190900     -938.929    50.778119   -888.15088    1818.6881    8493.5663    2.1789798    52.151456   0.15219704 
  191000    -943.0518    45.620924   -897.43088     1633.976    2313.4777    2.1738865    52.535095   0.13402699 
  191100   -944.73377    45.956883   -898.77689    1646.0089   -6771.4343    2.1523636    51.132688   0.13767788 
  191200   -944.19404    53.199654   -890.99439    1905.4187    991.55879    2.1684111    46.575487   0.12975084 
  191300   -944.29638    45.916534   -898.37984    1644.5637    6045.9985    2.1898863    48.555696   0.16146943 
  191400   -944.15152    44.244175   -899.90734    1584.6659   -2955.0962    2.1685483    52.720272   0.15236738 
  191500   -942.36191    49.178409    -893.1835    1761.3923   -1712.4127    2.1645951    51.054925    0.1425215 
  191600   -945.82299    46.945786   -898.87721    1681.4278    2533.7124    2.1839236    53.178414   0.13437096 
  191700   -948.15601    46.942965   -901.21304    1681.3268   -811.08193    2.1808523     51.04088   0.13535092 
  191800   -942.71882    48.742405   -893.97642    1745.7762   -2101.9134     2.164669    51.292067   0.13226794 
  191900    -942.6272    44.923512   -897.70368    1608.9973       1086.6    2.1765728    50.260022   0.16609445 
  192000   -947.09198      44.6711   -902.42088    1599.9568    3117.7534    2.1917014    49.213689   0.15150446 
  192100   -944.39526    51.306512   -893.08875    1837.6132   -5718.4666    2.1596578    49.509576   0.14008091 
  192200   -944.02583    47.089955   -896.93587    1686.5914   -1977.3679    2.1711112    49.664556   0.15482349 
  192300   -946.52056    45.685454   -900.83511    1636.2873    6605.4499    2.1941368    52.869539   0.12877621 
  192400   -940.09353    49.371691   -890.72184    1768.3149   -3700.4211    2.1557447    49.137991    0.1510078 
  192500   -943.72589    47.973338   -895.75255     1718.231   -4229.6789    2.1600232    52.804281   0.14354762 
  192600    -947.4795    48.464878   -899.01462    1735.8362    5579.2356    2.1909641    55.816036   0.12843948 
  192700   -942.30386    51.099851   -891.20401    1830.2113    5077.8052    2.1770065    52.707503   0.13717835 
  192800   -938.40763    45.237449   -893.17018    1620.2414   -5843.3294     2.144413    46.678158   0.16324394 
  192900   -942.87657    43.082344   -899.79423    1543.0533   -1119.4742    2.1673237    50.835101   0.13049446 
  193000   -944.63071    50.159701   -894.47101    1796.5386    10606.657    2.1977636    49.677369   0.13472118 
  193100    -943.5245    51.662439   -891.86206    1850.3612   -1958.2445    2.1601473    53.837769   0.14529558 
  193200    -949.7547    48.313513   -901.44119    1730.4148   -10144.703    2.1563235    52.266427     0.122846 
  193300   -946.27908    49.262829   -897.01626    1764.4159    2350.8112    2.1807078    57.435754   0.13781772 
  193400   -942.46653    50.945946   -891.52059     1824.699    6804.7925    2.1831117    51.656421   0.14535405 
  193500    -942.5514    42.969199    -899.5822    1539.0009   -4211.7239    2.1584379    52.371344   0.13573732 
  193600   -944.23462    44.886467   -899.34815    1607.6705   -4160.3087    2.1598763    47.716206    0.1323938 
  193700    -943.2081    51.345636   -891.86247    1839.0145    6486.8029    2.1844571    43.940912    0.1609126 
  193800   -944.12618    47.233732   -896.89245     1691.741    922.12017    2.1796369    50.402617   0.16025097 
  193900   -947.00589    44.231522   -902.77436    1584.2127   -9370.7738    2.1579888    51.564858   0.14921924 
  194000   -942.37275     48.48493   -893.88782    1736.5544   -1860.8778    2.1626935    47.421794   0.13476387 
  194100   -945.00702     49.63247   -895.37456    1777.6551    7149.5462    2.1919132     52.00155   0.13859907 
  194200   -950.39284    47.944566   -902.44827    1717.2005   -4106.8424    2.1767499    53.013095   0.14023217 
  194300   -940.89726    47.532303   -893.36495    1702.4347   -6070.1928    2.1487975    60.822226   0.14949626 
  194400   -943.53405     50.37849   -893.15556    1804.3748    1854.7884    2.1724382    83.620485   0.15353392 
  194500   -949.50807    49.813177   -899.69489    1784.1274    844.44503    2.1821768    81.637201   0.15785545 
  194600   -938.96072    46.999368   -891.96135    1683.3469   -802.32114    2.1562587    77.041117    0.1593852 
  194700   -940.60006    47.957354   -892.64271    1717.6585    157.50447    2.1625943    80.498358   0.15629262 
  194800   -942.67237    44.375197   -898.29717    1589.3586    1242.9982    2.1770643    71.890829   0.16845428 
  194900   -941.01988    48.422322   -892.59755     1734.312    189.53492     2.163416    81.429413   0.13604373 
  195000   -942.80245     50.91647   -891.88598    1823.6433   -3988.3218     2.157119    79.435117   0.14255715 
  195100   -945.60543    46.235368   -899.37006    1655.9832    2469.3637    2.1841184    76.659305   0.14730975 
  195200   -942.28988    47.710882     -894.579    1708.8308    2218.6748    2.1778318    74.792156   0.13620022 
  195300   -943.67653    51.068823    -892.6077    1829.1001   -6543.4269    2.1512988    68.769826   0.13096848 
  195400   -943.86171    41.835112   -902.02659     1498.382    1974.4609    2.1790393    71.597432   0.14499186 
  195500   -942.00629    46.223636   -895.78265     1655.563    8804.3515    2.1926756    75.861428   0.14331021 
  195600   -941.34994    46.604421   -894.74552    1669.2014   -2356.2639    2.1605316    79.901514   0.15244684 
  195700   -948.92519    45.184314   -903.74088    1618.3383    -10891.61     2.155667    78.007902   0.13740693 
  195800   -946.67015    46.997357   -899.67279    1683.2749    5462.3524    2.1897358    79.965164   0.14289585 
  195900   -944.57444    50.977408   -893.59703    1825.8259    8009.2403    2.1904538    80.328958   0.14822587 
  196000   -944.22894    45.622394   -898.60655    1634.0287   -10766.047    2.1447981    72.037263   0.12923573 
  196100   -948.42898    45.082824   -903.34616    1614.7033   -5512.9457     2.165051    75.986975   0.12013093 
  196200   -943.00296    49.641201   -893.36176    1777.9678    7524.3134    2.1863531    72.439982   0.13648949 
  196300   -940.63137    45.606954   -895.02441    1633.4757    3524.4965    2.1789115    75.456111   0.15281877 
  196400   -944.97918    44.996838   -899.98234    1611.6235   -7872.9859    2.1538466    77.304952    0.1530966 
  196500   -945.35653    51.381022   -893.97551    1840.2819    402.74179    2.1705679    80.682949   0.15145948 
  196600    -940.3503    49.036266   -891.31403    1756.3012    3967.0137    2.1758468    76.937631   0.16898094 
  196700   -945.91558    47.078035   -898.83755    1686.1645   -4704.8242    2.1648354      80.0099   0.15884289 
  196800   -943.77074    48.077815   -895.69292     1721.973    747.48793    2.1682825    73.517258   0.14683892 
  196900   -942.27588    54.159532   -888.11634     1939.798    498.33217    2.1625922     76.33467   0.12786812 
  197000   -944.30252     45.95901   -898.34351    1646.0851    4254.9273    2.1796295    71.654466   0.13262828 
  197100     -943.605    46.084866   -897.52013    1650.5928   -3426.8076     2.161074     71.67226   0.13300158 
  197200   -940.62992    49.372879   -891.25704    1768.3575   -341.48696    2.1596269    71.802667   0.15211381 
  197300   -945.28446    46.563615   -898.72085    1667.7398    3248.6839    2.1797146    77.648142     0.148529 
  197400    -944.9239    45.080367   -899.84353    1614.6153   -2002.1568    2.1686453    74.068524   0.14343479 
  197500   -937.79878    42.951837   -894.84694     1538.379    5587.5407    2.1693617    77.250896    0.1597698 
  197600   -942.47926     47.24798   -895.23128    1692.2513    2353.0405    2.1732138    78.060224   0.14736701 
  197700   -949.48098    45.821555   -903.65943    1641.1619    1127.1292    2.1845611    75.470568   0.14059173 
  197800   -943.56625    47.143543    -896.4227    1688.5108   -2728.8674    2.1635486    73.626529   0.13850719 
  197900   -939.92441     44.94139   -894.98302    1609.6376    1086.3847     2.164694    76.420261   0.14904978 
  198000   -951.91776    48.424624   -903.49314    1734.3944    2492.9398    2.1924976    71.723671    0.1394282 
  198100   -945.15311    45.953789   -899.19932    1645.8981    -1951.465     2.166453    78.214474   0.13794111 
  198200   -942.25345    46.832506   -895.42094    1677.3705   -3900.6225    2.1563231    73.992281   0.15184243 
  198300   -944.27546    46.891951   -897.38351    1679.4996    7155.4453     2.188687    79.625144   0.15118996 
  198400   -950.30926    46.142528   -904.16673     1652.658    3557.7498    2.1930295    72.109099   0.13022318 
  198500   -940.04469    46.138117   -893.90658       1652.5   -11307.438    2.1336406    77.111976   0.14020216 
  198600   -941.88479    46.110288    -895.7745    1651.5033     1244.428    2.1718568    71.348666   0.14553548 
  198700   -946.74707    47.485295   -899.26178    1700.7511    10213.003    2.2019524    75.716283   0.14974758 
  198800   -941.85512     51.44863   -890.40649    1842.7034   -6252.3026    2.1483222    75.380935   0.14990322 
  198900   -940.26424    47.086812   -893.17743    1686.4788   -4488.2309    2.1510396    76.643992   0.14502819 
  199000   -946.80622    49.418985   -897.38724    1770.0088    3955.3648    2.1821747    83.805725   0.13696629 
  199100   -944.75097    50.078108   -894.67286    1793.6162    4651.0701    2.1787282    79.491461   0.13363071 
  199200   -939.16926    50.453288   -888.71597    1807.0538   -9965.1398    2.1275559    74.916953   0.13903465 
  199300     -944.614     45.18758   -899.42642    1618.4552    4015.4596     2.180525    73.651185   0.13927895 
  199400   -945.89051    49.506707    -896.3838    1773.1507    8801.2079    2.1915918    69.410367   0.12980059 
  199500    -940.4503    46.552867   -893.89744    1667.3549   -4370.3951    2.1491162     77.73108   0.14725345 
  199600    -934.1919    47.907166   -886.28473    1715.8609   -4232.3137    2.1370563    80.522594   0.15745548 
  199700   -941.53915    50.638497   -890.90065    1813.6873    6297.8126    2.1761523    82.181134    0.1518437 
  199800   -945.43279    50.278142   -895.15465    1800.7807    -1224.169    2.1663931    76.865398    0.1404251 
  199900   -943.42284    47.057823   -896.36502    1685.4406   -3382.4259    2.1578736    80.375955   0.13104619 
  200000   -945.16741    47.995374   -897.17203    1719.0202    1107.2255    2.1730511    76.617495    0.1332499 
  200100   -945.83984     41.95773   -903.88211    1502.7737    2866.6629    2.1850249    78.239405   0.13822039 
  200200   -948.99877    44.867299   -904.13147    1606.9839   -1464.3128    2.1777642    76.991264   0.12883841 
  200300   -941.54609    43.944087     -897.602    1573.9178    3385.8633    2.1723824    68.828841   0.15157236 
  200400     -945.359    51.133498    -894.2255    1831.4164   -1486.9779    2.1671095    55.740652   0.16979172 
  200500   -945.84253    51.041134   -894.80139    1828.1083   -927.79498    2.1635862    53.368509   0.16964325 
  200600   -947.12371    44.066476   -903.05723    1578.3014    4598.4916     2.184406    54.246602   0.16416653 
  200700   -941.97151    46.583492   -895.38801    1668.4517    1950.1672    2.1645187    54.722516   0.16914277 
  200800   -943.20351    49.079986   -894.12352    1757.8671   -1466.6348    2.1616367    52.823062   0.17258124 
  200900    -945.3665    43.618321   -901.74818    1562.2501    1843.4032    2.1770145    48.209051   0.15696187 
  201000   -944.53821    48.374951   -896.16326    1732.6153   -1765.9481    2.1686291     55.16463   0.17188031 
  201100   -936.61846    44.018407   -892.60005    1576.5797    2394.6294    2.1616123    51.513468    0.1895766 
  201200    -942.7515    43.968329   -898.78317    1574.7861   -2126.6833    2.1723053    47.875305   0.17056725 
  201300   -944.24055    46.700503   -897.54005    1672.6427   -2566.6036    2.1690269    47.437132   0.17567958 
  201400    -937.6792    47.265413   -890.41378    1692.8757   -1361.7736    2.1563608     53.30855   0.17766204 
  201500   -944.25607    46.245375    -898.0107    1656.3416    699.61917    2.1788473    56.293845   0.16329933 
  201600    -940.7167    43.084744   -897.63196    1543.1393    2040.3737    2.1745236    53.878621   0.18693474 
  201700   -938.89346     48.63356    -890.2599    1741.8778   -8041.0615    2.1391456    51.713357   0.17292207 
  201800   -944.38729    46.099653   -898.28764    1651.1224    4444.0179    2.1836588    49.109084   0.16615492 
  201900   -947.24806    50.348225   -896.89984    1803.2908    10642.446    2.1983354    51.011875   0.14986288 
  202000   -940.24129    49.608446   -890.63284    1776.7946    -7871.941    2.1360332    52.422682   0.15799245 
  202100   -944.55849    47.377608   -897.18088    1696.8941    -9688.164    2.1437299    50.493215   0.15537757 
  202200   -946.75694    49.224402   -897.53253    1763.0396    10215.332    2.1981624    53.201727   0.16097587 
  202300   -943.17273     51.24393    -891.9288    1835.3717    4033.7268    2.1773019    50.830472   0.15278392 
  202400   -942.41531    47.648223   -894.76709    1706.5866   -12847.517    2.1325627     49.47674   0.15671445 
  202500   -948.50445    47.691212   -900.81324    1708.1263   -849.89979    2.1753752     53.54589   0.16394767 
  202600   -942.55094    50.527646    -892.0233     1809.717    6202.6026    2.1874532      49.9403   0.17635883 
  202700   -941.93301    47.039403   -894.89361    1684.7808   -356.27522    2.1587532    63.872301   0.16759922 
  202800   -947.16189    45.958315   -901.20357    1646.0602   -7483.4857    2.1610802    46.523029   0.15747104 
  202900    -940.6241    47.323887   -893.30021      1694.97    4865.6838    2.1725812    52.638777   0.16044004 
  203000   -941.23055    48.309907   -892.92064    1730.2857    3621.4101    2.1716318    46.105717   0.17264298 
  203100   -945.67286    45.772659    -899.9002    1639.4106   -4912.0431    2.1589777    51.796547   0.16325479 
  203200   -940.87627    48.124252   -892.75201    1723.6362   -449.17599    2.1606737    55.982608   0.15625085 
Loop time of 140.651 on 1 procs for 200000 steps with 217 atoms

Performance: 368.572 ns/day, 0.065 hours/ns, 1421.958 timesteps/s
100.0% CPU use with 1 MPI tasks x no OpenMP threads

MPI task timing breakdown:
Section |  min time  |  avg time  |  max time  |%varavg| %total
---------------------------------------------------------------
Pair    | 135.33     | 135.33     | 135.33     |   0.0 | 96.22
Neigh   | 2.2118     | 2.2118     | 2.2118     |   0.0 |  1.57
Comm    | 0.90579    | 0.90579    | 0.90579    |   0.0 |  0.64
Output  | 0.072877   | 0.072877   | 0.072877   |   0.0 |  0.05
Modify  | 1.8272     | 1.8272     | 1.8272     |   0.0 |  1.30
Other   |            | 0.3012     |            |       |  0.21

Nlocal:    217 ave 217 max 217 min
Histogram: 1 0 0 0 0 0 0 0 0 0
Nghost:    950 ave 950 max 950 min
Histogram: 1 0 0 0 0 0 0 0 0 0
Neighs:    4140 ave 4140 max 4140 min
Histogram: 1 0 0 0 0 0 0 0 0 0
FullNghs:  8280 ave 8280 max 8280 min
Histogram: 1 0 0 0 0 0 0 0 0 0

Total # of neighbors = 8280
Ave neighs/atom = 38.1567
Neighbor list builds = 3755
Dangerous builds = 17
Total wall time: 0:02:22
