LAMMPS (3 Mar 2020)

# ---------- 1. Initialize simulation ----------
units metal
atom_style atomic
dimension 3
boundary p p p
read_data /home/modeler/RemLabs/Project/arrhenius_3/T1550.0/n3_T1550.0_timestep3.000000e-03_eqsteps3200_time600_rseed3323/20201205-090754/lammps.data
  orthogonal box = (0 0 0) to (17.469 17.469 17.469)
  1 by 1 by 1 MPI processor grid
  reading atoms ...
  217 atoms
  read_data CPU = 0.000995556 secs

pair_style meam/c
pair_coeff * * library.meam Li Si LiSi.meam Li Si
Reading potential file library.meam with DATE: 2012-06-29
Reading potential file LiSi.meam with DATE: 2020-11-07

group Li type 1
1 atoms in group Li
group Si type 2
216 atoms in group Si

velocity all create 1550.0 3323 dist gaussian

# ---------- 2. Specify equilibration ensemble  ----------
fix 1 all npt temp 1550.0 1550.0 0.15 tchain 2 iso 1.0 1.0 1.0 pchain 2
# fix 1 all nvt temp 1550.0 1550.0 0.15

# ---------- 3. Run equilibration -------------
timestep 0.003
run 3200
Neighbor list info ...
  update every 1 steps, delay 10 steps, check yes
  max neighbors/atom: 2000, page size: 100000
  master list distance cutoff = 6
  ghost atom cutoff = 6
  binsize = 3, bins = 6 6 6
  2 neighbor lists, perpetual/occasional/extra = 2 0 0
  (1) pair meam/c, perpetual
      attributes: full, newton on
      pair build: full/bin/atomonly
      stencil: full/bin/3d
      bin: standard
  (2) pair meam/c, perpetual, half/full from (1)
      attributes: half, newton on
      pair build: halffull/newton
      stencil: none
      bin: none
Per MPI rank memory allocation (min/avg/max) = 8.895 | 8.895 | 8.895 Mbytes
Step Temp E_pair E_mol TotEng Press Volume 
       0         1550   -951.04357            0   -907.76727   -115560.29    5330.9442 
    3200    1603.7277   -950.36599            0   -905.58961   -7432.6278     4657.435 
Loop time of 2.28833 on 1 procs for 3200 steps with 217 atoms

Performance: 362.466 ns/day, 0.066 hours/ns, 1398.401 timesteps/s
100.0% CPU use with 1 MPI tasks x no OpenMP threads

MPI task timing breakdown:
Section |  min time  |  avg time  |  max time  |%varavg| %total
---------------------------------------------------------------
Pair    | 2.21       | 2.21       | 2.21       |   0.0 | 96.58
Neigh   | 0.02959    | 0.02959    | 0.02959    |   0.0 |  1.29
Comm    | 0.014291   | 0.014291   | 0.014291   |   0.0 |  0.62
Output  | 2.565e-05  | 2.565e-05  | 2.565e-05  |   0.0 |  0.00
Modify  | 0.029558   | 0.029558   | 0.029558   |   0.0 |  1.29
Other   |            | 0.004841   |            |       |  0.21

Nlocal:    217 ave 217 max 217 min
Histogram: 1 0 0 0 0 0 0 0 0 0
Nghost:    957 ave 957 max 957 min
Histogram: 1 0 0 0 0 0 0 0 0 0
Neighs:    4221 ave 4221 max 4221 min
Histogram: 1 0 0 0 0 0 0 0 0 0
FullNghs:  8442 ave 8442 max 8442 min
Histogram: 1 0 0 0 0 0 0 0 0 0

Total # of neighbors = 8442
Ave neighs/atom = 38.9032
Neighbor list builds = 50
Dangerous builds = 0

# ---------- 4. Describe computed properties----------
compute msdli Li msd
compute msdsi Si msd
thermo_style custom step pe ke etotal temp press density c_msdli[4] c_msdsi[4]
thermo 100

# ---------- 3. Run production -------------
timestep 0.003
run 200000
Per MPI rank memory allocation (min/avg/max) = 9.665 | 9.665 | 9.665 Mbytes
Step PotEng KinEng TotEng Temp Press Density c_msdli[4] c_msdsi[4] 
    3200   -950.36599    44.776383   -905.58961    1603.7277   -7432.6278    2.1654211            0 5.8601768e-32 
    3300   -950.23417    43.497695   -906.73648    1557.9297   -9316.7659    2.1599728   0.29209034  0.086283714 
    3400   -949.52836     43.91826    -905.6101    1572.9928    5185.5045    2.1983267  0.039498302   0.11083025 
    3500    -942.1962    45.339721   -896.85647    1623.9044    6246.4147    2.1807586  0.042415936   0.11726262 
    3600   -948.13981    43.640777   -904.49903    1563.0544    -4595.867    2.1671454  0.076587205   0.10588712 
    3700   -950.16546     42.95924   -907.20622    1538.6442   -4422.6225     2.170495   0.21013624   0.08343301 
    3800    -949.2664    44.455569   -904.81083    1592.2373    4545.7669    2.1955527   0.14627912   0.10312295 
    3900   -946.78288    49.457328   -897.32555    1771.3821    1820.7495    2.1736003  0.094237835   0.11026816 
    4000   -949.72846    43.658888   -906.06957     1563.703    -3651.125    2.1734768   0.14940118   0.11084297 
    4100   -948.39348     41.65438    -906.7391    1491.9088   -2776.3117    2.1760647   0.25284647  0.094130476 
    4200   -949.34877    46.665756   -902.68302    1671.3981    2270.2859    2.1859607   0.25990304   0.09917109 
    4300   -945.16309    47.460702   -897.70239    1699.8702    1717.0866    2.1752162   0.27194147  0.087241038 
    4400   -948.02076    41.576553   -906.44421    1489.1213   -2428.3732    2.1783233  0.079109791   0.10967596 
    4500   -947.33886    40.878249   -906.46061    1464.1106     38.01009    2.1829949  0.071727406   0.11290599 
    4600   -949.68083      46.7943   -902.88653    1676.0021    2184.6777     2.186882   0.16441626   0.10170165 
    4700   -941.73317    44.916144   -896.81703    1608.7334    77.069938    2.1634198   0.29666782   0.12777424 
    4800   -949.24983     42.91147   -906.33836    1536.9332   -2271.3715    2.1804849   0.26229294   0.11984174 
    4900   -952.51084     46.23151   -906.27933     1655.845    1420.8974     2.190622  0.077467574    0.1114477 
    5000   -948.00162    43.381856   -904.61976    1553.7807    915.05962    2.1840188   0.10404711   0.11507607 
    5100   -941.80424    45.706028   -896.09821    1637.0242   -3701.1509    2.1537723 0.0074249256   0.10619411 
    5200   -949.64934    43.779415   -905.86992    1568.0199    837.08256    2.1876682  0.044765598   0.10593296 
    5300   -948.60665    42.315476   -906.29117    1515.5869    5047.5754    2.1958263   0.18612537   0.11442794 
    5400   -947.67939    42.631527   -905.04786    1526.9067    1174.5966    2.1802016  0.020022535   0.11533804 
    5500   -943.92068    47.769129   -896.15155     1710.917    -8237.353    2.1515892   0.12303934   0.13596652 
    5600   -946.94472    41.382614    -905.5621    1482.1751    6623.1017     2.193763   0.39036209   0.11914004 
    5700   -948.46462    42.161223   -906.30339    1510.0621     4666.655    2.1957244   0.15292272   0.12226348 
    5800   -946.95879    41.739499   -905.21929    1494.9575   -3009.6477     2.171514   0.22073056   0.10728296 
    5900   -943.00175    47.282185   -895.71956    1693.4764   -6899.6323    2.1510064  0.011845432   0.12768733 
    6000   -949.28311    44.634704   -904.64841    1598.6532     6412.956    2.2009557  0.094672629    0.1130105 
    6100   -947.69565    41.494477   -906.20117    1486.1817    4454.2097    2.1917121   0.09578752   0.11339704 
    6200   -946.91264    40.170222   -906.74242    1438.7517   -6117.8688    2.1661906  0.052207496   0.11200298 
    6300   -945.75492    46.506712   -899.24821    1665.7018   -2478.3449    2.1679362  0.047778543   0.10345017 
    6400   -946.31802    45.478621    -900.8394    1628.8793    8100.2309    2.1937774  0.050595128   0.11753435 
    6500     -945.584    39.697191   -905.88681    1421.8094    1195.2097    2.1800942   0.16820946   0.13036115 
    6600   -949.94216    43.223866   -906.71829    1548.1221   -6187.9859     2.170007   0.39058751   0.11438802 
    6700   -947.51336    45.310371   -902.20299    1622.8532    1550.7965    2.1809837   0.17566933   0.11743085 
    6800   -947.33127    48.418823   -898.91245    1734.1866     3786.449    2.1857835   0.15174754   0.11641049 
    6900   -948.20728    42.584744   -905.62253    1525.2311   -3615.8812    2.1734219  0.093052851   0.11335039 
    7000   -950.60711    43.400328   -907.20678    1554.4424    -7378.804    2.1709338  0.037706666   0.13199289 
    7100    -946.5787    44.586017   -901.99269    1596.9094     6955.736    2.1956639  0.053552321   0.12672755 
    7200   -944.57294    46.183959   -898.38898    1654.1419      7683.11    2.1905999   0.03631385   0.10666857 
    7300   -946.40594     40.05171   -906.35423     1434.507   -5474.7511    2.1666263  0.059486287   0.10864338 
    7400   -949.40268    42.611891   -906.79079    1526.2034   -6977.7253    2.1668887  0.042872665   0.11059054 
    7500   -948.76663    46.669999   -902.09663    1671.5501    8467.9935    2.2045501   0.17445038   0.13278925 
    7600   -947.20211     50.02374   -897.17837     1791.669     5835.436    2.1901422   0.15098759   0.14114101 
    7700    -948.3836    41.801134   -906.58247     1497.165   -7263.2478    2.1632356  0.047254611   0.10551298 
    7800   -950.86238    44.319949   -906.54243    1587.3798   -7863.5404    2.1656715  0.014406295    0.1186681 
    7900   -945.38673    41.851408   -903.53532    1498.9657    10621.467    2.2012193  0.038285734   0.12531132 
    8000   -944.58004    48.382278   -896.19777    1732.8777    9035.0825     2.197965   0.10177864   0.12576946 
    8100   -944.96208    42.230414   -902.73167    1512.5403   -5006.7168    2.1629769   0.21839501   0.10259584 
    8200   -946.02663     39.66207   -906.36456    1420.5515   -6926.0318    2.1586614  0.015090921  0.097252854 
    8300   -950.41116    45.027567   -905.38359    1612.7241    4118.0391    2.1923716   0.16501703   0.10778139 
    8400   -951.94783    44.276772   -907.67106    1585.8334    3815.6249    2.1971872   0.32608655   0.11047572 
    8500   -954.68607    40.560223   -914.12585    1452.7201      938.619    2.1993364   0.25222378     0.108509 
    8600   -948.57982    40.878137   -907.70168    1464.1066   -2954.4402    2.1749072   0.11506006   0.10079556 
    8700   -950.80161    45.492691   -905.30892    1629.3832   -2952.2683    2.1775822   0.13975711  0.099931028 
    8800   -952.04613    45.666626   -906.37951    1635.6129    1656.6109    2.1901339  0.051182967   0.10897764 
    8900   -952.57468     38.82457   -913.75011    1390.5553    5680.2583    2.2058943  0.023968929   0.12454114 
    9000   -946.08127    39.915492   -906.16577    1429.6282    -1684.426    2.1743159   0.10363223    0.1270445 
    9100   -948.32209    43.024615   -905.29748    1540.9857   -2542.1742    2.1716356  0.055316023  0.094960379 
    9200   -953.77821    43.495201   -910.28301    1557.8404    1665.9726     2.197415  0.099914384  0.098458701 
    9300   -952.04748    40.282241   -911.76524    1442.7638    7533.6718    2.2065798   0.19930544  0.096504672 
    9400   -952.09096      47.1458   -904.94516    1688.5916    -5106.771    2.1724121  0.054754183   0.11374125 
    9500   -949.93893    43.374317   -906.56461    1553.5107   -9205.4266    2.1621739   0.11094929   0.11781572 
    9600   -950.48497    39.700707   -910.78426    1421.9354    4942.7614    2.2024475  0.098754281   0.12213445 
    9700   -952.00691    38.461099   -913.54581    1377.5371    12731.625    2.2298935  0.065840434   0.12697317 
    9800   -945.93601    40.769867   -905.16614    1460.2288   -5963.5854    2.1667448  0.061304595   0.11318358 
    9900   -947.59955    41.122792   -906.47676    1472.8693   -14458.966    2.1483245   0.16843781   0.12486312 
   10000   -952.35608    47.440421   -904.91566    1699.1438    1357.5314    2.1963378    0.1731694   0.12589189 
   10100   -944.30531    49.216547   -895.08876    1762.7582    8461.0744    2.1943044   0.10712421   0.14047639 
   10200   -943.86931    40.628197   -903.24112    1455.1547     3089.056    2.1834253   0.25870009   0.13575525 
   10300    -948.9316    42.390476   -906.54113    1518.2731   -5450.0001    2.1690684    0.1956171   0.11959786 
   10400   -948.93958    43.052429   -905.88715    1541.9819   -310.89567    2.1850298   0.10211332   0.11510073 
   10500   -941.58793    45.169235   -896.41869    1617.7982    6556.2715    2.1857762    0.1785493   0.12141494 
   10600   -947.62622    44.262512   -903.36371    1585.3227    2913.8775    2.1897181  0.035692756   0.12028542 
   10700   -950.17878    43.155417   -907.02336    1545.6705   -7320.7435    2.1706372   0.11733892   0.13359913 
   10800   -946.76611    41.264242   -905.50187    1477.9355   -2980.2894    2.1775321   0.17156705    0.1396266 
   10900   -939.23551    42.764948   -896.47056    1531.6853    8241.9462    2.1870575   0.34403689   0.13823483 
   11000   -949.39325    44.610799   -904.78245     1597.797    6446.2112    2.1986339   0.23976026   0.12197489 
   11100   -949.04136     41.95752   -907.08384    1502.7662   -8385.1982    2.1677938    0.2867218   0.11454729 
   11200    -944.3529    40.676591   -903.67631     1456.888   -4514.3506    2.1663062  0.085030903   0.12471741 
   11300   -943.10941    46.713945   -896.39546    1673.1241    6301.9725    2.1881048  0.017165897   0.14158496 
   11400   -950.46627    44.357328   -906.10895    1588.7186    8389.8508     2.210202   0.12981107   0.12393899 
   11500   -947.87705    41.331831   -906.54522    1480.3563   -5937.2933    2.1655915  0.047443302   0.12603271 
   11600   -945.86058    42.039214   -903.82136    1505.6922   -5855.5579    2.1606196   0.12152083   0.11760062 
   11700   -952.18879    41.285365   -910.90342    1478.6921    5018.5154    2.2036562  0.027499388   0.10354516 
   11800   -953.42458    42.756225   -910.66836    1531.3729     3390.824     2.205809  0.032583081   0.11676022 
   11900   -948.26083    42.421109   -905.83972    1519.3703   -1873.0436    2.1844143   0.06264576    0.1233888 
   12000   -947.23434    42.634384   -904.59996     1527.009   -2607.4922    2.1786623   0.10279226   0.11999634 
   12100   -954.33228    41.202578    -913.1297    1475.7269    640.37826    2.1976712   0.04075147   0.12190032 
   12200   -952.50445    44.700797   -907.80365    1601.0205   -1536.5565    2.1895581  0.077676984   0.11322567 
   12300   -947.96317     43.58129   -904.38188    1560.9238     774.0692    2.1866719   0.15978366   0.12401966 
   12400   -948.88943    40.973977   -907.91545    1467.5393    496.11257    2.1842475  0.012305244   0.11228862 
   12500   -954.54347    41.436769    -913.1067    1484.1148    51.391087    2.1965236  0.087323366   0.09738615 
   12600   -947.40248    43.052207   -904.35028    1541.9739   -531.52143    2.1814302   0.12962533   0.12455455 
   12700   -949.20119    43.483669   -905.71753    1557.4273   -965.86378    2.1832921   0.17643072     0.120447 
   12800   -952.40024    41.812245   -910.58799     1497.563    403.46098    2.1936266  0.082943545   0.10995681 
   12900   -953.24035    41.057841    -912.1825     1470.543    360.02643     2.198507   0.20447085   0.11951421 
   13000   -949.68108    45.215458   -904.46562    1619.4537    -5345.133    2.1743039  0.014642889   0.11994622 
   13100   -948.74279    42.735018   -906.00777    1530.6134   -3312.9681    2.1745275   0.16360452   0.11927261 
   13200   -948.36972     40.36925   -908.00047    1445.8801    4152.9586    2.1960382 0.0042953014   0.14089945 
   13300   -959.17178    42.929132   -916.24264    1537.5658    3174.5429    2.2151678  0.094910113   0.11552041 
   13400   -953.58462    44.079089   -909.50553    1578.7531    -7918.365    2.1757592  0.065089998   0.11305797 
   13500   -948.40125    41.420435   -906.98082    1483.5298   -4542.6193    2.1747923  0.081993699   0.12981642 
   13600   -945.76043    40.633166   -905.12726    1455.3327    7918.3698    2.1992328   0.00217604   0.12804681 
   13700   -949.15448    40.954093   -908.20038    1466.8271    6937.0896    2.2039408   0.10347211   0.11988549 
   13800   -952.74724    39.119371   -913.62787     1401.114   -3071.5029    2.1849332  0.039762718    0.1193198 
   13900   -945.96342    38.962357   -907.00106    1395.4903   -4461.0024    2.1682383   0.06143998   0.11457625 
   14000   -949.31857    44.278885   -905.03968    1585.9091    4597.7536    2.1928289    0.1313957   0.11600537 
   14100   -953.23698    43.736042   -909.50093    1566.4664    10103.689    2.2132711   0.12195023   0.11166306 
   14200    -951.7147    38.310586   -913.40412    1372.1463   -2754.9473     2.184624   0.10152551   0.10877724 
   14300    -949.3998    43.229977   -906.16983     1548.341    -11123.61    2.1538405   0.12307418   0.11052295 
   14400   -948.09306    42.765782   -905.32728    1531.7152    4684.4435    2.1892095  0.069346117   0.12059137 
   14500   -953.00029    43.621261   -909.37903    1562.3554    13172.444    2.2250153  0.011720677   0.11233028 
   14600    -952.6701    37.714579   -914.95552    1350.7994   -674.72946    2.1919579  0.090051389   0.11246634 
   14700   -946.39895    40.154296   -906.24465    1438.1812   -12882.833    2.1448787   0.20012269   0.11974656 
   14800   -948.63098    42.964821   -905.66616    1538.8441    510.34123     2.182327   0.34071512   0.10876456 
   14900   -955.71755    47.970317   -907.74723    1718.1228    4404.9882    2.2042622   0.11551166   0.11491259 
   15000   -956.02114    39.719026   -916.30211    1422.5915    -1505.837    2.1946804   0.18813072   0.11173915 
   15100   -951.95128    42.594336   -909.35694    1525.5746   -7224.6654    2.1702779  0.059577614   0.11226329 
   15200   -946.95897    40.635828   -906.32314     1455.428    3427.7143    2.1893702   0.15818283   0.13515908 
   15300   -950.23085    45.437834   -904.79301    1627.4184    3730.6318    2.1953048  0.084850528    0.1246611 
   15400   -949.44758    41.563661   -907.88392    1488.6596   -4456.5648    2.1771509   0.16117911   0.10828765 
   15500   -953.62974    40.819553   -912.81019    1462.0084   -4963.0465    2.1834644   0.00659167   0.12051605 
   15600    -950.6321    44.157843   -906.47425    1581.5738    3376.9645     2.195184  0.057135608   0.11766657 
   15700   -948.03187     43.41885   -904.61302    1555.1057     2623.458    2.1899014  0.052776022   0.13189791 
   15800   -951.80617    42.123921   -909.68225    1508.7261   -7482.6739     2.170637 0.0073349997   0.12731939 
   15900   -952.27778    40.731818   -911.54596     1458.866   -4206.1938    2.1807169   0.25383413    0.1102473 
   16000   -948.23766    43.534673   -904.70298    1559.2541     9626.878    2.2050224   0.19579994   0.12599819 
   16100    -948.3341    42.720267   -905.61383     1530.085    5303.5665    2.1968887 0.0030022177   0.12399065 
   16200   -949.36883    37.166505   -912.20233    1331.1694   -9181.7562    2.1648887   0.10543483   0.13183632 
   16300   -946.63065     37.57371   -909.05694     1345.754   -3856.1241    2.1710669  0.089118057   0.12926329 
   16400   -950.44778    46.297909   -904.14987    1658.2232    11143.102    2.2125368   0.12164413   0.13161348 
   16500    -951.4364    45.353698    -906.0827     1624.405    5967.3911    2.1993044  0.093123545   0.11204421 
   16600   -951.61952    41.301227   -910.31829    1479.2602   -10583.323    2.1671407  0.039858653   0.12074755 
   16700   -953.65504    39.429398   -914.22564     1412.218   -1404.0779     2.193285  0.060324038   0.11692642 
   16800   -948.60716    42.774679   -905.83248    1532.0339    5080.8704    2.1929396   0.25631777   0.11747804 
   16900   -948.94549    43.154072   -905.79142    1545.6224    930.94311    2.1847959  0.076201241    0.1295327 
   17000   -948.19942    40.243395   -907.95602    1441.3725   -545.75646     2.179679   0.04281779   0.11004754 
   17100   -954.57977    38.983549   -915.59622    1396.2493    1327.8042    2.1982109   0.31060223   0.11087233 
   17200   -948.12323    41.277392   -906.84584    1478.4065    1048.2134     2.181881   0.10219982    0.1128251 
   17300   -948.68364    42.985036   -905.69861    1539.5681    361.30994    2.1811402    0.1293097   0.11587323 
   17400   -947.72337    41.019335   -906.70404    1469.1638    604.46348    2.1849879  0.032677666   0.13000252 
   17500   -953.98222    38.902195   -915.08003    1393.3356    2533.3814    2.2053101  0.011966855   0.12805246 
   17600   -948.65839    41.676963   -906.98143    1492.7177   -2860.3299    2.1752654  0.053837661   0.12683679 
   17700   -948.99357    43.472802   -905.52076    1557.0381   -4626.3194    2.1709591   0.10739751   0.11540487 
   17800   -949.48112    42.888005   -906.59312    1536.0928    3768.0757    2.1934099   0.17397088   0.11787142 
   17900   -953.28992    39.004765   -914.28515    1397.0092    9916.1887    2.2174558   0.18627143   0.12169168 
   18000   -947.15268      41.5043   -905.64838    1486.5335   -5371.3703    2.1648215   0.12861591   0.11976821 
   18100   -949.80768    44.046694   -905.76098    1577.5928   -10224.097    2.1561161  0.061844882   0.11780485 
   18200   -950.42272    44.178756   -906.24396    1582.3228    7656.9593    2.2035437    0.1538426   0.12264189 
   18300    -954.4931    39.827823   -914.66528    1426.4882     12027.46    2.2282642  0.051044758    0.1192863 
   18400   -946.99672     39.84266   -907.15406    1427.0196   -7045.4313    2.1634665   0.14837837   0.12976091 
   18500   -946.26225    40.273637   -905.98862    1442.4556   -6152.4471    2.1632119  0.070426491   0.12703683 
   18600   -951.05322    45.893155   -905.16007    1643.7264    4304.1203    2.1956342  0.016506103   0.11405587 
   18700   -950.24186    38.386055   -911.85581    1374.8493    5806.1748    2.2026967   0.20475256    0.1152732 
   18800   -949.33187    37.997533   -911.33434    1360.9338   -1847.5809    2.1848167   0.18058933   0.13085501 
   18900   -949.42095    43.352231   -906.06871    1552.7197    -2299.366     2.176889     0.127531    0.1298063 
   19000   -948.24005    43.057376   -905.18267    1542.1591    2759.1868    2.1864026    0.1959662   0.12311536 
   19100   -953.88836    41.734393   -912.15397    1494.7746    600.53934    2.1968434  0.078452566   0.11726339 
   19200   -954.06788    43.583313   -910.48456    1560.9962   -2853.4442    2.1883264   0.10842995   0.11677002 
   19300   -947.98526    42.589786   -905.39548    1525.4117    326.22766    2.1826068  0.056866677    0.1364079 
   19400   -947.05501    41.202347   -905.85266    1475.7187    1315.2867     2.185604  0.027240679   0.14844454 
   19500   -953.05978    39.460986   -913.59879    1413.3494    965.65197    2.1977968    0.1091685   0.13010587 
   19600   -952.59038    44.090696   -908.49968    1579.1688   -2716.7339     2.186166    0.1306556   0.12174511 
   19700   -949.35351    44.168319   -905.18519     1581.949    1682.6367    2.1931815 0.0084006166   0.12399802 
   19800    -947.6642    41.211334   -906.45286    1476.0405    977.39008    2.1863713  0.063122577   0.13536562 
   19900   -954.46009    40.482417   -913.97767    1449.9334    -7853.034    2.1820293   0.14818132   0.12902507 
   20000   -949.95023    40.116222   -909.83401    1436.8176     1511.041    2.1884397   0.24159492   0.13905332 
   20100   -947.47813     42.41031   -905.06782    1518.9835    9802.2647    2.2056427   0.12686558   0.13675556 
   20200   -948.11949    42.099388   -906.02011    1507.8474    1313.5004    2.1867445  0.040295939   0.13419389 
   20300   -952.60231    41.664571   -910.93774    1492.2738   -11275.591     2.164774  0.049095957   0.13589729 
   20400   -953.02454    40.450069   -912.57447    1448.7748   -590.39037    2.1949998  0.069585147   0.12401431 
   20500   -946.68217    41.374986   -905.30719    1481.9019    11043.507    2.2096779   0.14585095   0.14258357 
   20600   -949.64741     44.20299   -905.44442    1583.1908   -544.68134    2.1829362   0.25909765   0.12843339 
   20700   -947.64287    40.310212   -907.33265    1443.7656   -10236.993    2.1591158  0.097349987   0.12276513 
   20800   -953.39979    39.350359   -914.04943    1409.3872     3865.745    2.2036665   0.19238058   0.11640347 
   20900   -950.30252    44.424433   -905.87808    1591.1221    7816.4042    2.2015246   0.16250436    0.1162268 
   21000   -945.29023      39.7153   -905.57493     1422.458   -1344.1828    2.1775486   0.15601705   0.13462945 
   21100   -947.86262     39.77977   -908.08285    1424.7671   -4592.4745     2.169806   0.04749472   0.13510325 
   21200   -950.82832    36.846775   -913.98155    1319.7179    5695.8717    2.2073168  0.058968651   0.13341275 
   21300   -951.01258    45.523841   -905.48874    1630.4989    3157.2099    2.1942786  0.017718967   0.13060824 
   21400   -948.21709     42.57129    -905.6458    1524.7492   -1537.2481    2.1800172   0.31205669   0.12891056 
   21500   -948.59906     39.51421   -909.08485    1415.2557   -2109.6578    2.1793842   0.33579852   0.12208252 
   21600   -953.48313    39.185417   -914.29771    1403.4795    3314.4157    2.2030335   0.28621719   0.11236154 
   21700   -946.47671     41.05736   -905.41935    1470.5257    3484.0395    2.1856626  0.036578659   0.11572714 
   21800    -948.9377    43.256179   -905.68152    1549.2795     7.014957    2.1805968   0.16805984   0.12051044 
   21900    -949.2726    42.972427   -906.30017    1539.1165     612.6151    2.1845988  0.057863591   0.13619051 
   22000   -954.32051     38.82109   -915.49942    1390.4307    1912.6182    2.2035153   0.11716728   0.10857548 
   22100   -949.21975    40.601176   -908.61857    1454.1869    -1439.025    2.1803032   0.34337293   0.11020949 
   22200    -950.9938    45.255981   -905.73782    1620.9051    -2746.684    2.1822494  0.052840405   0.12094269 
   22300   -950.15341    45.135943   -905.01746    1616.6058    837.67636    2.1869165   0.12098223   0.12316427 
   22400   -953.61273    39.780819   -913.83191    1424.8047    349.92519    2.1978225   0.10068088   0.12788672 
   22500   -952.56912    43.514076   -909.05505    1558.5164   -4372.9584    2.1800874   0.30909613   0.12614884 
   22600   -949.91174    44.836673   -905.07507     1605.887     -1136.63    2.1819331   0.12814113   0.11466301 
   22700    -952.7113    46.808134   -905.90316    1676.4976    1121.8934    2.1914665    0.0762403   0.10537882 
   22800   -955.63188    42.000265   -913.63162    1504.2972    3362.2032    2.2049675   0.10067531   0.11177829 
   22900   -949.17172    43.996804   -905.17491     1575.806   -10660.309    2.1583874    0.1302078   0.11653488 
   23000   -949.45693    44.122272   -905.33466    1580.2998     -4898.54    2.1689091   0.20695387   0.11894888 
   23100   -952.72219    44.380924   -908.34127    1589.5638    12099.365    2.2207921  0.087191523   0.11897433 
   23200   -956.49382    42.819069   -913.67475    1533.6238    6338.5651    2.2144362   0.10238666   0.09870555 
   23300   -947.83932     44.48301   -903.35631    1593.2201   -14889.762     2.141457   0.34087799   0.12512582 
   23400   -946.74576    41.002848   -905.74292    1468.5733    -4078.331    2.1711091  0.077772129   0.11859456 
   23500   -951.19169    44.754466   -906.43723    1602.9427    9053.5868    2.2112509   0.18399546   0.11750384 
   23600   -944.98784    44.666292   -900.32155    1599.7846    5192.2135    2.1911456   0.28942954   0.13261669 
   23700   -948.23526    47.317627   -900.91763    1694.7458   -9532.6514    2.1579849   0.19482452   0.12475394 
   23800   -949.27495    42.338961   -906.93599     1516.428   -5675.2239    2.1715944   0.11898525   0.12465486 
   23900   -951.98453    46.290803   -905.69372    1657.9687    4780.5023    2.2017461   0.14359651   0.11511613 
   24000   -946.96187    49.373513   -897.58836    1768.3802    4947.1602    2.1891284   0.22706667   0.11272854 
   24100     -948.894    45.637357   -903.25664    1634.5646   -5596.3375    2.1689403  0.031902619    0.1187567 
   24200   -948.44093    41.365289   -907.07564    1481.5547   -6052.9388    2.1673575  0.059835922   0.12173923 
   24300   -947.26667    42.744994   -904.52168    1530.9707    4404.5733    2.1915105  0.072712377   0.13656876 
   24400   -942.32419    46.052636   -896.27155    1649.4384    7377.7906    2.1862115  0.044846965   0.13846195 
   24500   -950.66832    45.482006   -905.18631    1629.0005   -1281.1352    2.1787767  0.051476204   0.10431534 
   24600    -948.6063    41.749401    -906.8569    1495.3121   -8134.3233    2.1608654   0.21402053   0.11364665 
   24700   -952.51303    47.809915   -904.70312    1712.3778   -2396.3826    2.1805393  0.012679637   0.10619507 
   24800   -944.88218    44.797033   -900.08515    1604.4673    9970.5698    2.1950902   0.02443534    0.1236266 
   24900   -945.15109    48.107473   -897.04361    1723.0352   -3494.3825    2.1589385   0.17371545   0.11955468 
   25000   -947.71558    42.846499   -904.86908    1534.6062   -4440.4043     2.166571  0.045457515   0.11689748 
   25100   -949.76073    43.608117   -906.15262    1561.8846    793.55223    2.1875009   0.15567522   0.12158155 
   25200    -949.3483    42.339673   -907.00863    1516.4535    4458.9978    2.1939932  0.037007335   0.11723543 
   25300   -944.76634    47.752731   -897.01361    1710.3297   -544.72207    2.1683808  0.044278645   0.12257676 
   25400   -946.79563    44.415178   -902.38045    1590.7906    2160.9356    2.1805065  0.038937196   0.12002532 
   25500    -951.4916    44.839931   -906.65167    1606.0037   -2052.4205    2.1808946   0.13539898   0.11039624 
   25600   -948.74536    41.773343   -906.97202    1496.1697    -438.5426    2.1820554  0.025484548   0.11754689 
   25700   -944.10143    46.646161   -897.45527    1670.6963   -122.76577    2.1721614  0.016206836   0.13955106 
   25800   -950.10557    45.353866    -904.7517     1624.411    3989.6578    2.1967925    0.1180706   0.13147726 
   25900    -949.5436    42.184619   -907.35898    1510.9001   -1278.8755    2.1802065    0.3370777   0.12229138 
   26000   -952.21712    48.528066   -903.68906    1738.0993   -5632.7166    2.1686998  0.072248393   0.11867491 
   26100   -944.08754    46.270451   -897.81709    1657.2398    1286.6387    2.1734184  0.045495649   0.12266694 
   26200   -948.79561    41.931338   -906.86428    1501.8285    10809.866     2.214378  0.031135257   0.13000806 
   26300   -945.91001    39.761647   -906.14836     1424.118    2391.8125    2.1843844    0.1481555   0.13462842 
   26400   -950.36226    47.375753   -902.98651    1696.8277   -17163.843    2.1445921  0.029282348   0.13193667 
   26500   -952.67656    41.809688   -910.86687    1497.4714   -1998.3717    2.1890574   0.14615197   0.11784439 
   26600   -952.96032    43.261294   -909.69903    1549.4627    10043.901    2.2210722    0.2806431   0.11797714 
   26700   -949.92307    44.425955   -905.49712    1591.1766    1649.6716    2.1887956 0.0034312628   0.13392845 
   26800    -946.2974    40.965737   -905.33166    1467.2441   -9375.1378    2.1556102  0.010457335   0.15094644 
   26900   -956.55851    42.475726   -914.08278    1521.3265   -5509.1589    2.1893184  0.073081607   0.14005083 
   27000   -951.20585    43.529963   -907.67589    1559.0854    7769.7777    2.2065202   0.17535507   0.12499298 
   27100   -946.71174    42.105652   -904.60609    1508.0718    4506.3205    2.1887202 0.0055056224   0.12184917 
   27200   -950.92452    42.630253   -908.29427    1526.8611    -6558.159    2.1705298  0.084281741   0.12944951 
   27300   -951.75545    38.096973   -913.65848    1364.4954    219.81243    2.1908219    0.1320873   0.13362969 
   27400   -949.27399    44.762505   -904.51148    1603.2306    1268.2865    2.1834616  0.019221832   0.13294241 
   27500   -952.57197    47.007601   -905.56437    1683.6418   -1202.2147     2.186085   0.12043544   0.11474381 
   27600   -951.28574    41.340106   -909.94563    1480.6527   -1512.7048    2.1814381  0.034646111   0.11119204 
   27700   -950.69483    40.475232   -910.21959     1449.676    76.871707     2.186522   0.14952785   0.11845556 
   27800   -948.27454    45.161767   -903.11278    1617.5307   -1353.2038    2.1762002   0.30259857   0.14446341 
   27900   -950.88414    44.535572   -906.34857    1595.1027    -4266.599    2.1764312   0.04799351   0.12702847 
   28000   -949.52056    40.828918   -908.69164    1462.3438    1216.6331    2.1859464   0.18215867   0.12573368 
   28100   -950.74303     45.05105   -905.69198    1613.5652    3963.0488    2.1938593   0.14754732   0.12188911 
   28200   -943.49017    42.513501   -900.97667    1522.6794    1473.0695    2.1722395  0.037005467   0.13381816 
   28300    -945.9349    39.662656   -906.27224    1420.5725   -8713.4126    2.1543938   0.17294006   0.14079182 
   28400   -949.24405    42.341808   -906.90224      1516.53   -726.23716     2.182368   0.16685811   0.11462861 
   28500   -948.18871    47.588347   -900.60036     1704.442    16641.189    2.2217289   0.51158155   0.12529962 
   28600   -950.09443    48.995267   -901.09916    1754.8328   -2138.4498    2.1748486  0.049137219   0.11294438 
   28700   -950.20473    42.174101   -908.03063    1510.5233   -15141.315    2.1463692   0.27994557   0.13283135 
   28800   -948.68726    42.872494   -905.81477    1535.5373   -731.26296    2.1804413  0.035318121   0.13018566 
   28900   -947.16655    47.481146   -899.68541    1700.6024    8337.3026    2.1966163   0.12362272   0.12939464 
   29000   -950.05771    45.110316   -904.94739    1615.6879   -2844.1217    2.1767474  0.085780892   0.13234483 
   29100   -950.86316    42.811297   -908.05187    1533.3454   -6821.7522    2.1691328    0.1067283   0.12135174 
   29200   -943.34087    39.152714   -904.18815    1402.3082    3847.2312    2.1874115   0.15058018    0.1506424 
   29300   -945.70477    44.007584   -901.69718    1576.1921    6401.4383    2.1924945   0.16579788   0.12686237 
   29400   -953.97133    42.767532    -911.2038    1531.7779    2020.8198    2.2002513  0.023299377   0.12033485 
   29500   -949.34729    41.799214   -907.54808    1497.0963   -6458.3819    2.1700099   0.29969568   0.12324992 
   29600   -951.11303    46.712892   -904.40013    1673.0864   -3374.5536    2.1766844  0.012734338   0.12948136 
   29700   -952.60786    43.670948   -908.93691     1564.135    5168.2735     2.206463   0.28545581   0.13245888 
   29800   -950.76232    39.523176   -911.23915    1415.5768    5086.2761    2.2027833   0.10551816   0.13077611 
   29900   -947.11877    42.255432   -904.86334    1513.4363   -5226.7193     2.168138  0.063055134   0.12954024 
   30000   -946.11946    40.260096   -905.85937    1441.9706   -4221.3995    2.1664731   0.14263768   0.12216914 
   30100   -955.45633    42.642642   -912.81369    1527.3048    6784.3531    2.2138176   0.22209689   0.13406974 
   30200   -949.66488    44.592132   -905.07275    1597.1285    9254.2148     2.202524    0.1065316   0.13507064 
   30300   -949.19112    44.425079   -904.76604    1591.1452   -8688.8347     2.159327   0.12334276   0.12867116 
   30400   -948.71991    40.640233   -908.07968    1455.5858    -13633.11    2.1498261   0.18273783   0.12293961 
   30500   -951.18095    42.967009   -908.21394    1538.9225     10333.55    2.2150681   0.11097296   0.12162635 
   30600   -945.45496     46.07715   -899.37781    1650.3164    11793.801    2.2042521  0.085029143   0.12973058 
   30700   -946.57736     41.31719   -905.26017    1479.8319   -8198.6136    2.1609725  0.085390543   0.13258168 
   30800   -951.34763    43.071359   -908.27627    1542.6599    -8945.301    2.1652933    0.1334146   0.12301653 
   30900   -953.52899    49.570892   -903.95809    1775.4496    2914.4671    2.1963001  0.038258709   0.11022829 
   31000    -944.5217    43.946916   -900.57479    1574.0191    5120.2132    2.1855429   0.12161267   0.13282281 
   31100   -949.28123    41.523616   -907.75762    1487.2253   -3779.5681    2.1742452   0.15244852   0.11734975 
   31200   -946.73288    40.721704   -906.01118    1458.5037   -1542.8652    2.1741842   0.44380645    0.1322769 
   31300   -945.86633    47.423802   -898.44252    1698.5486    2157.5382    2.1756364    0.1907357    0.1266052 
   31400   -953.21893    45.884292   -907.33464    1643.4089    5340.5254     2.199418   0.05424098   0.10622383 
   31500   -949.11882    42.000081   -907.11873    1504.2906   -3386.9128    2.1753812   0.16621482   0.12051646 
   31600   -945.89807    43.549638   -902.34843    1559.7901   -6560.4546    2.1604043   0.13124768   0.11824777 
   31700   -953.83333    44.897175   -908.93616     1608.054    1653.4377    2.1942269   0.13623471   0.10917461 
   31800   -951.36367    42.294875    -909.0688     1514.849    6053.8092    2.2012791   0.23724543   0.10449305 
   31900   -947.25024    42.639541    -904.6107    1527.1937   -221.37529      2.17746  0.059384859   0.12058467 
   32000    -946.5411    41.739864   -904.80124    1494.9706   -5547.7716    2.1625663  0.046480545   0.11675298 
   32100   -954.53125    41.652065   -912.87918    1491.8259    1836.5016     2.201092   0.08758226   0.11735783 
   32200   -947.63006    42.828958    -904.8011     1533.978    11656.487     2.209525   0.20225665   0.13676167 
   32300   -948.97072     43.94082    -905.0299    1573.8008   -4613.9965    2.1705068   0.11556543   0.12429669 
   32400   -949.81488    39.583445   -910.23144    1417.7355   -14583.008    2.1483138 0.0027202614   0.11255749 
   32500    -949.9212    41.182028   -908.73917    1474.9909     4267.728    2.1947145   0.16939833   0.10272166 
   32600   -948.09783    46.343374   -901.75446    1659.8516     12736.52    2.2087724  0.034328284    0.1056394 
   32700   -949.91293    42.494272   -907.41866    1521.9907   -2857.4617    2.1772453   0.11648631   0.11235371 
   32800   -949.07588    39.766618   -909.30926     1424.296   -8756.0499    2.1601826  0.010865039   0.10756943 
   32900   -946.60794    46.309596   -900.29835    1658.6418   -421.83462    2.1695884   0.14886564   0.10812151 
   33000    -949.9929    45.196592   -904.79631     1618.778    9356.8619    2.2047831  0.081755524   0.11254918 
   33100   -951.87038    43.473884   -908.39649    1557.0769   -315.97594    2.1855784   0.19212264   0.11579791 
   33200   -942.58713    41.288565   -901.29856    1478.8066   -3440.2738    2.1554826  0.010070841   0.14340128 
   33300   -946.68836    42.670435   -904.01792    1528.3003    842.25763    2.1812293   0.16747598   0.13776695 
   33400   -950.92472    43.059038   -907.86568    1542.2186    4831.2835    2.2015601  0.030944073   0.11587274 
   33500   -950.36029    46.327696    -904.0326    1659.2901   -693.89254    2.1846667  0.019857371   0.10244121 
   33600   -946.41005     45.21192   -901.19813     1619.327   -6059.5631    2.1602072   0.32373524   0.12613833 
   33700   -952.45617    42.142953   -910.31321    1509.4077    1428.4738    2.1957057   0.30316198   0.12782384 
   33800   -947.07891    41.476374   -905.60253    1485.5333    8880.1966    2.2001166    0.2075559   0.12309729 
   33900   -947.96808    44.996164   -902.97192    1611.5994    222.30255    2.1783922   0.23833336   0.11635321 
   34000   -952.40202    40.744872   -911.65715    1459.3336   -6951.7059    2.1757798  0.023520955   0.10695635 
   34100   -947.99364    40.073863   -907.91978    1435.3004   -3832.7331    2.1748588  0.062683658    0.1242675 
   34200   -947.55582    44.539847   -903.01598    1595.2558    10980.437    2.2074519   0.25455743   0.13365973 
   34300   -950.87389    41.837518   -909.03637    1498.4682    7530.1543    2.2055147  0.056540573   0.11698489 
   34400   -951.05872     39.27252    -911.7862    1406.5993   -15225.411    2.1512447  0.026808026   0.11030266 
   34500   -947.43203    42.836257   -904.59577    1534.2394    -9318.125    2.1547189  0.014808673   0.12102444 
   34600   -947.40292    42.354842   -905.04808    1516.9968    14320.598    2.2150119   0.20972375   0.12580138 
   34700   -952.00524    42.109645    -909.8956    1508.2148    8995.3443    2.2114137    0.2972543   0.11185546 
   34800   -945.82881     45.16352   -900.66529    1617.5935     -7694.62    2.1535669   0.10973896   0.11367849 
   34900   -947.97001    43.586629   -904.38338     1561.115   -3487.0419    2.1713546  0.035274015   0.11075519 
   35000   -953.00416    45.373718   -907.63044     1625.122    3285.8863    2.1969252  0.098910708   0.11821953 
   35100    -950.5872    46.967292   -903.61991    1682.1981    1972.5577    2.1889432  0.006184177    0.1267435 
   35200   -943.86841    43.290212    -900.5782    1550.4984    -4234.853    2.1606848  0.087077723   0.12310594 
   35300   -950.05816    41.906254   -908.15191      1500.93   -2894.3644     2.178522 0.0063177669   0.10919722 
   35400   -946.26133    41.140483   -905.12085    1473.5029    7229.5613    2.1957988   0.16847212      0.12022 
   35500   -946.67338    47.444294   -899.22909    1699.2826    753.55843    2.1790931   0.16405249   0.13448154 
   35600   -950.09171    41.786953   -908.30476    1496.6571    -4285.807    2.1752741  0.070074111   0.12504964 
   35700   -952.20704    44.660644    -907.5464    1599.5823   -7596.1211    2.1653404   0.15144288  0.095354133 
   35800   -947.60544    44.871871   -902.73356    1607.1477    6181.0441    2.1906468   0.15260703  0.093496645 
   35900   -950.38426    41.084245   -909.30002    1471.4887    10015.916    2.2111451  0.071658477    0.1034405 
   36000   -953.65434    43.610338     -910.044    1561.9641   -10986.985    2.1668087   0.19373324   0.12489673 
   36100   -951.70242    46.551463   -905.15096    1667.3046   -14404.272    2.1517904   0.11165152   0.11519659 
   36200   -949.85747    45.300847   -904.55663     1622.512    8307.7491    2.2015222  0.062479731   0.10131482 
   36300   -953.41107    42.146605   -911.26446    1509.5385    15946.052    2.2309281  0.045933473   0.10354413 
   36400   -946.01869    43.012345   -903.00635    1540.5462   -7042.7816    2.1559124  0.059965734   0.11729307 
   36500   -946.66256    41.818907   -904.84365    1497.8016   -7962.7599    2.1567203   0.12256603   0.12527735 
   36600   -951.07819    42.699976   -908.37821    1529.3583    2734.2235    2.1977816   0.13760941   0.11343964 
   36700   -951.55356    42.795166   -908.75839    1532.7677    6624.2654    2.2051628   0.11955067   0.10599761 
   36800    -947.8913    47.042718   -900.84858    1684.8995      -7648.5    2.1600347   0.11660528   0.10016791 
   36900   -948.15797    41.526394   -906.63158    1487.3249    -5245.587    2.1717437   0.21210402   0.11100438 
   37000   -948.88942    41.708261   -907.18116    1493.8386    5112.5423     2.197729  0.043558834   0.11492399 
   37100   -947.62241    49.223745   -898.39867     1763.016    3512.3593    2.1861354  0.029384269   0.11772697 
   37200   -947.17493    42.842198   -904.33273    1534.4521   -1618.1716    2.1748839  0.038685117   0.11255095 
   37300   -947.40246    39.419702   -907.98276    1411.8708   -4643.0236    2.1709804  0.093346197   0.10841163 
   37400   -949.74723    47.153869   -902.59336    1688.8806   -213.25683    2.1853661    0.4223614   0.12156369 
   37500   -943.73299    45.239707   -898.49328    1620.3223    6560.5295    2.1860956   0.51778596   0.12070799 
   37600   -948.24254    41.435265   -906.80728    1484.0609   -394.01558    2.1778923   0.16071245   0.11770811 
   37700     -948.038    41.904971   -906.13303    1500.8841   -5500.5701    2.1664957   0.25232073   0.10726077 
   37800    -943.5444    43.510227   -900.03417    1558.3785    5167.3142    2.1833837  0.039868305   0.11353692 
   37900   -945.72882    45.096922   -900.63189    1615.2082    7944.8976    2.1961024    0.2276493   0.11578119 
   38000   -948.69852      41.9438   -906.75472    1502.2748   -6323.7934     2.168034  0.080249182   0.11444853 
   38100    -946.7343    40.195255   -906.53905    1439.6483   -7409.0407    2.1581729   0.09953892   0.11743594 
   38200    -948.2778    45.619909   -902.65789    1633.9397    8255.6078    2.1998284  0.089422507   0.11414094 
   38300   -949.50669    47.679825   -901.82686    1707.7184     10395.02    2.2099556    0.2668029   0.10946311 
   38400   -951.23389    40.895441   -910.33845    1464.7264   -6155.7044    2.1737082  0.022282912   0.10287929 
   38500    -947.1024    39.188874   -907.91353    1403.6034   -10916.699    2.1581271   0.20063296   0.12356488 
   38600   -949.44101    44.692978   -904.74803    1600.7404    3432.5381    2.1918256  0.059062048   0.11814672 
   38700   -955.63481    48.529223   -907.10559    1738.1408    4363.4344    2.2048628  0.044465003   0.10578195 
   38800   -951.49315    37.799021   -913.69413    1353.8238    592.97319    2.1935436  0.084078263   0.10122812 
   38900   -949.36267    42.807727   -906.55495    1533.2175     -6008.41    2.1673975  0.077328217   0.10988723 
   39000   -950.21399    45.267691    -904.9463    1621.3245   -2597.4195    2.1787286   0.19007908   0.10776541 
   39100   -955.03809    44.166546   -910.87154    1581.8855    2974.4815    2.2008968  0.083471363   0.11383354 
   39200    -951.2726    40.622433   -910.65017    1454.9482    1328.4014    2.1934496  0.033028643   0.10994355 
   39300   -948.69045    43.576913   -905.11354     1560.767   -3540.2403    2.1744188  0.087119975   0.11776345 
   39400   -946.63084    39.751022   -906.87982    1423.7374   -1374.9517    2.1782867  0.073133653   0.11759122 
   39500   -948.85679    36.079074   -912.77771    1292.2216    5081.9917    2.1997289    0.1562426   0.11096874 
   39600   -948.98759    42.293281   -906.69431     1514.792    2394.3799    2.1921268   0.25289799   0.12261641 
   39700   -946.95237    42.130572    -904.8218    1508.9643     1091.341    2.1811445   0.13993721   0.11871738 
   39800   -951.08292    44.270837   -906.81208    1585.6208   -5282.3057    2.1735439   0.08697593   0.11205243 
   39900    -952.8231    44.361584   -908.46151    1588.8711   -930.93415    2.1866334  0.038476876   0.10451186 
   40000   -956.84814    39.118166   -917.72997    1401.0708    9190.2906     2.224847   0.11253785     0.103118 
   40100    -951.7493    41.230573   -910.51873    1476.7296   -5851.9146    2.1767054    0.1442114   0.10246183 
   40200   -950.68386    43.308593   -907.37527    1551.1567   -12001.535    2.1538737   0.12770736   0.11157835 
   40300    -947.2497    42.278955   -904.97075    1514.2788    6975.5492    2.1967976  0.092310759   0.11299766 
   40400   -950.99411    43.485096   -907.50901    1557.4784    13448.444    2.2174896  0.040990947   0.11543103 
   40500   -952.51686    38.248552   -914.26831    1369.9244   -1749.0416     2.186962   0.12275795   0.10639138 
   40600   -947.88707    40.835989   -907.05108     1462.597   -11644.014    2.1539574  0.084144265   0.10635466 
   40700   -949.49872    44.401272   -905.09745    1590.2926    106.92168    2.1847308   0.17050803   0.11284513 
   40800   -951.80671    42.557585   -909.24913    1524.2584    8507.9299    2.2120652   0.11484874   0.10573173 
   40900   -955.43067    41.682288   -913.74838    1492.9084   -1435.3179    2.1966097   0.15309952   0.11590463 
   41000   -946.90465    41.211695   -905.69295    1476.0535   -7747.1057    2.1595693   0.18412576   0.11504654 
   41100   -950.39237    44.546948   -905.84542    1595.5101   -2697.1648    2.1781859  0.057574726   0.10962936 
   41200   -952.40132    42.306285   -910.09503    1515.2577    7283.9886    2.2088267   0.06250327   0.10622982 
   41300   -953.73939    39.131662   -914.60773    1401.5542    3652.9483     2.204347  0.046349698   0.10767781 
   41400   -949.91338    44.125073   -905.78831    1580.4001   -8494.5634    2.1620937  0.047626648   0.11559015 
   41500   -950.38549    44.277848   -906.10764    1585.8719   -3541.0571    2.1771857  0.026500468   0.11929523 
   41600   -950.44502    43.760854   -906.68417    1567.3551    5815.4913    2.2020397   0.34016732   0.11875414 
   41700   -945.42691    47.244389   -898.18253    1692.1227    3086.5468    2.1827229  0.056551088   0.11856832 
   41800   -945.47373    44.664803   -900.80893    1599.7313   -1278.7638    2.1704698   0.11091888   0.12082658 
   41900   -950.45624    44.457027   -905.99922    1592.2895   -5379.0385    2.1726663  0.095250426   0.10436692 
   42000   -949.54897    42.519994   -907.02897     1522.912    1996.7366    2.1871009   0.43487582   0.11765472 
   42100   -948.52575    48.713898   -899.81186    1744.7552    4607.6103    2.1839985  0.089517442   0.11121146 
   42200   -948.48248    46.717472   -901.76501    1673.2504   -1241.1513    2.1729866  0.077697186   0.11040867 
   42300   -949.28556    41.984421   -907.30114    1503.7297   -4108.5224    2.1713649   0.21315452   0.11618203 
   42400   -950.88338    45.887798   -904.99558    1643.5345   -493.57103    2.1831878  0.077665695   0.11077795 
   42500   -946.01959    48.762926   -897.25667    1746.5112    2070.8099    2.1787554   0.15579628    0.1211639 
   42600   -949.36977    43.109349   -906.26042    1544.0206    1675.5475    2.1870276  0.019274062   0.11510757 
   42700    -949.6218    42.646391   -906.97541    1527.4391   -6107.0732    2.1708422   0.13908552   0.11548601 
   42800   -949.44526    45.738211   -903.70705    1638.1768   -1098.5292    2.1774842  0.072707994    0.1110132 
   42900   -943.71445    46.662906   -897.05154    1671.2961    7592.3269    2.1838296   0.11150217   0.12310772 
   43000    -945.8917    40.193047   -905.69865    1439.5692    4469.2897    2.1876289  0.045245755   0.10862269 
   43100   -949.90174    43.232853   -906.66889     1548.444   -7530.2287    2.1689994   0.18421127   0.10241732 
   43200   -947.73313    42.095764   -905.63737    1507.7176    1286.6509    2.1819573  0.020345578   0.10825059 
   43300   -954.09077     47.15688   -906.93389    1688.9884    645.33337    2.1933418   0.23455248    0.1110206 
   43400   -952.83965    38.236828   -914.60282    1369.5045     3676.008    2.2066384   0.07473665   0.11717855 
   43500    -950.9699    43.232469   -907.73743    1548.4303   -4515.3755    2.1779735   0.12466763   0.10834303 
   43600   -949.33464    43.952521   -905.38212    1574.2199    -3606.309    2.1748569   0.12352753   0.11403659 
   43700   -949.33327    43.903328   -905.42994     1572.458    2676.2531    2.1879209  0.045786637   0.10689034 
   43800   -953.78986    39.887231   -913.90263     1428.616    6293.4774    2.2114519  0.068311199   0.10454265 
   43900   -948.53625    41.987833   -906.54842    1503.8519   -2849.1921    2.1737927   0.12070839   0.11523112 
   44000   -947.49022    43.665218     -903.825    1563.9298   -3264.3724    2.1709789   0.57231011   0.12010233 
   44100   -949.40944    44.994609   -904.41483    1611.5437   -1396.2506     2.182749   0.52636853   0.12067154 
   44200   -950.95447    38.749586   -912.20489    1387.8697    6436.2123    2.2037433   0.78636522     0.111336 
   44300   -947.19168    42.160745   -905.03093     1510.045   -1483.4717    2.1737757  0.037315395   0.11374999 
   44400    -952.6105    47.114647   -905.49585    1687.4758    -10093.15     2.161886   0.34437694  0.094620454 
   44500   -953.87501    42.012022   -911.86299    1504.7183    3648.4384    2.2014886  0.089311698   0.10248861 
   44600   -949.31069    43.102345   -906.20835    1543.7697    13457.136    2.2122854  0.062031767   0.10821243 
   44700   -949.71151    45.371171   -904.34034    1625.0308   -4075.4445    2.1714011  0.083957031   0.11085274 
   44800   -947.74738    39.178844   -908.56854    1403.2441   -12706.594    2.1490993   0.14722249   0.11263988 
   44900   -947.57527    40.501834   -907.07344    1450.6288    4168.2851    2.1899952  0.082309543   0.10929908 
   45000   -949.74009    49.740321   -899.99977    1781.5179       8990.3    2.2002076  0.030639782  0.099376099 
   45100   -950.47516     44.24155   -906.23361    1584.5719   -2253.1146    2.1788546   0.25618713   0.10278049 
   45200   -949.40769    40.822753   -908.58494     1462.123   -9045.4448    2.1622142 0.0011863155    0.1158873 
   45300   -943.13009    42.801522   -900.32857    1532.9953    3549.6995    2.1772033  0.097846219   0.12311455 
   45400   -949.26945    45.928159   -903.34129    1644.9801    7364.1802    2.2036549  0.067025925   0.12151003 
   45500   -950.28986      42.2561   -908.03376    1513.4603   -1983.6922    2.1817034  0.077388261   0.10281352 
   45600   -950.34746    46.050312   -904.29715    1649.3552   -7018.6036    2.1668741  0.083199174    0.1049316 
   45700   -943.35067    44.910196   -898.44047    1608.5204    3061.2553    2.1771256   0.12988843    0.1026325 
   45800   -952.40443    44.390977   -908.01345    1589.9238    8037.0498    2.2074237  0.052623154    0.1060814 
   45900   -948.90184    42.483391   -906.41845     1521.601   -1378.1586    2.1817757  0.048164888  0.097857092 
   46000     -948.297    45.950335   -902.34667    1645.7744   -6840.7892    2.1623377   0.12793098   0.10340987 
   46100   -951.35059    39.937973   -911.41262    1430.4334    2196.2416    2.1952903   0.39795703   0.10961707 
   46200    -949.9363    41.441187   -908.49511     1484.273    3849.4172    2.1971855   0.20501195   0.10089425 
   46300   -948.14594    43.953274   -904.19266    1574.2469   -987.99519    2.1809173   0.17084599   0.11215808 
   46400   -948.11591    41.280056   -906.83585    1478.5019   -3735.0924    2.1725788   0.16199969    0.1017867 
   46500   -952.07523     40.04093    -912.0343    1434.1209      2100.27    2.1956481  0.059391686   0.10752009 
   46600   -952.32962    48.007956   -904.32166    1719.4709      781.046    2.1906206  0.023662497   0.10727323 
   46700   -951.03909    45.036015   -906.00307    1613.0267   -2726.4461    2.1825512   0.40264565   0.11565667 
   46800   -951.61983    38.809067   -912.81076    1390.0001   -2832.6692    2.1834448  0.049375615  0.099396077 
   46900   -949.44563     43.89574   -905.54989    1572.1862    816.21989    2.1850087   0.17719056   0.10339969 
   47000   -946.21798     42.58998   -903.62801    1525.4186    15901.456    2.2182149   0.21138894   0.12183915 
   47100   -945.04314    36.534792   -908.50835    1308.5438     673.1434    2.1793377  0.095859195   0.10557157 
   47200   -942.66176    40.415284   -902.24648    1447.5289   -14161.064    2.1341696   0.25528797   0.13580263 
   47300   -944.79574    43.674439    -901.1213      1564.26    4255.2894    2.1839148   0.18280763   0.11689224 
   47400   -948.01277     42.64233   -905.37044    1527.2936    14258.711    2.2173424   0.25190935   0.10614659 
   47500   -951.63037    43.462579   -908.16779     1556.672   -2892.1459    2.1831209   0.20205664   0.11000762 
   47600   -944.65435    45.319293   -899.33506    1623.1727   -11353.611    2.1454748  0.011993261   0.10574068 
   47700   -948.48858    43.717177   -904.77141    1565.7907    237.98233    2.1876962  0.084089032   0.13032626 
   47800   -949.60651    42.886289   -906.72022    1536.0313    9540.3544    2.2058554  0.027496276   0.11244078 
   47900   -947.78408    42.694865   -905.08921    1529.1752   -1572.5418     2.182793    0.4162713   0.12354124 
   48000   -941.25901    43.316388   -897.94262    1551.4359   -5690.2462    2.1524667  0.012136839   0.11611765 
   48100    -948.7362    41.064135   -907.67206    1470.7684    4598.0249    2.1920059   0.24811478   0.12122853 
   48200   -950.25348    43.450038   -906.80344    1556.2228     4172.551    2.1966095   0.14044735   0.11011088 
   48300   -948.27363    43.310083   -904.96355    1551.2101   -2350.0702    2.1774658   0.30329386   0.12079297 
   48400   -944.18342     44.85405   -899.32937    1606.5094   -5033.1755    2.1607921  0.080250942   0.12747872 
   48500    -947.3187    44.057522   -903.26118    1577.9807    575.26418     2.178651    0.0992007   0.10343521 
   48600   -948.50399    41.775091    -906.7289    1496.2323    5392.4744    2.1959991  0.034908988   0.12286957 
   48700   -948.45218    42.630147   -905.82203    1526.8573    3516.2408    2.1902531   0.20452562    0.1105687 
   48800   -949.57018    43.453663   -906.11651    1556.3526   -6640.0947    2.1681313   0.13616645   0.11601809 
   48900   -950.17741    41.268397   -908.90902    1478.0843   -6308.5663    2.1717609   0.41743081   0.10382145 
   49000   -951.58747    38.478481   -913.10899    1378.1596    11175.088     2.220986  0.087078622   0.11641706 
   49100   -949.88656    43.114249   -906.77231    1544.1961    10307.388    2.2105258  0.026441269    0.1216428 
   49200   -948.72974    43.404434    -905.3253    1554.5894   -7534.6109    2.1597997   0.10990646    0.1159324 
   49300   -948.84847    44.537402   -904.31107    1595.1682   -10925.434    2.1534758   0.15692422   0.10652836 
   49400   -952.62555    39.084256    -913.5413    1399.8563    10942.484    2.2201013  0.025741907     0.111256 
   49500   -953.23624    46.762373   -906.47387    1674.8586    3411.3883    2.1973743  0.087085348   0.10895353 
   49600   -949.88587     44.65479   -905.23108    1599.3726   -5008.2323     2.164595    0.1236954   0.10351864 
   49700   -951.13528    43.779437   -907.35584    1568.0207   -5685.0042    2.1711122   0.57037778   0.10659146 
   49800    -956.5135    43.011327   -913.50218    1540.5098    4458.9714    2.2090661   0.30318365   0.10770266 
   49900    -949.1966    44.425017   -904.77159     1591.143    2387.9056    2.1866907   0.05587596   0.11433114 
   50000   -948.24734    42.618358   -905.62898     1526.435   -2585.6982    2.1714714  0.042510661   0.10630307 
   50100   -954.21914    43.614209   -910.60493    1562.1028   -4953.0203    2.1788994   0.16308653   0.10369801 
   50200   -952.78463    41.736593   -911.04804    1494.8534    3647.8375    2.1986769   0.34182267   0.11152383 
   50300   -948.50233    44.563597   -903.93873    1596.1064    2497.2237    2.1832373   0.22512967   0.10706519 
   50400    -951.0689    44.455763   -906.61314    1592.2442   -5869.9951    2.1644447   0.31046915    0.1088342 
   50500   -952.58523    43.715057   -908.87018    1565.7148   -5408.5502    2.1731463   0.25788111    0.1074315 
   50600   -955.72416    38.401312   -917.32285    1375.3957    9672.5852    2.2229688  0.067552052   0.10571217 
   50700   -951.42398    40.386321   -911.03766    1446.4916    3630.6001    2.1969831  0.064718842   0.10811698 
   50800   -947.17223      39.6618   -907.51043    1420.5418   -10540.702    2.1504496   0.14779936   0.11379601 
   50900   -949.67748     43.33365   -906.34383    1552.0542   -6283.0395    2.1644431  0.027454391   0.12797863 
   51000   -950.78494     49.09559   -901.68935     1758.426    14732.346    2.2178298   0.15092104   0.13160329 
   51100   -948.82416    46.521683   -902.30248     1666.238    4330.0951    2.1888192  0.039503183   0.12422102 
   51200   -953.94265    44.232751   -909.70989    1584.2567   -12363.769    2.1583023    0.1057972   0.11042335 
   51300   -949.78323    42.690647   -907.09259    1529.0242    -2284.915    2.1732524  0.021567037   0.11521791 
   51400   -947.51826    44.504748   -903.01352    1593.9987    7073.6837    2.1954133  0.072588192   0.11912643 
   51500   -950.71158     40.78254   -909.92904    1460.6827    624.65063    2.1881941   0.31584496   0.11643083 
   51600   -950.81789    40.712097    -910.1058    1458.1597   -6567.4047    2.1684367   0.13432801   0.12179316 
   51700   -950.30189    45.664412   -904.63748    1635.5336   -2415.4972    2.1741488  0.083589333   0.11426829 
   51800     -951.424    45.028119   -906.39588    1612.7439    4419.3807    2.1970785  0.025358659   0.11675409 
   51900   -952.68156    39.844545   -912.83702    1427.0871    3580.8151    2.2001318  0.037098644   0.11655234 
   52000   -947.58598    43.473856   -904.11213    1557.0759   -7876.1199    2.1621351  0.077740808   0.12449405 
   52100   -947.68717    42.129892   -905.55728      1508.94   -2379.5182    2.1743116  0.022668124   0.12135174 
   52200    -950.8667    40.611402    -910.2553    1454.5531    7381.9555    2.2032664   0.11207485   0.10990885 
   52300    -948.6353    45.823228   -902.81207    1641.2218     2819.479    2.1879917   0.04273005   0.12007468 
   52400   -948.63387     44.92454   -903.70933    1609.0341   -4711.6545    2.1697212   0.12329855   0.11258663 
   52500    -950.5748    42.035704    -908.5391    1505.5665   -5459.0918    2.1705686  0.067890149   0.11823808 
   52600   -947.56782    42.291511   -905.27631    1514.7285    6016.8039    2.1909221   0.26233559   0.12021155 
   52700   -944.72127    45.032641   -899.68862    1612.9059    8606.7515    2.1915473  0.001399852   0.11409249 
   52800    -947.7414    40.670731   -907.07067    1456.6781   -9364.2569    2.1575975   0.11543077   0.11922329 
   52900   -949.45247    42.337647   -907.11482     1516.381   -12339.102    2.1497355   0.26131031   0.10170324 
   53000   -946.04352    46.408572   -899.63495    1662.1867    13211.313    2.2065887  0.074883681    0.1352262 
   53100   -949.40794    43.640683   -905.76726     1563.051     11993.53    2.2165561   0.11847611   0.13651201 
   53200   -951.18617    41.737443   -909.44873    1494.8838   -10001.282    2.1631906   0.11774723   0.12035951 
   53300   -946.83226     42.62144   -904.21082    1526.5454   -9293.4024    2.1533127   0.16974774   0.11259672 
   53400   -950.61452    47.527112   -903.08741    1702.2488    3926.1965    2.1900238  0.084929884   0.10616993 
   53500   -950.64961       39.835   -910.81461    1426.7452    10121.108     2.213501   0.12072513   0.11294263 
   53600   -948.85535    43.836698   -905.01865    1570.0715   -5823.6209    2.1669214  0.077341179   0.11925507 
   53700   -949.00069    44.025413   -904.97527    1576.8306   -8304.9612    2.1588911   0.10699507   0.12333909 
   53800   -952.77743    41.380412   -911.39702    1482.0963    2668.4114    2.2000192  0.093036747   0.10332562 
   53900   -947.14718    42.739999   -904.40718    1530.7918    7855.3141    2.1970936   0.10051704    0.1221139 
   54000   -948.97707    44.931925   -904.04515    1609.2986   -2734.0354     2.173613  0.047296428    0.1187459 
   54100   -947.03326    37.432837   -909.60042    1340.7085   -3084.9168    2.1703565  0.091404474   0.12130088 
   54200    -948.0597    42.686683   -905.37302    1528.8822    2116.6612    2.1867013   0.15091839   0.12993716 
   54300   -947.77871    46.229739   -901.54897    1655.7816    6792.0376    2.1943944  0.035452433   0.12215739 
   54400   -951.43348    43.242591   -908.19089    1548.7928   -2525.9896    2.1794884  0.021437466   0.12105352 
   54500   -946.38509    40.717216   -905.66787     1458.343     -5664.24    2.1625257  0.049039367   0.11534774 
   54600   -947.97271    47.768312    -900.2044    1710.8877   -1057.1011    2.1761481  0.046018614   0.10931226 
   54700   -953.19116    45.856861    -907.3343    1642.4265     9140.715    2.2128591  0.074375925   0.10257796 
   54800   -947.81418    41.049171   -906.76501    1470.2324   -176.39231    2.1791137  0.016791126   0.11375845 
   54900   -946.18767    44.965408   -901.22226    1610.4978   -17532.594    2.1277138   0.67001466   0.12923413 
   55000   -952.65293    41.932075   -910.72085    1501.8549    1118.0748    2.1924563 0.0082788361    0.1196915 
   55100   -949.69067    42.452202   -907.23847    1520.4839    17372.971    2.2282483    0.1791143   0.12852558 
   55200   -947.23731    43.112169   -904.12515    1544.1215   -594.62838    2.1781891  0.054371243   0.11474946 
   55300   -947.74619    43.023142   -904.72304    1540.9329   -12532.092    2.1486086  0.065481276   0.11969606 
   55400   -954.01762    42.453891   -911.56372    1520.5444   -857.07008    2.1938649   0.12136654   0.11534649 
   55500   -946.99585    43.282218   -903.71364    1550.2121    6899.3876    2.1984681   0.14044804   0.12950567 
   55600    -947.1863    41.779318   -905.40698    1496.3837    3397.8767    2.1822014  0.090594465   0.10765179 
   55700   -952.94639    40.652997   -912.29339    1456.0429   -3766.1359    2.1813117  0.065020334  0.099983869 
   55800   -947.87948    43.465425   -904.41406    1556.7739    -2069.813    2.1737651  0.097471333   0.11017153 
   55900    -944.6911    40.537893   -904.15321    1451.9203    11109.165    2.1985846   0.15837086   0.10965001 
   56000   -952.79083    42.589686   -910.20114    1525.4081    2278.3275    2.1965239   0.18235626   0.11428144 
   56100   -945.45629    43.244355   -902.21193     1548.856   -4623.2668    2.1591765   0.37393511   0.12572397 
   56200   -946.69958    43.181335   -903.51825    1546.5988   -614.43646    2.1750488   0.22201645   0.11051632 
   56300   -950.62432    42.388962   -908.23536    1518.2189     6451.644     2.201379  0.092065755   0.10721197 
   56400   -946.69945    42.732372   -903.96708    1530.5186    4376.6493    2.1880143   0.13719502    0.1181811 
   56500   -946.06082    44.286717    -901.7741    1586.1896   -7858.5675    2.1527424   0.10201967   0.11124567 
   56600   -951.49222    42.274217     -909.218    1514.1091    -4313.918    2.1767435  0.047208439    0.1068707 
   56700   -948.49259    44.122726   -904.36987     1580.316    12194.096    2.2115244   0.17044573    0.1109974 
   56800    -943.5576    42.731002    -900.8266    1530.4695    6693.0179    2.1895974 0.0056293147   0.11548412 
   56900   -948.76084    39.245781   -909.51506    1405.6416    -9628.478    2.1599112   0.12017453   0.11300322 
   57000   -949.82924    42.124707   -907.70453    1508.7542   -10761.668    2.1577373   0.11401858   0.12002424 
   57100   -945.23122    43.119783   -902.11143    1544.3943    11228.957    2.2035007   0.40936247   0.12852903 
   57200   -953.26342    44.025023    -909.2384    1576.8167    7107.4002    2.2115512  0.067608047   0.11666498 
   57300   -950.71231    41.024258   -909.68805    1469.3402   -5160.7863    2.1757289   0.14121953   0.10441439 
   57400   -947.40275    43.733463   -903.66929     1566.374   -6678.0426     2.165331  0.011675674   0.11512634 
   57500   -952.08952    44.386421    -907.7031    1589.7606   -350.64811    2.1914621  0.015828494   0.11152788 
   57600   -949.38959    38.901489    -910.4881    1393.3103    6916.6174    2.2031307  0.029578294   0.10676021 
   57700   -945.59254    43.635564   -901.95698    1562.8677   -2788.6737    2.1710492    0.1710156   0.11973548 
   57800   -948.66353    41.777485   -906.88604     1496.318   -2854.1414    2.1751631   0.13742946   0.11038523 
   57900   -952.12091    43.126325   -908.99459    1544.6286    528.58694    2.1911286   0.15116327   0.10288937 
   58000   -945.34805    45.409906   -899.93814    1626.4182    2322.7103    2.1805452   0.12684789   0.12878946 
   58100   -950.90051    45.008564   -905.89194    1612.0435   -638.97275     2.187861  0.043512742   0.11636862 
   58200   -950.31224    41.491444    -908.8208    1486.0731   -3132.3217    2.1804499   0.15314895   0.11555872 
   58300   -943.77149    43.234988    -900.5365    1548.5205    794.82244    2.1721326   0.13359328   0.13466065 
   58400   -950.50884    44.639951   -905.86889    1598.8412    4178.2249    2.1976044    0.2368759   0.11821649 
   58500   -949.93278    41.598727   -908.33406    1489.9155    1452.4759    2.1874404  0.020015852   0.11547229 
   58600    -947.2316    44.485786   -902.74581    1593.3195   -7571.3346    2.1568361   0.21401231   0.11514504 
   58700   -947.69428    43.741651   -903.95263    1566.6673   -1873.8741    2.1730526   0.11062336   0.10148488 
   58800   -951.43229    42.687424   -908.74486    1528.9087    10261.617    2.2121746    0.1584705   0.11839023 
   58900   -945.88598    42.636874    -903.2491    1527.0982    6017.7259    2.1876282  0.005258831   0.11945417 
   59000   -946.85401    41.977851   -904.87616    1503.4944   -11883.568    2.1502511 0.0041733318   0.11966583 
   59100    -953.0595    41.211714   -911.84779    1476.0541   -7411.8649    2.1767764  0.099512534   0.12276316 
   59200   -949.85411    45.870599   -903.98351    1642.9185    9718.1816    2.2071706  0.010731781   0.12132996 
   59300   -947.60525    43.015112   -904.59014    1540.6453    5732.6626    2.1935439   0.26103707   0.12240582 
   59400   -952.31902    40.432268   -911.88675    1448.1372   -8429.9633     2.169097   0.41498183   0.10976795 
   59500   -947.56509     42.54425   -905.02084    1523.7808   -3457.8554    2.1657879  0.085484387     0.112089 
   59600   -945.90748    42.865097   -903.04238    1535.2723    7987.2592    2.1923726  0.039307685   0.11169993 
   59700    -952.1387    42.506704   -909.63199     1522.436    4862.2908     2.200892   0.10005324   0.11805034 
   59800   -947.48994    43.856393   -903.63355    1570.7769   -3504.0796    2.1705087    0.2303716   0.12234222 
   59900    -944.4815    41.578814   -902.90269    1489.2023   -1737.7585    2.1680077  0.069770669   0.11764169 
   60000   -952.35679    43.393503   -908.96329    1554.1979    1296.1048    2.1934726  0.071089802   0.11667122 
   60100   -954.10967    49.113528   -904.99614    1759.0685   -569.31752    2.1901235   0.01654811     0.118345 
   60200   -948.10543    46.362933    -901.7425    1660.5521   -3022.0588    2.1675054   0.11840255   0.12029734 
   60300   -951.75991     42.28614   -909.47377    1514.5362   -3640.6849    2.1791186   0.24461723    0.1187264 
   60400   -947.16391    42.390887   -904.77303    1518.2878    3925.8116    2.1878677   0.38276426   0.10797209 
   60500   -946.92766    45.525179   -901.40248    1630.5468    2274.2666     2.184059  0.043562638   0.11883641 
   60600   -949.64693    39.760757   -909.88617    1424.0861    932.25184    2.1900164  0.026638321   0.11351845 
   60700   -947.96364    42.348925   -905.61472    1516.7849   -5483.6761    2.1706037   0.28195179   0.13213135 
   60800   -945.94796    45.037464   -900.91049    1613.0786    -501.5858    2.1735758   0.10413598   0.13477689 
   60900   -954.01114    44.647359   -909.36378    1599.1065    9583.2925     2.212811   0.23688318  0.098117519 
   61000   -946.87584    39.561412   -907.31442    1416.9463    334.60927    2.1809586  0.013900067   0.11383029 
   61100   -947.75452    44.255593   -903.49893    1585.0749   -13383.221    2.1449308  0.058737089   0.11108729 
   61200   -952.46732    41.948719    -910.5186     1502.451    285.58176    2.1896105   0.14307107  0.096432579 
   61300   -949.38063      40.8918   -908.48883     1464.596    12505.546    2.2160397  0.091234155   0.11307592 
   61400   -949.90528     46.61162   -903.29366    1669.4592   -1632.0434    2.1802706  0.048103072   0.11287118 
   61500   -947.31259    39.500682   -907.81191    1414.7712   -8528.1596     2.157588  0.037278937   0.11186499 
   61600    -953.3297    43.060678   -910.26903    1542.2773   -2834.4856    2.1876812 0.0076027547   0.11109617 
   61700   -948.01937    46.157936   -901.86144    1653.2099    8818.0435    2.1990178   0.23043048   0.11329147 
   61800   -947.22267    40.871511   -906.35116    1463.8693    3704.1753    2.1914667   0.31594668    0.1128963 
   61900   -953.03723    42.095341   -910.94189    1507.7025    -7958.542    2.1729189   0.11190164   0.11001787 
   62000   -946.42477    44.389029   -902.03574     1589.854   -3928.1309    2.1685398   0.10218662   0.11925107 
   62100   -946.53656    41.765419   -904.77114    1495.8859    9043.7679    2.2011144   0.09358658   0.11213043 
   62200   -948.70639    39.524691   -909.18169    1415.6311    3607.2194    2.1946998   0.25291891   0.11179706 
   62300   -949.70498    48.350728   -901.35426    1731.7477   -7257.8771    2.1632203   0.30690364   0.10745658 
   62400   -949.57739    44.804085    -904.7733    1604.7198   -2860.7111    2.1795231  0.042767796   0.11956146 
   62500   -950.48521     41.80467   -908.68054    1497.2917    3847.1689    2.2005594   0.15169421   0.13390302 
   62600   -946.19758     43.99155   -902.20603    1575.6178    3646.3086    2.1858625  0.029333851   0.12471088 
   62700   -948.56158      43.9664   -904.59518     1574.717   -3597.6864    2.1751005   0.10869723   0.11592245 
   62800   -949.60753    40.164671   -909.44286    1438.5529   -1320.8694    2.1857946   0.30558755   0.12216882 
   62900   -946.44014    43.497249   -902.94289    1557.9137    2472.9623    2.1860832  0.069026417   0.12352154 
   63000   -951.29569    45.276376   -906.01931    1621.6356   -1689.6186     2.186408   0.11382377     0.125616 
   63100   -953.57061    43.206756   -910.36385    1547.5093   -1705.3365    2.1905173  0.056618994   0.11644251 
   63200   -948.75788    45.417637   -903.34024     1626.695   -1599.5155    2.1797074   0.43480264   0.10177261 
   63300   -948.20377    42.234417   -905.96936    1512.6836    912.95925    2.1856935    0.3230652   0.12441601 
   63400   -951.94282    40.658171   -911.28465    1456.2282   -330.96322    2.1938278   0.59404415   0.11938056 
   63500   -948.89789    45.552147   -903.34575    1631.5127   -1856.0979    2.1780621  0.061226805   0.12444645 
   63600   -949.13993    42.952747   -906.18718    1538.4116   -1232.5549    2.1832135   0.20072151   0.12415671 
   63700   -952.26192     40.91444   -911.34748    1465.4069     1612.145    2.1970208  0.030922629   0.12595062 
   63800   -948.03917    45.521985   -902.51719    1630.4324   -285.96906    2.1773815  0.055550699   0.11811114 
   63900   -952.89208    47.327794   -905.56429    1695.1099   -1676.7105    2.1877482   0.17357679   0.12273406 
   64000   -954.07971     44.14388   -909.93583    1581.0737   -320.50598    2.1941537   0.25914945   0.10996399 
   64100   -949.29708    48.182432   -901.11465      1725.72   -4114.4099    2.1746168  0.061881394   0.11614321 
   64200   -950.39555    45.484814   -904.91073    1629.1011   -827.54022     2.184821   0.14985639   0.12083588 
   64300   -952.69411    44.074654   -908.61946    1578.5943    1089.3224    2.1949956   0.12925872   0.11057615 
   64400   -946.41366    45.124098   -901.28957    1616.1816    24.099997    2.1788731  0.087660956    0.1257933 
   64500   -947.02469    43.141073   -903.88362    1545.1568   -1596.5943    2.1818345  0.034496449   0.11503511 
   64600   -947.67399    38.958473   -908.71552    1395.3512    1846.2963    2.1870291     0.163054   0.12393175 
   64700    -946.7843    44.158478   -902.62583    1581.5966    2635.0811    2.1867364   0.17056254   0.13200431 
   64800    -949.7599    45.850148   -903.90975     1642.186    692.85779    2.1852147   0.10395118   0.12131813 
   64900   -950.44523    40.625049   -909.82018    1455.0419   -2807.0938    2.1843506   0.26183938    0.1154584 
   65000     -950.093    45.882524   -904.21047    1643.3456   -1025.3977    2.1819091   0.38616055   0.11412945 
   65100   -947.49668    43.899422   -903.59726    1572.3181    4305.5867    2.1896961   0.29999813   0.11105463 
   65200   -950.30659    39.213893    -911.0927    1404.4995    3859.4983     2.201144   0.07971776   0.12075689 
   65300   -951.23351    46.510563   -904.72295    1665.8397     -5509.79    2.1722214   0.11052177    0.1175173 
   65400   -947.11835    42.479936   -904.63841    1521.4772   -4896.6216    2.1682807  0.046800147   0.11646172 
   65500   -950.07246    38.452839   -911.61962    1377.2412    7314.3528    2.2066443  0.017320504    0.1158241 
   65600   -949.44861    45.401797   -904.04681    1626.1277    4354.1704     2.197162  0.043894978   0.10202501 
   65700   -947.72748    42.962321   -904.76516    1538.7545   -4594.1414    2.1703319  0.026236576   0.12625675 
   65800   -948.98809    38.708994    -910.2791    1386.4158   -8717.0647    2.1669684   0.15770655   0.13060144 
   65900   -950.96843    45.341496   -905.62693     1623.968    3458.6317    2.1976734   0.45103684   0.12161815 
   66000   -947.13818    45.538432   -901.59974    1631.0215    10367.198    2.2035908   0.11439655   0.12199187 
   66100    -950.8528    42.423786   -908.42901    1519.4662   -5691.9342    2.1719191   0.15425725  0.094503072 
   66200   -943.40653    38.026333   -905.38019    1361.9653   -7825.2222    2.1548396  0.049833809   0.11783472 
   66300   -943.24136    43.341367   -899.89999    1552.3306    2907.6104    2.1786732   0.15114998   0.12204765 
   66400   -948.66387    41.517244   -907.14662    1486.9971    10823.629     2.208986  0.026931356   0.11652963 
   66500    -947.2168    39.963325   -907.25348    1431.3414     187.8229    2.1820266  0.006337522   0.12127752 
   66600    -945.2847    45.362206   -899.92249    1624.7097   -6581.3786    2.1535749   0.20201777   0.11735198 
   66700   -949.83082    41.051228    -908.7796    1470.3061    1577.4212     2.188899   0.21649198   0.10392448 
   66800   -948.02484     40.74792   -907.27692    1459.4427    3210.0962    2.1913901   0.11772038   0.11798198 
   66900   -944.95511     42.71093   -902.24418    1529.7506   -1801.8862    2.1719554  0.074630117   0.12962355 
   67000    -951.8452    44.082242   -907.76296     1578.866   -5409.0791      2.17519   0.11838081   0.11313707 
   67100   -947.30331    38.083374   -909.21994    1364.0083    2956.6541    2.1874238  0.059884244   0.11559097 
   67200   -946.32955    43.000093   -903.32946    1540.1074    5752.6148    2.1896388   0.22758599   0.11647718 
   67300   -951.23488    44.561786   -906.67309    1596.0416   -188.29698    2.1844502  0.058747737    0.1135739 
   67400   -953.70266    41.971688   -911.73098    1503.2736    -4407.525     2.185933  0.024311272   0.11336979 
   67500   -945.15873    40.955723   -904.20301    1466.8855    1208.3217    2.1818461   0.12142138   0.10650241 
   67600    -949.3125    43.717477   -905.59503    1565.8015    3062.1298    2.1912268    0.1599444   0.11968166 
   67700   -956.11899    43.699383   -912.41961    1565.1534    -785.7458    2.1957336   0.16028645    0.1052334 
   67800    -947.0919    43.285659   -903.80624    1550.3353   -6008.0772    2.1605032  0.040508666   0.12690491 
   67900   -947.74099    42.707489    -905.0335    1529.6274    1329.5887      2.18291  0.057870635   0.11314829 
   68000   -954.50321    45.439177   -909.06404    1627.4665     7370.814    2.2087938   0.01565154   0.10343425 
   68100   -946.73124    45.078361   -901.65287    1614.5434   -233.82519    2.1749046   0.14908301   0.11336503 
   68200   -946.67031    43.758987   -902.91132    1567.2882   -6072.7408    2.1603472  0.056012821   0.11829761 
   68300   -952.92766    44.711996   -908.21566    1601.4216   -3876.0315    2.1794503   0.14629066   0.10675731 
   68400   -950.97789    45.643307   -905.33458    1634.7777    8644.3559    2.2037001  0.049801794   0.10515745 
   68500   -946.56623    47.200099   -899.36613    1690.5364   -1030.7604    2.1739604  0.065310832   0.11147286 
   68600   -946.84111    38.920533   -907.92058    1393.9923   -8465.4907    2.1643542  0.050960861   0.10939363 
   68700   -947.88107    41.182498   -906.69857    1475.0077   -3211.0453    2.1755516  0.027665643   0.12438602 
   68800   -944.53538    44.862954   -899.67243    1606.8283    9453.0553    2.1957633 0.0016654855   0.11676232 
   68900   -950.52276    42.694456    -907.8283    1529.1606    2764.5151    2.1956893   0.25962534    0.1217035 
   69000   -948.94244    40.571932   -908.37051    1453.1395    -10378.18     2.158224  0.036641348   0.12079468 
   69100   -947.94502    44.785834   -903.15919    1604.0662   -6570.7454    2.1677968  0.040813184   0.12938325 
   69200   -952.31082    43.455663   -908.85516    1556.4243    8430.7371     2.212285   0.12808641   0.11840776 
   69300   -950.72419    40.764385   -909.95981    1460.0324    3493.6839    2.1982649   0.10619861   0.10482496 
   69400   -946.27499    42.144591    -904.1304    1509.4664   -3732.7426    2.1655754  0.072503665   0.10212978 
   69500   -949.48719    43.340972   -906.14622    1552.3164   -3903.8068     2.174694  0.059167879  0.097184153 
   69600   -950.02604    38.367771   -911.65827    1374.1944    5267.6397    2.2026887   0.19751367   0.11025774 
   69700   -947.24385     43.82158   -903.42227    1569.5301   -244.73056    2.1825376   0.12189006   0.12152343 
   69800   -946.79516    40.847924   -905.94724    1463.0245   -350.27647    2.1778887   0.10285381   0.11990016 
   69900   -952.87714    41.498236   -911.37891    1486.3163    -2155.657    2.1898456 0.0046203545   0.11078259 
   70000   -946.27488     43.54598    -902.7289    1559.6591    -990.0765    2.1800714   0.11243006   0.13226709 
   70100   -948.72818    43.990358   -904.73782    1575.5751    1764.8681    2.1864717   0.12466465   0.12615802 
   70200   -952.55874     42.73751   -909.82123    1530.7026   -2028.8342    2.1866742   0.17513704   0.13222043 
   70300   -944.96422    43.007642   -901.95658    1540.3778   -1213.3784    2.1733706  0.067101449    0.1331783 
[...]
  186800   -950.02985    47.405203   -902.62464    1697.8825    7467.5709    2.2042514    25.311696   0.12826295 
  186900   -949.73206    40.461301   -909.27076    1449.1771   -7488.5635    2.1671161    23.764811   0.12378201 
  187000   -950.63499    40.928649   -909.70634    1465.9158   -12868.534    2.1571438     23.38942    0.1192924 
  187100   -950.35129    47.002373   -903.34892    1683.4546    5224.6397    2.2029783     23.91036   0.13572281 
  187200   -947.51106    41.538688   -905.97238    1487.7651    12691.039    2.2147867    24.598822   0.14411069 
  187300   -954.32293      41.8174   -912.50553    1497.7476   -6649.3961    2.1823342    21.819817   0.12578625 
  187400   -947.70816    44.202248   -903.50591    1583.1642     -8960.91    2.1568548    25.480628   0.12706952 
  187500   -948.69544    44.222703   -904.47274    1583.8969    5267.5845    2.1955792    24.948928   0.12991246 
  187600   -950.72521    41.868431   -908.85678    1499.5754    6646.6059    2.2064642     24.19334   0.12815438 
  187700   -945.41572    43.795997   -901.61972    1568.6138   -1819.7324    2.1742536    25.208396    0.1230967 
  187800   -945.84818    43.059623   -902.78855    1542.2395   -4697.0129    2.1680496    21.129918   0.12366436 
  187900    -946.6625    38.545408   -908.11709    1380.5567    3477.4712    2.1886822    24.772101   0.12724763 
  188000   -949.67412    45.379045   -904.29508    1625.3128    3821.3827    2.1968111    20.946924    0.1235734 
  188100   -948.61589    48.102869   -900.51302    1722.8703   -2966.0562    2.1708374    19.847605   0.12916942 
  188200   -952.31916    43.340279   -908.97888    1552.2916   -6686.7914    2.1739332    20.653244   0.11965865 
  188300   -949.25315    43.592245   -905.66091    1561.3161    840.41581    2.1880056    25.099618   0.12358641 
  188400   -946.19169    46.038609   -900.15308     1648.936    5685.6787    2.1904109     25.73419   0.11808869 
  188500   -951.34474     42.34196   -909.00278    1516.5354   -734.92209    2.1884495    23.858491   0.12226853 
  188600    -948.4057    40.666719   -907.73898    1456.5344    -10946.99    2.1536239    20.918574     0.117068 
  188700   -947.10453     43.51641   -903.58812       1558.6   -615.75734    2.1756005    21.071494   0.11861243 
  188800   -951.66111    42.452388   -909.20873    1520.4906    16504.712    2.2317102    20.052744   0.12028718 
  188900   -951.26048    40.685241   -910.57524    1457.1978    3821.7804    2.1944679    22.367028   0.10828608 
  189000   -947.83386     42.56751   -905.26635    1524.6139   -16584.195    2.1415818    21.213138   0.13363651 
  189100   -952.86615    48.277287   -904.58886    1729.1174   -6424.0593    2.1717871    23.345369    0.1100436 
  189200   -952.45519    40.912306   -911.54288    1465.3304    12338.152    2.2215576    23.511797   0.11860309 
  189300   -947.84149    43.103079   -904.73841     1543.796    2394.9929    2.1853893    23.608265   0.11914391 
  189400   -950.40339    45.902549   -904.50084    1644.0628   -7000.6117    2.1691842    25.112009   0.11574375 
  189500   -949.56654    40.817139    -908.7494    1461.9219   -796.86901    2.1832273    20.673134   0.12040131 
  189600   -950.08557    41.547377    -908.5382    1488.0764    8533.7703    2.2031897    21.320106   0.10657409 
  189700   -944.03244     42.72075   -901.31169    1530.1023   -1341.2407    2.1713443    22.710848   0.13792801 
  189800   -946.89816    39.761169   -907.13699    1424.1009   -4769.6644    2.1709399    19.559384   0.11452483 
  189900    -948.4739    40.815823   -907.65808    1461.8748    3050.7376    2.1897518    21.273595   0.12022945 
  190000   -945.78535    47.117957   -898.66739    1687.5944    5014.8737    2.1862251    21.661399   0.11959462 
  190100   -948.76769    42.911346   -905.85635    1536.9288     2680.389    2.1879964    23.263009   0.12083315 
  190200   -949.80501    41.713505   -908.09151    1494.0265   -5646.6391    2.1718548    23.289207   0.12636245 
  190300   -948.26775    47.420935   -900.84682    1698.4459   -4561.3642     2.167836    24.082443   0.11357274 
  190400   -949.52943      44.4883   -905.04113    1593.4096    9594.3996    2.2063618    22.396822   0.12213492 
  190500   -950.68898    42.405929   -908.28305    1518.8266    1625.2027    2.1936546    21.552436   0.12390567 
  190600   -947.94669    42.946334   -905.00035     1538.182   -11344.761    2.1531556    20.580518   0.12456486 
  190700     -948.104     46.65828   -901.44572    1671.1304     -6729.63    2.1604917    21.859706   0.11925298 
  190800   -951.57126    41.171032   -910.40023     1474.597     17614.31     2.233168    22.031143   0.11952507 
  190900   -949.33133    43.916388   -905.41494    1572.9257    6838.8473    2.1970631    22.109898   0.10531481 
  191000   -948.60062    43.602994   -904.99763    1561.7011   -12094.813    2.1497242    22.581329   0.11226792 
  191100   -950.72317    39.566121   -911.15705     1417.115   -5926.6018     2.175852    24.045746   0.11116295 
  191200   -952.89115     43.77833   -909.11282     1567.981     7400.139    2.2100368    25.022458  0.097975855 
  191300   -948.92817    45.459481   -903.46869    1628.1938    3584.4489    2.1909888    22.315957   0.11837489 
  191400   -946.26014    38.007721   -908.25242    1361.2987   -2759.7533    2.1730559    22.052909   0.12074372 
  191500   -949.54406     39.18762   -910.35644    1403.5584   -2579.4518    2.1818628    22.486244   0.12371298 
  191600   -949.04101    47.320573   -901.72043    1694.8513    143.01725    2.1836087    20.973178   0.12653652 
  191700   -949.13992    43.392652   -905.74727    1554.1674    4389.1993    2.1927051    21.980584   0.11504651 
  191800   -950.67404    41.135757   -909.53828    1473.3336   -1514.7718    2.1818375      25.2797    0.1141862 
  191900   -941.97906    41.451488   -900.52757     1484.642    -2309.591    2.1614633    23.551807   0.11887105 
  192000   -949.11195    44.788364   -904.32359    1604.1568    4580.6138    2.1929495    24.407388   0.11770988 
  192100   -951.35772    43.405642   -907.95208    1554.6327    2661.3732    2.1937938    22.538905   0.11420766 
  192200   -944.23224    41.706523   -902.52572    1493.7764   -3266.9038    2.1618598    26.284438   0.11201956 
  192300   -944.57381    42.747466   -901.82634    1531.0592   -5675.2717    2.1592344    23.232721   0.11685016 
  192400   -948.48165    40.513115   -907.96853    1451.0329    10535.921    2.2051027     22.15618   0.11975398 
  192500   -947.77894    44.069192   -903.70975    1578.3986    11322.109    2.2049888    21.433213   0.11593727 
  192600    -947.8034    44.604763   -903.19864    1597.5809   -12428.107    2.1454588    24.410496   0.11792831 
  192700   -951.56395     39.73191   -911.83204    1423.0529   -9627.1265    2.1631922    21.548971   0.10704976 
  192800    -947.3138    41.178927   -906.13488    1474.8798    10567.869    2.2061002    24.439685   0.11640991 
  192900   -947.29242    44.463963   -902.82846    1592.5379    9779.8735    2.2013196    22.387339   0.11281807 
  193000   -949.76307    40.131215   -909.63185    1437.3546   -6667.6836    2.1685498    23.577915   0.11338384 
  193100   -952.14976    42.944564    -909.2052    1538.1185   -8315.5064     2.170849    22.139625   0.11660927 
  193200   -949.96351    47.047065   -902.91644    1685.0552     747.6963    2.1878992    25.256957   0.11548787 
  193300   -950.04081    41.945933   -908.09488    1502.3512    4469.9396    2.1983085    23.115952   0.13445999 
  193400   -950.63495    39.552529   -911.08242    1416.6282   -797.89739    2.1892684    23.817581   0.13542673 
  193500   -946.72311    44.040528   -902.68259     1577.372   -4422.4323    2.1669776    22.761774   0.12722318 
  193600    -951.4794    44.659985   -906.81942    1599.5587   -454.44607    2.1878759     24.50359   0.11958456 
  193700   -949.68355    40.428298   -909.25525     1447.995    6787.0114     2.203729    21.854713   0.10596019 
  193800   -945.28983     45.05591   -900.23392    1613.7393   -1465.0347     2.171844    25.972195   0.11975495 
  193900   -946.34146    39.988708   -906.35275    1432.2505   -3254.6374    2.1726748    25.739076   0.12062279 
  194000   -953.57743    45.416607   -908.16082    1626.6582   -910.86928    2.1892702    23.673455   0.11090031 
  194100   -946.43718    46.856846   -899.58034    1678.2423    6309.8015    2.1904229    22.332949   0.11864377 
  194200   -947.27442    42.256204   -905.01822     1513.464    3191.0648    2.1878935    23.287565   0.13310815 
  194300   -951.22881    42.413824   -908.81499    1519.1094   -11739.089    2.1593062    22.296774   0.11579875 
  194400   -949.41915    46.830448    -902.5887    1677.2968    -6128.108    2.1687237    24.098489   0.12316493 
  194500   -950.40699    46.285362   -904.12163    1657.7738     11900.26     2.215836    25.228038   0.12466599 
  194600   -949.18764    40.044684   -909.14296    1434.2554    6428.3853     2.201985    23.786397   0.10724679 
  194700   -949.27798     43.92267   -905.35531    1573.1508   -10080.477    2.1540918    25.966088   0.10921768 
  194800    -947.4917    44.598731   -902.89297    1597.3648   -7134.1285    2.1621291    20.284199   0.12080938 
  194900   -953.49142    42.358843   -911.13257    1517.1402    10266.409    2.2192684    26.145139   0.11220523 
  195000   -951.57363    46.531299   -905.04233    1666.5824    2912.9435    2.1937549     24.15243   0.10619939 
  195100   -948.14003     43.57249   -904.56754    1560.6086   -7171.5624    2.1609428    21.494609   0.12166817 
  195200   -952.13341    41.159881   -910.97353    1474.1977   -4443.7933    2.1778932    24.481793   0.10872903 
  195300   -948.74779    41.538909   -907.20888    1487.7731    6051.4694    2.1976141    24.397813   0.12711533 
  195400   -945.67713     42.54374   -903.13339    1523.7625    6217.3226    2.1890177    23.587028   0.12981077 
  195500   -951.43476    42.282664   -909.15209    1514.4117   -4839.9362    2.1758509    20.932169    0.1084527 
  195600   -948.30241    41.959363   -906.34305    1502.8322   -1776.0869    2.1757411    21.704145   0.10879256 
  195700   -945.67243    44.538956   -901.13348    1595.2239     3075.709    2.1821733     24.51996   0.11121619 
  195800   -949.67643    42.307499   -907.36893    1515.3012    3228.6419     2.190326     23.90906   0.11200748 
  195900   -948.59131    41.258424   -907.33289    1477.7271   -2050.4474    2.1808547    20.825717   0.11426331 
  196000   -943.10215    43.571489   -899.53066    1560.5727   -3402.3457    2.1620855    25.786708   0.12692718 
  196100   -953.56495    45.801217   -907.76373    1640.4335    1794.3959     2.193426    22.919237   0.10591246 
  196200   -950.39196    43.468584   -906.92338     1556.887     3266.268    2.1941844    21.292317   0.11014585 
  196300   -944.47603    43.925608   -900.55043     1573.256   -3176.4635     2.164199    27.799922   0.12696822 
  196400   -948.76001    40.977184   -907.78283    1467.6541   -5947.2974    2.1676459    23.045414   0.11140088 
  196500     -953.125    44.947793   -908.17721     1609.867    680.51177    2.1930017    24.252555   0.11373466 
  196600   -947.54955    45.743794   -901.80575    1638.3768    13673.486    2.2113162    23.527648   0.10255985 
  196700   -948.45708    41.459407   -906.99768    1484.9256   -2461.7255    2.1738743    23.401654  0.099398801 
  196800   -953.74329    42.440067   -911.30323    1520.0493   -12783.159    2.1564726     24.56701   0.11308177 
  196900   -948.25501    43.994189   -904.26082    1575.7123    1474.7962    2.1866517    21.577224   0.12107145 
  197000   -949.88961    44.666204    -905.2234    1599.7814    11682.751    2.2124079    20.708178   0.11255961 
  197100   -953.92549    41.762966   -912.16253     1495.798    13.178806    2.1924006    22.898082  0.099772487 
  197200   -946.14888     42.49043   -903.65845    1521.8531   -8805.3215     2.154783    24.891735   0.11312986 
  197300    -947.2306    42.331148   -904.89946    1516.1482    409.43835    2.1811394    25.377073   0.11384825 
  197400   -951.36092    41.967471   -909.39345    1503.1226    9421.8785    2.2099705      22.0031   0.12194811 
  197500   -950.36643     48.67444   -901.69199    1743.3419   -61.918583     2.179728    24.842819    0.1119473 
  197600   -947.36855    43.888115   -903.48044    1571.9131   -3715.9626    2.1653534    21.774615   0.10403313 
  197700   -949.55224    40.836641    -908.7156    1462.6204   -867.01817     2.180068    20.464199     0.109497 
  197800   -949.85407    45.452515   -904.40156    1627.9443    5571.6389    2.1951212    19.013162   0.11629683 
  197900   -946.64294    45.407103   -901.23584    1626.3177    1846.5236    2.1812998    23.332227   0.12410532 
  198000   -949.59459     40.86914   -908.72545    1463.7844   -4759.5997    2.1727147    24.145548    0.1059183 
  198100   -950.88288    45.611094   -905.27178     1633.624   -3529.5608    2.1755741    20.267677    0.1088093 
  198200   -947.08257    47.768985   -899.31359    1710.9118    3345.2399    2.1863742    22.808412    0.1148044 
  198300   -951.40068     42.89422   -908.50645    1536.3154    6827.6592    2.2053972    22.984982   0.11474234 
  198400   -946.61451    40.222043   -906.39246    1440.6077   -8168.6081    2.1549561    23.141009   0.12422292 
  198500   -947.94332    44.585086   -903.35823    1596.8761   -15021.498    2.1420718    22.240151   0.12092224 
  198600   -953.60602    42.539947   -911.06607    1523.6266    14931.435    2.2310645     19.17552   0.11278033 
  198700   -953.99515     45.51845    -908.4767    1630.3058    12104.403    2.2208645    21.157009  0.099361654 
  198800   -949.40658    44.445688   -904.96089    1591.8834   -9219.7784    2.1565811    25.691904   0.10508625 
  198900   -944.68256    39.145948   -905.53662    1402.0659   -5538.7994    2.1595703    20.208258   0.12031408 
  199000   -954.44238    41.890492   -912.55189    1500.3655    5888.9427    2.2104408    21.091665   0.10832083 
  199100   -950.65011    46.700127   -903.94998    1672.6292    3181.4835    2.1913106    24.232523   0.10702414 
  199200   -947.78563    42.687915   -905.09772    1528.9263   -3360.5618     2.171824    21.188252   0.11049348 
  199300   -950.41531      40.6263   -909.78901    1455.0867   -2884.9255    2.1757066    26.814124   0.10296727 
  199400   -949.66317    40.716832   -908.94633    1458.3293    5270.7266     2.198736    20.118889   0.11854067 
  199500   -949.76166    47.153001   -902.60866    1688.8495    1897.6803    2.1881214    19.228019   0.12102387 
  199600   -950.68779    43.808409   -906.87938    1569.0583   -5003.3801      2.16997    22.178095   0.10251097 
  199700   -949.95624    42.058301   -907.89794    1506.3758   -4337.6456    2.1754552     20.50672   0.11041195 
  199800   -945.57592    47.265076   -898.31085    1692.8636    4419.3971    2.1801972    24.891974   0.10844675 
  199900   -950.07826     45.47757   -904.60069    1628.8416    7439.5482    2.2010434    24.319721    0.1097757 
  200000   -949.71571    41.782603   -907.93311    1496.5013   -4827.5175    2.1722892    24.455996   0.10864958 
  200100   -946.05928    43.854893   -902.20439    1570.7232   -9599.4605    2.1503175    24.175097   0.10365959 
  200200   -948.80506     49.03069   -899.77437    1756.1015     1189.206     2.183806    19.939541   0.10646738 
  200300   -955.75101    49.377391   -906.37362    1768.5191    11411.696    2.2203361    22.322249   0.10445506 
  200400   -949.72243     43.65621   -906.06622    1563.6071   -2184.1923    2.1762272    23.992847   0.11324347 
  200500   -947.98724    46.015794   -901.97145    1648.1189   -18567.277    2.1302648    22.510223   0.11486221 
  200600   -954.07614    42.013348   -912.06279    1504.7658    2506.0773    2.1963393    23.398619   0.10073742 
  200700   -952.20314     43.74853   -908.45461    1566.9137    9347.0408    2.2127482    24.140873  0.095270921 
  200800    -949.4742    44.509076   -904.96512    1594.1537   -773.92894    2.1794317    22.277591    0.1050057 
  200900   -948.13361    43.495358   -904.63825     1557.846   -8145.2418     2.165306    23.728483   0.11679464 
  201000   -950.19095    37.482335   -912.70861    1342.4813     4732.869    2.1986639    22.647379   0.11764361 
  201100   -949.88278    44.638445   -905.24434    1598.7872    2824.9602    2.1885349    21.599544  0.098999677 
  201200   -946.33731    41.487641   -904.84967    1485.9368    1116.4862    2.1806056    22.443737  0.098060673 
  201300   -950.40523    38.411811   -911.99342    1375.7718   -356.48566    2.1848795     23.71703   0.11078894 
  201400   -948.83184    41.921208   -906.91063    1501.4657   -846.29449    2.1813607    23.631714   0.11438034 
  201500   -945.69667     41.65603   -904.04064    1491.9679    6087.7768     2.191616    22.821129   0.12940844 
  201600   -948.12947    39.555037   -908.57443     1416.718    2775.2027    2.1874108    20.952062   0.10411212 
  201700   -950.22581    40.595515    -909.6303    1453.9841   -3892.4397    2.1744392    24.180032   0.11146091 
  201800   -948.45759    46.707614   -901.74998    1672.8974   -6117.5378    2.1654542    26.446687   0.11635959 
  201900   -946.85578    40.958481    -905.8973    1466.9843    7345.7094    2.1976156    24.099561   0.12371231 
  202000   -948.34324    40.207171   -908.13607     1440.075    8024.8016    2.2029016    24.508235   0.12628544 
  202100   -945.92502    47.000996   -898.92403    1683.4052   -10945.337    2.1476707    21.306996   0.11010788 
  202200   -950.81644    46.216352   -904.60009    1655.3021   -7671.4782     2.161908    21.875907   0.10810979 
  202300   -949.30938    42.567308   -906.74207    1524.6066     10203.84    2.2052267    23.344342   0.10582275 
  202400   -949.66197    44.439751   -905.22222    1591.6707    8902.8551    2.2025391    23.285507   0.11343849 
  202500   -943.52035    44.535632   -898.98471    1595.1048   -10895.648     2.141144    22.988619   0.12787406 
  202600   -949.18409    40.405647   -908.77845    1447.1837   -5458.7443     2.168913    22.524204   0.10780086 
  202700   -952.09093    45.620682   -906.47024    1633.9674    7132.0461    2.2045608    22.940968    0.1052936 
  202800   -950.19081    46.868334   -903.32247    1678.6537    4537.6475    2.1908947    24.037951   0.11868523 
  202900   -944.21206    44.372058      -899.84    1589.2462   -7398.8716    2.1556462    23.424985   0.12469122 
  203000   -949.89467    40.367976   -909.52669    1445.8345    684.21541    2.1889156    22.806246    0.1097738 
  203100   -951.78727    45.142083   -906.64519    1616.8257    3629.1402    2.1950254    24.463458   0.12087587 
  203200   -946.93309    43.097041   -903.83605    1543.5797   -104.85276    2.1798324    21.772868   0.11374677 
Loop time of 142.738 on 1 procs for 200000 steps with 217 atoms

Performance: 363.183 ns/day, 0.066 hours/ns, 1401.168 timesteps/s
100.0% CPU use with 1 MPI tasks x no OpenMP threads

MPI task timing breakdown:
Section |  min time  |  avg time  |  max time  |%varavg| %total
---------------------------------------------------------------
Pair    | 138.63     | 138.63     | 138.63     |   0.0 | 97.12
Neigh   | 0.98194    | 0.98194    | 0.98194    |   0.0 |  0.69
Comm    | 0.87919    | 0.87919    | 0.87919    |   0.0 |  0.62
Output  | 0.068558   | 0.068558   | 0.068558   |   0.0 |  0.05
Modify  | 1.8758     | 1.8758     | 1.8758     |   0.0 |  1.31
Other   |            | 0.3064     |            |       |  0.21

Nlocal:    217 ave 217 max 217 min
Histogram: 1 0 0 0 0 0 0 0 0 0
Nghost:    953 ave 953 max 953 min
Histogram: 1 0 0 0 0 0 0 0 0 0
Neighs:    4261 ave 4261 max 4261 min
Histogram: 1 0 0 0 0 0 0 0 0 0
FullNghs:  8522 ave 8522 max 8522 min
Histogram: 1 0 0 0 0 0 0 0 0 0

Total # of neighbors = 8522
Ave neighs/atom = 39.2719
Neighbor list builds = 1662
Dangerous builds = 14
Total wall time: 0:02:25
