LAMMPS (3 Mar 2020)
Reading data file ...
  orthogonal box = (0 0 0) to (28.63 28.63 28.63)
  1 by 1 by 1 MPI processor grid
  reading atoms ...
  1372 atoms
  read_data CPU = 0.00179233 secs
Reading potential file /usr/share/lammps-stable/potentials/Ag_u3.eam with DATE: 2007-06-11
Neighbor list info ...
  update every 1 steps, delay 10 steps, check yes
  max neighbors/atom: 2000, page size: 100000
  master list distance cutoff = 7.55
  ghost atom cutoff = 7.55
  binsize = 3.775, bins = 8 8 8
  2 neighbor lists, perpetual/occasional/extra = 1 1 0
  (1) pair eam, perpetual
      attributes: half, newton on
      pair build: half/bin/atomonly/newton
      stencil: half/bin/3d/newton
      bin: standard
  (2) compute rdf, occasional, copy from (1)
      attributes: half, newton on
      pair build: copy
      stencil: none
      bin: none
Setting up Verlet run ...
  Unit style    : metal
  Current step  : 0
  Time step     : 0.001
Per MPI rank memory allocation (min/avg/max) = 3.83 | 3.83 | 3.83 Mbytes
Step PotEng KinEng TotEng Temp Press Density c_msdall[4] 
       0      -3910.2    425.31758   -3484.8824         2400    19358.294    10.472245            0 
     100   -3647.8779     234.5823   -3413.2956    1323.7109    80102.804    10.472245   0.14458117 
     200   -3587.9937    329.28469    -3258.709    1858.1015    99629.109    10.472245   0.19843664 
     300   -3505.9874    414.71745     -3091.27    2340.1851    123556.56    10.472245    0.2579518 
     400   -3442.1778    447.45141   -2994.7264    2524.8977    141451.07    10.472245   0.31350664 
     500   -3447.8434    423.94006   -3023.9033    2392.2269    138098.96    10.472245   0.34100405 
     600   -3472.3315    410.93704   -3061.3945    2318.8529    131846.81    10.472245   0.33974824 
     700   -3463.0729    422.81524   -3040.2577    2385.8797    134084.04    10.472245   0.34234824 
     800   -3458.9565    431.38952    -3027.567     2434.263     135381.5    10.472245   0.35198775 
     900   -3458.1417    418.39307   -3039.7487    2360.9261    134701.32    10.472245   0.35433249 
    1000    -3458.555    416.45534   -3042.0997    2349.9918    135002.25    10.472245    0.3412275 
    1100   -3456.9191    416.83132   -3040.0878    2352.1133    135501.48    10.472245   0.31912015 
    1200   -3469.5572     429.0103   -3040.5469    2420.8374    133209.93    10.472245   0.28847329 
    1300   -3467.7488    419.29395   -3048.4549    2366.0096    133463.16    10.472245   0.25983876 
    1400   -3486.6329    414.82924   -3071.8037    2340.8159    128143.59    10.472245   0.24726146 
    1500   -3485.0082    426.15016   -3058.8581    2404.6981    129441.48    10.472245   0.25675981 
    1600   -3473.2616    431.18242   -3042.0791    2433.0943    132250.74    10.472245   0.28859884 
    1700   -3456.9898    421.81823   -3035.1716    2380.2537    135738.64    10.472245   0.32705145 
    1800   -3455.5627    441.17621   -3014.3865    2489.4877    137229.73    10.472245   0.34078842 
    1900   -3466.4275    417.71513   -3048.7124    2357.1006    132960.55    10.472245   0.35178182 
    2000   -3473.6906    439.91532   -3033.7753    2482.3727    133054.81    10.472245    0.3505697 
    2100   -3456.1407    429.83029   -3026.3104    2425.4645     136145.6    10.472245   0.36193313 
    2200    -3463.401    441.86334   -3021.5376    2493.3651    135178.74    10.472245   0.35535331 
    2300    -3455.572    408.15423   -3047.4177    2303.1499    135589.46    10.472245   0.34638249 
    2400   -3462.2157    428.57984   -3033.6358    2418.4084    134751.82    10.472245   0.31779747 
    2500   -3471.7219    424.79767   -3046.9242    2397.0662    132388.23    10.472245   0.30682295 
    2600    -3459.277    437.80475   -3021.4723    2470.4631    136530.92    10.472245   0.30601466 
    2700   -3455.7877    414.18325   -3041.6045    2337.1707    136550.67    10.472245   0.30818315 
    2800    -3474.082    432.41252   -3041.6695    2440.0356    132834.79    10.472245   0.30101189 
    2900   -3454.3108     425.0197   -3029.2911    2398.3191    137849.43    10.472245   0.31044617 
    3000   -3450.9091    425.52595   -3025.3832    2401.1758     138063.2    10.472245      0.31259 
    3100   -3469.2293    411.54709   -3057.6822    2322.2953    131885.82    10.472245   0.31116302 
    3200   -3473.9534    423.90343   -3050.0499    2392.0202    132049.48    10.472245   0.30197607 
    3300   -3462.8091    426.01476   -3036.7944    2403.9341    133994.57    10.472245   0.29941142 
    3400   -3464.8573    423.25109   -3041.6062    2388.3391    134050.73    10.472245   0.30448387 
    3500   -3460.1108    412.04211   -3048.0687    2325.0886     134934.8    10.472245   0.30985662 
    3600   -3452.6588    424.55255   -3028.1063    2395.6831    137459.08    10.472245   0.31324323 
    3700   -3463.8361    409.84267   -3053.9935    2312.6775    134857.42    10.472245   0.30886589 
    3800   -3485.5654     440.2948   -3045.2706    2484.5141    129692.57    10.472245   0.28457659 
    3900   -3474.2951    434.48826   -3039.8069    2451.7487     132597.2    10.472245   0.28374948 
    4000   -3470.6973    415.80546   -3054.8918    2346.3246    132328.73    10.472245   0.28584391 
    4100   -3454.7422    412.09021    -3042.652      2325.36     135581.5    10.472245   0.27811551 
    4200   -3472.5979    423.75327   -3048.8447    2391.1728    133409.37    10.472245   0.26144806 
    4300   -3474.7547    421.65308   -3053.1016    2379.3218    131236.16    10.472245   0.25628867 
    4400   -3460.8981    429.43899   -3031.4591    2423.2565    135607.64    10.472245   0.26094716 
    4500   -3483.5579    424.45629   -3059.1016    2395.1399    130043.74    10.472245    0.2517338 
    4600   -3498.0437    443.78958   -3054.2542    2504.2346    127352.31    10.472245   0.24118676 
    4700   -3457.3458    431.31953   -3026.0262    2433.8681    136251.25    10.472245    0.2584027 
    4800   -3473.8608    422.41272   -3051.4481    2383.6083    132334.22    10.472245   0.26574496 
    4900    -3466.741    420.02127   -3046.7197    2370.1137    133971.41    10.472245   0.27154065 
    5000   -3458.7663    421.91191   -3036.8544    2380.7824    136068.04    10.472245   0.27648064 
    5100   -3457.2927    412.93622   -3044.3565    2330.1339    136612.13    10.472245   0.27334794 
    5200   -3450.4321    437.10046   -3013.3316    2466.4889     138258.7    10.472245   0.26790928 
    5300   -3472.0919    433.27339   -3038.8185    2444.8934    133547.02    10.472245   0.26666007 
    5400   -3477.6339    431.88392     -3045.75    2437.0528    131321.97    10.472245   0.27022396 
    5500    -3465.271    441.11804   -3024.1529    2489.1595    134871.84    10.472245   0.27312877 
    5600   -3463.7702    422.38158   -3041.3887    2383.4326    134408.47    10.472245   0.27228164 
    5700   -3474.3598    429.11284    -3045.247    2421.4161    132560.05    10.472245   0.25738399 
    5800    -3479.216    416.69081   -3062.5252    2351.3205    130317.56    10.472245   0.25613626 
    5900   -3485.8697    435.12712   -3050.7426    2455.3537    130037.07    10.472245   0.25569032 
    6000   -3460.1833    413.17916   -3047.0042    2331.5048    134659.96    10.472245   0.27209534 
    6100   -3461.0195    436.09662   -3024.9229    2460.8244    135614.48    10.472245   0.27522666 
    6200   -3469.8159    416.27463   -3053.5413     2348.972     132735.9    10.472245   0.28282371 
    6300   -3476.5679    429.95666   -3046.6112    2426.1776    131783.94    10.472245   0.27927969 
    6400   -3465.3984    428.97316   -3036.4253    2420.6278    134587.33    10.472245   0.27903126 
    6500    -3447.996    425.91461   -3022.0814    2403.3689    139276.46    10.472245   0.27428931 
    6600   -3482.7395    425.52815   -3057.2114    2401.1882    130320.34    10.472245   0.25486059 
    6700    -3479.969    421.54951   -3058.4195    2378.7374    131424.17    10.472245   0.25586817 
    6800   -3455.6873     426.8792   -3028.8081     2408.812     136858.6    10.472245   0.27200158 
    6900    -3455.105    426.26556   -3028.8394    2405.3493    136906.12    10.472245   0.27384794 
    7000   -3492.5075     425.2549   -3067.2526    2399.6463    127454.82    10.472245    0.2539051 
    7100   -3479.1375    428.13256   -3051.0049    2415.8845    131258.84    10.472245   0.25302922 
    7200   -3465.6686    429.92511   -3035.7435    2425.9996    134473.29    10.472245   0.26274593 
    7300   -3475.2183    425.28296   -3049.9353    2399.8046     131857.3    10.472245   0.25400558 
    7400   -3477.4341    403.34422   -3074.0898    2276.0078    129840.03    10.472245   0.25280554 
    7500   -3455.9207    411.24849   -3044.6722    2320.6103    136085.98    10.472245   0.26202498 
    7600    -3468.621    434.11888   -3034.5021    2449.6644    133787.82    10.472245   0.26013869 
    7700   -3475.9628    420.84012   -3055.1227    2374.7344    131268.28    10.472245   0.26327814 
    7800   -3471.5772    428.44248   -3043.1347    2417.6333    132785.84    10.472245   0.26135756 
    7900   -3475.5649    448.01583    -3027.549    2528.0827    133148.68    10.472245   0.24978083 
    8000   -3476.3326    418.82584   -3057.5068    2363.3681    131646.47    10.472245   0.23956679 
    8100   -3484.5191    428.33709    -3056.182    2417.0386    129132.19    10.472245   0.22927228 
    8200   -3478.1814    423.32035    -3054.861      2388.73    130783.93    10.472245   0.23538482 
    8300   -3463.1119    441.96848   -3021.1434    2493.9584    135633.21    10.472245    0.2452744 
    8400   -3471.7878     419.3488    -3052.439    2366.3191    131896.22    10.472245   0.26310884 
    8500   -3484.1211    443.14656   -3040.9745    2500.6061    130817.63    10.472245   0.26638084 
    8600    -3478.006    433.57319   -3044.4328    2446.5851    131236.04    10.472245   0.27729979 
    8700   -3466.2178    432.23741   -3033.9804    2439.0475    134764.99    10.472245   0.27772751 
    8800   -3469.4683    411.52508   -3057.9433    2322.1711    133253.07    10.472245   0.27635436 
    8900   -3502.3596     417.4356    -3084.924    2355.5232    124561.58    10.472245   0.25691229 
    9000   -3490.9193     433.2676   -3057.6517    2444.8607    127175.58    10.472245   0.24101379 
    9100   -3471.8378     417.5085   -3054.3293    2355.9346    132708.72    10.472245   0.24305508 
    9200   -3469.3943    429.49613   -3039.8982    2423.5789     133316.5    10.472245   0.24788016 
    9300   -3483.4648    412.44342   -3071.0214    2327.3531    129293.89    10.472245   0.26227111 
    9400   -3470.1101    425.90287   -3044.2072    2403.3027    133810.43    10.472245   0.27492305 
    9500   -3477.4448    434.89383    -3042.551    2454.0373    131991.05    10.472245   0.27501948 
    9600   -3468.8594    409.70297   -3059.1564    2311.8892     133145.4    10.472245   0.28339882 
    9700   -3469.6195     431.8878   -3037.7317    2437.0747    132861.89    10.472245   0.27967175 
    9800   -3479.1381    421.58291   -3057.5552    2378.9258    130017.89    10.472245   0.28405699 
    9900   -3465.4417    437.30396   -3028.1378    2467.6372    134894.59    10.472245   0.28755708 
   10000   -3464.3427    426.96263   -3037.3801    2409.2827    134527.75    10.472245   0.28638985 
Loop time of 38.2256 on 1 procs for 10000 steps with 1372 atoms

Performance: 22.603 ns/day, 1.062 hours/ns, 261.605 timesteps/s
100.0% CPU use with 1 MPI tasks x no OpenMP threads

MPI task timing breakdown:
Section |  min time  |  avg time  |  max time  |%varavg| %total
---------------------------------------------------------------
Pair    | 23.889     | 23.889     | 23.889     |   0.0 | 62.49
Neigh   | 0.49408    | 0.49408    | 0.49408    |   0.0 |  1.29
Comm    | 0.18605    | 0.18605    | 0.18605    |   0.0 |  0.49
Output  | 0.0049495  | 0.0049495  | 0.0049495  |   0.0 |  0.01
Modify  | 13.58      | 13.58      | 13.58      |   0.0 | 35.53
Other   |            | 0.07204    |            |       |  0.19

Nlocal:    1372 ave 1372 max 1372 min
Histogram: 1 0 0 0 0 0 0 0 0 0
Nghost:    3270 ave 3270 max 3270 min
Histogram: 1 0 0 0 0 0 0 0 0 0
Neighs:    71033 ave 71033 max 71033 min
Histogram: 1 0 0 0 0 0 0 0 0 0

Total # of neighbors = 71033
Ave neighs/atom = 51.7733
Neighbor list builds = 161
Dangerous builds = 0
Total wall time: 0:00:38
