LAMMPS (3 Mar 2020)

    # ---------- Initialize simulation ---------------------
    units metal
    atom_style atomic
    dimension  3
    boundary   p p p
    read_data /home/modeler/RemLabs/Lab4/Problem1A/timestep_0.0036106407876409946/lammps.data
  orthogonal box = (0 0 0) to (12.27 12.27 12.27)
  1 by 1 by 1 MPI processor grid
  reading atoms ...
  108 atoms
  read_data CPU = 0.000872383 secs

    pair_style eam
    pair_coeff * * /usr/share/lammps-stable/potentials/Ag_u3.eam
Reading potential file /usr/share/lammps-stable/potentials/Ag_u3.eam with DATE: 2007-06-11

    velocity  all create 300 87287 dist gaussian

    # ---------- Describe computed properties------------------
    compute msdall all msd
    thermo_style custom step pe ke etotal temp press density c_msdall[4]
    thermo 100

    # ---------- Specify ensemble  ---------------------
    fix  1 all nve
    #fix  1 all nvt temp 300 300 0.18053203938204973

    # --------- Compute RDF ---------------
    compute rdfall all rdf 100 1 1
    fix 2 all ave/time 1 692 692 c_rdfall[*] file /home/modeler/RemLabs/Lab4/Problem1A/timestep_0.0036106407876409946/lammps.rdf mode vector

    # --------- Run -------------
    timestep 0.0036106407876409946
    run 2770
Neighbor list info ...
  update every 1 steps, delay 10 steps, check yes
  max neighbors/atom: 2000, page size: 100000
  master list distance cutoff = 7.55
  ghost atom cutoff = 7.55
  binsize = 3.775, bins = 4 4 4
  2 neighbor lists, perpetual/occasional/extra = 1 1 0
  (1) pair eam, perpetual
      attributes: half, newton on
      pair build: half/bin/atomonly/newton
      stencil: half/bin/3d/newton
      bin: standard
  (2) compute rdf, occasional, copy from (1)
      attributes: half, newton on
      pair build: copy
      stencil: none
      bin: none
Per MPI rank memory allocation (min/avg/max) = 3.723 | 3.723 | 3.723 Mbytes
Step PotEng KinEng TotEng Temp Press Density c_msdall[4] 
       0       -307.8    4.1492507   -303.65075          300     2399.079    10.472245            0 
     100   -305.48569    1.8393665   -303.64633    132.99027     9663.317    10.472245 0.0098953281 
     200   -305.70589    2.0587636   -303.64713    148.85316    8744.6605    10.472245 0.0095906177 
     300   -306.04564     2.398106   -303.64753    173.38837    7667.6805    10.472245 0.0084825453 
     400    -305.7802    2.1330417   -303.64716    154.22363    8470.5915    10.472245 0.0096701443 
     500     -305.595    1.9478222   -303.64718    140.83185    8988.3825    10.472245  0.011500483 
     600   -305.57322    1.9262101   -303.64701    139.26925    9069.9789    10.472245 0.0099890911 
     700     -305.452    1.8053922   -303.64661    130.53385    9521.2511    10.472245 0.0097848573 
     800   -305.99266    2.3447499   -303.64791    169.53061    7762.8158    10.472245 0.0086197323 
     900   -305.54682    1.8999119   -303.64691    137.36784    9109.7019    10.472245 0.0098858169 
    1000   -305.26146    1.6147996   -303.64666    116.75358     9916.031    10.472245  0.011115426 
    1100   -305.66229    2.0150791   -303.64721    145.69468    8852.8721    10.472245 0.0096815227 
    1200   -305.65653    2.0092296    -303.6473    145.27174    8811.8921    10.472245  0.010383894 
    1300   -305.55774    1.9109406    -303.6468    138.16523    9232.9791    10.472245 0.0094049936 
    1400   -305.63567    1.9885501   -303.64712    143.77657    8855.5054    10.472245  0.010607447 
    1500   -306.03644    2.3887546   -303.64768    172.71224      7693.54    10.472245 0.0081448921 
    1600   -305.88534    2.2378773   -303.64747    161.80348    8241.4406    10.472245 0.0089664164 
    1700   -305.91165    2.2642258   -303.64742    163.70854     8084.092    10.472245 0.0084473139 
    1800    -305.7187    2.0714689   -303.64723    149.77178    8671.3084    10.472245  0.010001124 
    1900   -305.86751    2.2201625   -303.64734    160.52266    8297.4154    10.472245 0.0077414326 
    2000   -306.02548    2.3777777    -303.6477    171.91859    7701.2312    10.472245 0.0090137742 
    2100   -305.60457    1.9576489   -303.64692    141.54235       9115.9    10.472245 0.0097035304 
    2200   -305.85677    2.2095379   -303.64724    159.75447    8315.2764    10.472245 0.0082109508 
    2300   -305.70399    2.0569805   -303.64701    148.72424    8707.9593    10.472245 0.0094201148 
    2400   -305.52142    1.8743558   -303.64707    135.52007    9212.7455    10.472245  0.011098196 
    2500   -305.74379    2.0965226   -303.64727    151.58322    8542.9951    10.472245  0.010072277 
    2600   -305.71612    2.0690935   -303.64703    149.60004    8692.9917    10.472245 0.0088980853 
    2700   -305.35927    1.7125128   -303.64676    123.81846     9619.255    10.472245  0.011726043 
    2770   -305.51953     1.872712   -303.64682    135.40122    9213.8848    10.472245  0.011382282 
Loop time of 0.52661 on 1 procs for 2770 steps with 108 atoms

Performance: 1640.925 ns/day, 0.015 hours/ns, 5260.059 timesteps/s
100.0% CPU use with 1 MPI tasks x no OpenMP threads

MPI task timing breakdown:
Section |  min time  |  avg time  |  max time  |%varavg| %total
---------------------------------------------------------------
Pair    | 0.3556     | 0.3556     | 0.3556     |   0.0 | 67.53
Neigh   | 0          | 0          | 0          |   0.0 |  0.00
Comm    | 0.011467   | 0.011467   | 0.011467   |   0.0 |  2.18
Output  | 0.00038525 | 0.00038525 | 0.00038525 |   0.0 |  0.07
Modify  | 0.15655    | 0.15655    | 0.15655    |   0.0 | 29.73
Other   |            | 0.002608   |            |       |  0.50

Nlocal:    108 ave 108 max 108 min
Histogram: 1 0 0 0 0 0 0 0 0 0
Nghost:    990 ave 990 max 990 min
Histogram: 1 0 0 0 0 0 0 0 0 0
Neighs:    4644 ave 4644 max 4644 min
Histogram: 1 0 0 0 0 0 0 0 0 0

Total # of neighbors = 4644
Ave neighs/atom = 43
Neighbor list builds = 0
Dangerous builds = 0
    
Total wall time: 0:00:00
