LAMMPS (3 Mar 2020)
Reading data file ...
  orthogonal box = (0 0 0) to (12.27 12.27 12.27)
  1 by 1 by 1 MPI processor grid
  reading atoms ...
  108 atoms
  read_data CPU = 0.00102554 secs
Reading potential file /usr/share/lammps-stable/potentials/Ag_u3.eam with DATE: 2007-06-11
Neighbor list info ...
  update every 1 steps, delay 10 steps, check yes
  max neighbors/atom: 2000, page size: 100000
  master list distance cutoff = 7.55
  ghost atom cutoff = 7.55
  binsize = 3.775, bins = 4 4 4
  2 neighbor lists, perpetual/occasional/extra = 1 1 0
  (1) pair eam, perpetual
      attributes: half, newton on
      pair build: half/bin/atomonly/newton
      stencil: half/bin/3d/newton
      bin: standard
  (2) compute rdf, occasional, copy from (1)
      attributes: half, newton on
      pair build: copy
      stencil: none
      bin: none
Setting up Verlet run ...
  Unit style    : metal
  Current step  : 0
  Time step     : 0.005
Per MPI rank memory allocation (min/avg/max) = 3.723 | 3.723 | 3.723 Mbytes
Step PotEng KinEng TotEng Temp Press Density c_msdall[4] 
       0       -307.8    17.039589   -290.76041         1232    9852.3985    10.472245            0 
     100   -295.84532    7.5321133   -288.31321    544.58845   -2808.7311    9.9589259  0.073232682 
     200   -294.91547    9.0031056   -285.91236    650.94445     -6184.92    9.8764932  0.089259859 
     300   -294.51631     10.77884   -283.73747    779.33401    10694.271    10.019508  0.081219067 
     400   -295.04731    13.451377   -281.59593    972.56432   -2179.4448    9.8875815  0.092034013 
     500   -291.78044     12.40565   -279.37479    896.95594   -7507.6575    9.7000921   0.11981919 
     600   -292.99524    15.600584   -277.39466    1127.9567   -2956.6524    9.7927232   0.11347631 
     700   -290.80753    15.813604   -274.99393    1143.3585    15448.831    9.9052871   0.14568401 
     800   -288.39102    15.230818    -273.1602    1101.2218   -807.37386    9.6243598   0.15515105 
     900   -288.31599    17.218933   -271.09706    1244.9669   -17046.083    9.4363587   0.16264886 
    1000   -285.87323    17.240153   -268.63308    1246.5012   -681.74184    9.5203964   0.19333855 
    1100   -284.98504    18.388308   -266.59674    1329.5153    10930.812    9.6113781   0.19068909 
    1200   -287.44711    16.862323   -270.58479    1219.1833    1750.4849    9.5771557   0.19543936 
    1300   -287.95429    17.077351   -270.87694    1234.7302   -686.37677    9.5968168   0.16391917 
    1400   -283.61157    17.960994   -265.65058    1298.6196    5185.1879    9.4682385    0.2140764 
    1500   -285.26866    16.787597   -268.48107    1213.7804    7676.7577    9.5851831   0.16710387 
    1600   -288.17721    17.430083   -270.74713    1260.2335    6858.1695    9.7073446   0.14478533 
    1700   -284.49119    16.577967   -267.91322    1198.6237    9837.9657    9.5639344   0.19722007 
    1800   -283.78936    17.040815   -266.74855    1232.0886   -8582.4845    9.3407832   0.21599943 
    1900   -286.48514    16.002473   -270.48267    1157.0142   -6935.4078    9.4753821   0.18982182 
    2000   -285.13596     16.39944   -268.73652    1185.7158    2485.3411    9.5358917   0.20895371 
    2100   -286.35098      18.8175   -267.53348    1360.5469   -514.44237    9.5051595   0.20178772 
    2200   -288.24507    16.312534   -271.93254    1179.4323    1789.1999    9.6432147   0.15063798 
    2300   -288.91424    18.698806   -270.21544    1351.9651   -2673.5021     9.606768   0.16121024 
    2400    -284.3002    18.399231   -265.90097    1330.3051   -4660.1871    9.4015272   0.24248457 
    2500   -287.01633    17.523787   -269.49254    1267.0086   -3111.6733    9.5412741   0.18345332 
    2600    -288.2856     17.16192   -271.12368    1240.8448    1562.1677    9.6488995   0.18110942 
    2700   -284.24768    16.764979    -267.4827     1212.145   -3241.6491    9.4387328   0.25777991 
    2800   -283.33297     17.59085   -265.74212    1271.8574   -12406.669    9.2855584   0.26251027 
    2900   -288.14154    17.712971   -270.42857     1280.687   -704.70237     9.626236   0.20338778 
    3000    -287.4134    16.750014   -270.66339    1211.0631   -3894.9856    9.5548813   0.17181535 
    3100    -284.5677    17.605436   -266.96226    1272.9119   -4164.5205    9.4356513   0.24080413 
    3200   -285.09802    19.654571   -265.44345    1421.0689   -1026.2664    9.4596681   0.18240873 
    3300    -287.1314    18.180718   -268.95068    1314.5061    8017.4562    9.6487026    0.1720021 
    3400   -287.69519    17.960465   -269.73472    1298.5814   -3858.2679    9.5596564   0.18162851 
    3500   -288.01978    17.152386   -270.86739    1240.1554    5285.1854    9.6830629   0.16119446 
    3600   -291.45104    16.553533   -274.89751    1196.8571   -7018.2443    9.6805904   0.13676781 
    3700   -287.56187    16.847368    -270.7145     1218.102   -3478.4853     9.548126   0.20546872 
    3800   -284.82796    15.331336   -269.49663    1108.4895     9446.102    9.6067941   0.22868064 
    3900   -285.77932    18.139839   -267.63948    1311.5505   -2265.3992    9.5072296   0.22526159 
    4000   -286.39595    17.134088   -269.26186    1238.8325    5226.2034    9.6220971   0.18837433 
    4100   -287.31205    15.386584   -271.92546     1112.484    -20168.19    9.3778621   0.16600681 
    4200   -285.50987    16.267207   -269.24266    1176.1551   -7348.3401    9.4401755   0.21652872 
    4300   -286.06747    17.530397   -268.53707    1267.4865    568.32891    9.5350636   0.22016345 
    4400    -288.6527    15.198068   -273.45463    1098.8539     10442.25    9.7562581   0.16426308 
    4500   -287.46801    16.528968   -270.93905    1195.0809    6967.5682     9.672138   0.17334211 
    4600   -286.43496    18.576609   -267.85835    1343.1299   -4105.0749    9.5153113   0.19887555 
    4700   -285.41457    15.567271    -269.8473    1125.5481   -6715.1694    9.4288854   0.23215275 
    4800   -287.07039    13.956293    -273.1141    1009.0708   -3347.0604    9.5547138   0.18157254 
    4900   -288.65767    15.862215   -272.79546    1146.8732     6322.686    9.7032459   0.14330141 
    5000    -284.8576    16.239173   -268.61843    1174.1282    6422.2773    9.5554326      0.21238 
    5100    -286.6201    17.571656   -269.04844    1270.4696   -6557.5884    9.4560668   0.18230959 
    5200    -288.2343     15.64824   -272.58606    1131.4024    10328.556    9.7296886   0.16204639 
    5300   -289.49063    19.192733    -270.2979    1387.6771    5643.1451    9.7166302   0.14254646 
    5400   -286.88391      19.5075   -267.37641    1410.4354   -7165.0141    9.4942372   0.16778196 
    5500   -287.87668    17.029211   -270.84747    1231.2496    3236.4358    9.6218886    0.1788593 
    5600   -287.04271    15.387944   -271.65477    1112.5824    889.54032    9.5909301   0.16932365 
    5700   -283.54108    17.297421   -266.24366    1250.6418    -5385.807    9.3391538   0.20070295 
    5800   -286.20574    17.678892   -268.52685     1278.223    16654.035    9.7050691   0.16628702 
    5900   -288.49226    17.408832   -271.08343     1258.697    5655.0141     9.687486   0.15864003 
    6000   -284.59474    16.872449   -267.72229    1219.9154   -2216.5757    9.4506959   0.22159148 
    6100   -284.50184    18.367812   -266.13403    1328.0334   -5882.6786    9.3506603   0.21350819 
    6200   -285.64648    14.712635   -270.93385     1063.756   -752.86569    9.5300859   0.20057743 
    6300    -286.6976    16.757795    -269.9398    1211.6257     5004.214    9.6285123   0.20008776 
    6400   -285.29874    18.670305   -266.62843    1349.9043   -11826.823    9.3565527   0.23801584 
    6500   -282.94898    17.216025   -265.73295    1244.7567     4632.087    9.4450543   0.27211414 
    6600   -286.14316    16.276655    -269.8665    1176.8381   -6952.8775    9.4848183   0.21597556 
    6700    -286.8265    17.003733   -269.82277    1229.4075    5530.9523    9.6314985   0.18167167 
    6800   -288.86217    16.196816   -272.66535    1171.0656    6621.9136      9.72106   0.15710364 
    6900   -289.11912    15.247066   -273.87206    1102.3966   -13204.061     9.540251   0.17080369 
    7000   -285.75195    15.674962   -270.07698    1133.3345    6862.7249     9.584176   0.20460546 
    7100   -285.76616     16.82609   -268.94007    1216.5635    -1103.164    9.5123977   0.20129858 
    7200   -287.90906     16.75459   -271.15447    1211.3939   -15345.237    9.4336632   0.15642125 
    7300   -288.63616    14.778834   -273.85732    1068.5424    648.32146    9.6775761    0.1416188 
    7400   -287.35748    17.946156   -269.41132    1297.5468     14970.73    9.7429239   0.18581053 
    7500   -286.87024    17.604926   -269.26531    1272.8751    3784.1224    9.6116486    0.1746178 
    7600   -288.22121    16.744117   -271.47709    1210.6367   -333.07347    9.6174676   0.17267057 
    7700   -287.25858    18.450169   -268.80841    1333.9881   -2193.8749    9.5485657   0.16978173 
    7800   -285.28671     19.38734   -265.89937    1401.7476   -4164.8651     9.439079   0.27417611 
    7900   -285.45478    17.267611   -268.18717    1248.4865    2060.8437    9.5388368   0.21939539 
    8000   -289.24688    17.189693   -272.05719    1242.8528   -7568.8157    9.5674129   0.16469689 
    8100   -287.29943    17.106731    -270.1927    1236.8545   -3763.1315     9.546619   0.18654034 
    8200   -284.19763    17.881769   -266.31586    1292.8914    7217.3381    9.5426154   0.21111635 
    8300   -284.83174    15.476729   -269.35501    1119.0017    19406.015    9.7112574   0.17444564 
    8400   -290.28269    18.795508   -271.48718    1358.9568   -13334.793    9.5453529   0.14601628 
    8500   -284.97371    17.765452   -267.20826    1284.4814   -12008.669    9.3713784   0.21210976 
    8600   -285.29813    18.931898   -266.36623    1368.8181   -1845.6938    9.4800411   0.22055628 
    8700   -287.39675    17.333317   -270.06343    1253.2372        12417    9.7277951   0.19333595 
    8800   -286.71704    17.949024   -268.76802    1297.7541   -5115.8724    9.5084772   0.19250572 
    8900   -283.50441    17.044911    -266.4595    1232.3848    1748.9326    9.4635812   0.23031679 
    9000   -288.59014    17.238382   -271.35175    1246.3731    10721.283    9.7475596   0.15754846 
    9100   -287.37011    16.283758   -271.08635    1177.3517   -14667.942    9.4324006   0.17319828 
    9200   -283.96975    16.766588   -267.20316    1212.2614   -11166.654    9.3236784   0.26888689 
    9300   -285.20538    17.266875    -267.9385    1248.4333    14755.053    9.6639227   0.20774967 
    9400   -287.58154    15.407119   -272.17442    1113.9688   -438.03325    9.5918455   0.15845202 
    9500   -286.57599    17.106046   -269.46995     1236.805    2944.6321    9.5868924   0.19849632 
    9600   -286.63101    19.268542   -267.36247    1393.1582    -5113.405    9.4804495   0.19660703 
    9700   -288.22461    16.382751   -271.84186    1184.5091   -10735.312     9.514913   0.19181108 
    9800   -288.41878    18.808792   -269.60999    1359.9173   -1296.5962    9.6152598   0.17102994 
    9900   -286.66233    18.742242   -267.92008    1355.1055    8240.1538    9.6522818   0.16353756 
   10000   -288.71946    16.439361    -272.2801    1188.6022    706.42565    9.6351412   0.15367643 
   10100   -287.47373    15.827484   -271.64625    1144.3621    614.49755    9.6012915   0.16904916 
   10200   -286.27807    18.294998   -267.98308    1322.7689     1921.551    9.5366214   0.19383458 
   10300   -287.53842    17.943986   -269.59444    1297.3899    4109.5757    9.6435434   0.18334608 
   10400   -287.73796    14.249236   -273.48872    1030.2513    -8808.346    9.5335943   0.20126766 
   10500   -284.86704    15.740635   -269.12641    1138.0827   -19243.808     9.282455   0.23775089 
   10600   -284.99322    16.578989   -268.41423    1198.6976   -4297.1928    9.4487651   0.19259845 
   10700   -290.41526    18.340154    -272.0751    1326.0337   -190.25228    9.7026493    0.1438298 
   10800   -287.31237    16.896554   -270.41582    1221.6582    6655.5085    9.6535778   0.15864612 
   10900   -286.88678    19.875349   -267.01143    1437.0317   -5803.0968    9.4998949   0.16387678 
   11000   -286.20914    15.733175   -270.47596    1137.5434    12083.254    9.6866932   0.16421866 
   11100   -289.22851    16.607019   -272.62149    1200.7242   -10613.548    9.5488035   0.16007703 
   11200   -286.19959    18.851822   -267.34777    1363.0284   -13711.107    9.3844783   0.26413553 
   11300   -285.93737    17.164282   -268.77309    1241.0156    3345.9709    9.5739493   0.24911846 
   11400   -288.40484     18.26565   -270.13919    1320.6469   -362.92323    9.6147288   0.17589645 
   11500   -289.41035    15.548909   -273.86144    1124.2205   -947.51702    9.6680488   0.15826079 
   11600   -284.85176     15.80266    -269.0491    1142.5673   -22298.361    9.2456281   0.22204609 
   11700   -284.41327    15.602582   -268.81069    1128.1012   -12485.234    9.3234655   0.24843702 
   11800   -287.05319    18.394671   -268.65852    1329.9754    13256.638    9.7011659   0.17461618 
   11900   -290.38902    16.753035   -273.63599    1211.2815    7758.8079    9.7931166   0.12098328 
   12000   -286.86826    16.548355    -270.3199    1196.4827   -9610.7304    9.4527124   0.19090088 
   12100   -285.58457    17.027105   -268.55746    1231.0973   -14887.387    9.3297956   0.21181765 
   12200   -286.93332    19.239041   -267.69428    1391.0252    8011.0805    9.6377632   0.17583829 
   12300   -291.16662    19.030403   -272.13622    1375.9402    7256.0807     9.808274   0.11150537 
   12400   -286.42704    16.295535   -270.13151    1178.2032    6688.4409    9.6352326   0.15601109 
   12500   -285.18862    17.536131   -267.65249     1267.901   -2071.2044    9.4438794   0.19062655 
   12600   -287.96967    16.677727   -271.29194    1205.8366   -11026.038    9.5011434   0.18457832 
   12700   -287.92855    15.455904   -272.47265     1117.496    6382.2055    9.6847319   0.14901268 
   12800   -284.28219    16.631513   -267.65067    1202.4951    8653.5488    9.5632402   0.21307373 
   12900   -286.23864    17.199362   -269.03928    1243.5519    2171.7179    9.5563258   0.19031091 
   13000   -287.61066    15.659747   -271.95091    1132.2343   -2880.6761    9.5693758    0.1873926 
   13100   -284.85153    17.336775   -267.51475    1253.4872    7360.1453    9.5700457   0.20257716 
   13200   -286.99754    18.630966   -268.36658      1347.06     9620.586    9.6844063   0.16756209 
   13300   -287.35622    15.660482   -271.69573    1132.2875    5516.5139    9.6475065   0.16178729 
   13400   -284.41709    15.519359   -268.89773    1122.0839    1232.0212    9.4833212   0.19166414 
   13500   -284.24048     17.39762   -266.84286    1257.8864   -7768.1363    9.3801255   0.21364233 
   13600   -286.12325    14.597369   -271.52588    1055.4221     2211.361    9.5812752   0.19646142 
   13700   -287.20235    16.907518   -270.29483    1222.4509   -1213.8778    9.5824825   0.18529394 
   13800   -287.19525    18.862773   -268.33248    1363.8202    7450.4517    9.6489568   0.18268858 
   13900   -289.66621    17.437043   -272.22917    1260.7368    5207.9189     9.733083   0.16983236 
   14000    -287.0576    14.822056   -272.23555    1071.6675   -19881.475    9.3727502   0.20442448 
   14100   -284.25333    14.584621   -269.66871    1054.5004   -3712.8706    9.4270892   0.24512076 
   14200   -286.15512    17.553297   -268.60182    1269.1422   -431.02425    9.5090141   0.20070192 
   14300   -288.64699    16.202144   -272.44484    1171.4509   -105.12834    9.6260163   0.17166629 
   14400   -289.03592    18.669096   -270.36683    1349.8169   -7822.8494    9.5552488   0.15944669 
   14500   -285.30054    16.773853   -268.52669    1212.7866    3330.1046    9.5584109   0.17778522 
   14600    -285.7456    14.604392   -271.14121    1055.9298    2756.0737    9.5525595   0.21002461 
   14700   -286.08227    19.034638   -267.04764    1376.2464    1324.7266     9.523266   0.21400051 
   14800   -284.55743    17.948824   -266.60861    1297.7397    5747.8098    9.5430584   0.21593419 
   14900   -286.25983    15.443612   -270.81621    1116.6073    4966.7881    9.6186107   0.15604406 
   15000   -285.52855    14.794502   -270.73405    1069.6752   -2864.0715    9.5112893   0.19494472 
   15100   -284.92002    18.325871   -266.59415     1325.001    -1843.315    9.4616966   0.20959798 
   15200   -286.44327    15.980165    -270.4631    1155.4013   -5342.4751    9.5132431   0.22838059 
   15300   -286.83149    15.769597    -271.0619    1140.1767    -5337.439    9.5000166   0.22156171 
   15400   -284.23243    17.728441   -266.50398    1281.8055    4610.1153     9.518301   0.23153904 
   15500   -283.72826    15.825456    -267.9028    1144.2155    25244.505    9.7488853   0.20145921 
   15600   -289.38664    17.775868   -271.61077    1285.2346    445.23957    9.6688255   0.14795882 
   15700   -285.48014     16.98256   -268.49758    1227.8767   -121.88164    9.4777603   0.17441059 
   15800   -285.69351    20.352412   -265.34109    1471.5244   -8680.2225    9.4100481    0.1788572 
   15900   -289.07933     19.44883    -269.6305    1406.1934    7873.3437    9.7431344   0.16394765 
   16000   -288.74046    18.385098   -270.35536    1329.2833    481.68084    9.6369224    0.1430851 
   16100   -284.32682     18.05171   -266.27511    1305.1785   -6997.2895    9.3938239   0.20239832 
   16200   -283.83512     15.57307   -268.26205    1125.9674    4912.0545      9.51124   0.29317908 
   16300   -284.87314    16.419259   -268.45388    1187.1488    12781.487    9.6293654   0.18807069 
   16400   -289.61875    16.990881   -272.62787    1228.4783   -9066.8313    9.5883791   0.16699312 
   16500   -287.58349    16.202234   -271.38126    1171.4574    929.12742    9.6090621   0.15152634 
   16600   -286.51991    18.347873   -268.17204    1326.5918   -1631.8637    9.5250513   0.18566877 
   16700   -285.17464    16.228147   -268.94649    1173.3309    7836.4359    9.5846414   0.18854504 
   16800   -288.94082    15.545472   -273.39535     1123.972    608.98904    9.6681386   0.15482862 
   16900   -286.95763     17.29356   -269.66407    1250.3626   -1270.1972     9.562055   0.18791841 
   17000   -286.16186    18.485367   -267.67649     1336.533    11812.522    9.6694964   0.16856988 
   17100   -289.27859    18.266439   -271.01215    1320.7039   -3880.8075    9.6098498   0.14865792 
   17200   -288.70986    16.171775   -272.53809    1169.2551   -9803.5473    9.5390786   0.15446206 
   17300   -286.93298    18.669872   -268.26311     1349.873   -1523.4715    9.5419731   0.20515016 
   17400   -286.42072    16.951482   -269.46924    1225.6296    7204.1395    9.6212106   0.17624215 
   17500   -286.69131    14.298928   -272.39238    1033.8441    -13029.34    9.4368734   0.19221214 
   17600   -284.11181    16.321916   -267.78989    1180.1106   -12078.403    9.3248261   0.22106701 
   17700   -284.24498    16.482793   -267.76218    1191.7424    12399.106    9.5697083   0.22218899 
   17800   -287.49801    16.207854   -271.29015    1171.8637    -7008.414    9.5345152   0.18904509 
   17900   -287.45615    16.797288   -270.65886    1214.4811    -3650.746    9.5337593   0.18807931 
   18000   -285.82558    19.051322   -266.77426    1377.4527    5265.0762     9.565951   0.17383986 
   18100   -286.74983    16.800965   -269.94886    1214.7469    -3351.943    9.5483508    0.1867645 
   18200   -287.02698    15.207764   -271.81922     1099.555    698.85013     9.597811   0.18500184 
   18300     -286.178    18.894872   -267.28313    1366.1411   -2116.4432     9.503621   0.21576808 
   18400   -286.36415    18.992976   -267.37117    1373.2342   -5403.0106    9.4754096   0.20626679 
   18500   -287.74965    18.406291   -269.34336    1330.8156   -1608.5942    9.5630348   0.15656599 
   18600    -288.4141     15.86784   -272.54626    1147.2799     6226.094    9.6960483   0.15437731 
   18700   -286.49504    16.756884   -269.73816    1211.5597      1453.26     9.567836   0.17525452 
   18800   -283.87778     15.88111   -267.99667    1148.2394   -14621.618    9.2869709   0.22686663 
   18900   -283.91826    14.472458    -269.4458    1046.3908   -11317.629     9.328157   0.22031222 
   19000   -288.49711    16.768615   -271.72849     1212.408    3029.8728    9.6698662   0.16934438 
   19100   -290.46372    17.137619    -273.3261    1239.0878     7509.583    9.7820157   0.12677928 
   19200   -285.94742    18.038147   -267.90928    1304.1979    6573.4857    9.5981742   0.19753721 
   19300    -287.0628    18.317045   -268.74576    1324.3629    4874.5193    9.6094416   0.17446492 
   19400   -288.41172    18.634719     -269.777    1347.3314   -9870.7428    9.5094948   0.14726766 
   19500   -287.41607    14.904444   -272.51162    1077.6243    12775.214    9.7446838   0.16077914 
   19600   -289.69417     15.41903   -274.27514      1114.83    428.24785    9.6939804   0.12089448 
   19700   -285.34904     16.37538   -268.97366    1183.9762    4588.8863    9.5667041   0.19427689 
   19800   -286.63532    17.234295   -269.40103    1246.0777   -1580.9321    9.5266891   0.18251907 
   19900   -285.59921    15.094803   -270.50441    1091.3877   -6118.0543    9.4675015   0.20324149 
   20000   -289.13522    14.968908   -274.16632    1082.2851   -8500.0691    9.5892136    0.1906029 
   20100   -285.86181    15.442411   -270.41939    1116.5205    20209.721    9.7473287   0.20773803 
   20200   -285.50543    16.123599   -269.38183    1165.7719   -4873.5296    9.4441292   0.23520475 
   20300   -285.45284    16.063357   -269.38948    1161.4162   -4571.0224     9.457253   0.23030899 
   20400   -285.99662    16.672407   -269.32421    1205.4519   -3689.8928    9.4901265   0.17746773 
   20500   -289.35991    14.917942   -274.44196    1078.6002    407.33961    9.6958274   0.14658719 
   20600   -287.24773    16.283834    -270.9639    1177.3572    10431.081    9.6895528   0.16807338 
   20700   -286.70642    18.081267   -268.62515    1307.3156   -1594.2396    9.5555226   0.17673731 
   20800   -285.63181    15.213207    -270.4186    1099.9485   -4818.2358    9.4735277   0.24398738 
   20900   -287.88639    14.664746   -273.22165    1060.2936   -2387.7841    9.5942624   0.16997876 
   21000   -290.81794    19.180403   -271.63754    1386.7856    6406.9363    9.7805563   0.13609776 
   21100   -286.79182    17.743774   -269.04805    1282.9141    15908.164    9.7329584   0.15159667 
   21200   -285.76391    15.945634   -269.81828    1152.9046   -9402.0007    9.4231449   0.19596913 
   21300   -284.13248    15.217568   -268.91491    1100.2638   -6488.3821    9.4170335   0.21653328 
   21400   -282.81333    18.439184   -264.37415    1333.1938    2565.4941    9.4405218   0.23285877 
   21500   -286.84589    17.851725   -268.99417    1290.7192    742.83651    9.5575253   0.20310927 
   21600   -286.01394    15.880597   -270.13334    1148.2023    753.30362    9.5386538   0.17963032 
   21700   -286.42728    17.365731   -269.06155    1255.5807   -2278.8952    9.5168685   0.19073142 
   21800   -284.14034    19.348927   -264.79142    1398.9702    1444.2792    9.4654988    0.2217182 
   21900   -287.76613    18.785204   -268.98093    1358.2118    -2008.213    9.5695304   0.19271464 
   22000   -287.90516    18.765174   -269.13998    1356.7636    18366.556    9.7848375   0.16792423 
   22100   -288.35151    16.651315   -271.70019    1203.9269   -13907.737    9.4889881   0.17336634 
   22200   -289.43672    15.945848   -273.49087    1152.9201   -8023.1157    9.6038447   0.17219503 
   22300   -287.01027    18.403088   -268.60719    1330.5839   -2151.7773     9.561107   0.19772473 
   22400   -286.73178     17.47432   -269.25746     1263.432    2316.1132    9.5733114   0.20396129 
   22500   -286.55396    19.404125   -267.14984    1402.9612     3465.218    9.5932697   0.18266867 
   22600   -281.41849    18.752944   -262.66555    1355.8793    1199.6054    9.3285932   0.23381413 
   22700    -286.1824    18.847432   -267.33497     1362.711   -1790.9594     9.519677   0.20092814 
   22800   -284.77644    15.591448   -269.18499    1127.2961    7908.4526    9.5775028   0.21387743 
   22900   -286.91774    17.477552   -269.44019    1263.6656    -2460.038    9.5384146    0.2035072 
   23000   -286.48563    19.230724    -267.2549    1390.4238    1343.2354    9.5424402   0.17714549 
   23100   -282.40109    18.734419   -263.66667    1354.5399    5666.4714    9.4425093   0.27901929 
   23200   -285.99892    16.605817    -269.3931    1200.6373    5632.5393    9.6198214   0.19318391 
   23300   -285.10281    15.856107    -269.2467    1146.4316   -15466.534    9.3423302   0.22628535 
   23400   -285.73631    18.033566   -267.70274    1303.8667    3634.7677    9.5495311   0.22820337 
   23500   -286.76677    16.009275    -270.7575     1157.506    2707.1931    9.5971331   0.20203434 
   23600   -287.70442     15.39804   -272.30638    1113.3124   -2904.6458    9.5823873   0.19022592 
   23700   -285.13165    16.344737   -268.78691    1181.7606   -4617.1728    9.4425178   0.21009608 
   23800   -284.59699    16.263361   -268.33363     1175.877   -2241.7685    9.4673011   0.21515861 
   23900   -289.02418    15.954715   -273.06947    1153.5612    11097.748    9.7925191   0.12719772 
   24000   -288.19898    16.877074   -271.32191    1220.2498    13880.151    9.7710552   0.13061014 
   24100   -287.80775    19.519253   -268.28849    1411.2852    -7842.746    9.5102163   0.15465916 
   24200   -287.14298     17.05857   -270.08441    1233.3723    2887.6318    9.6207536   0.17546224 
   24300   -290.51616    16.706365    -273.8098    1207.9071   -9043.8405    9.6170997   0.14268897 
   24400   -284.99615    15.766243   -269.22991    1139.9342    808.22758    9.5193844    0.2020376 
   24500   -285.12878    16.154199   -268.97458    1167.9843    6706.0271    9.5824665    0.2137728 
   24600    -287.5263    16.160068   -271.36624    1168.4087   -9926.4613    9.4949999   0.21119052 
   24700   -288.82428    15.307829   -273.51645    1106.7899    -4774.802    9.6074033   0.16440706 
   24800   -285.48879    16.940562   -268.54823    1224.8401   -4689.4172    9.4526235   0.21364597 
   24900   -285.31538    16.339828   -268.97555    1181.4057   -8493.7137    9.3980402   0.19871027 
   25000   -290.18099    17.322133   -272.85885    1252.4285    683.49567    9.7025869    0.1531867 
   25100   -287.42218    15.897067   -271.52511    1149.3931    7013.7749    9.6710015   0.16418924 
   25200    -285.5561    16.823929   -268.73218    1216.4072     355.6077    9.5245173   0.18137505 
   25300   -287.60639    16.159592    -271.4468    1168.3742   -5884.8768    9.5331039   0.19075913 
   25400   -287.62806    15.590533   -272.03753      1127.23   -13286.261    9.4662431   0.20329171 
   25500   -286.43201    18.693413    -267.7386    1351.5751   -3216.4307    9.5083864   0.19943872 
   25600   -286.94757    17.602402   -269.34517    1272.6926    7791.3915     9.652174   0.17006501 
   25700   -288.00535    17.903054   -270.10229    1294.4304    22632.995    9.8562631   0.17397992 
   25800   -281.98083    16.814183   -265.16665    1215.7026   -5652.1224    9.3021076   0.26206554 
   25900   -284.32399     16.26954   -268.05445    1176.3237   -3616.6023     9.428783   0.19642349 
   26000   -288.48619    18.137126   -270.34906    1311.3543    -135.7058     9.617519   0.16002108 
   26100   -288.08946     19.45039   -268.63907    1406.3062     1522.455    9.6060017   0.14849744 
   26200   -283.44652    18.633758   -264.81276    1347.2619    1246.9417     9.429109    0.2303441 
   26300   -287.03395    17.606002   -269.42794    1272.9529    12460.174    9.6939506   0.16707319 
   26400   -288.03341    17.664805    -270.3686    1277.2045     5878.855    9.6694215   0.15520503 
   26500   -285.55704    16.440432   -269.11661    1188.6796      6630.42    9.5653657   0.19838144 
   26600   -283.59714    18.072582   -265.52455    1306.6877   -12347.234    9.2728289   0.26220537 
   26700   -287.88659    17.132268   -270.75432    1238.7009   -5480.7001    9.5580748   0.17747584 
   26800   -288.01236      17.6263   -270.38606    1274.4205    3767.6328    9.6652336   0.15627684 
   26900   -286.34143    18.043318   -268.29811    1304.5718   -1417.5193    9.5336832   0.16581212 
   27000   -282.74083    18.878198   -263.86263    1364.9355   -4292.0201    9.3529567   0.23971087 
   27100   -283.55735    16.840257   -266.71709    1217.5878    5220.8478    9.4750795   0.20529222 
   27200      -286.72    17.305104   -269.41489    1251.1973   -6197.7459    9.4856052   0.18649645 
   27300   -288.17171    18.542762   -269.62894    1340.6827   -1863.6257    9.6020265   0.14916522 
   27400   -287.92511    16.298499   -271.62661    1178.4175    23743.576    9.8942095   0.16862671 
   27500   -288.73714    15.234756   -273.50239    1101.5065    -4889.384    9.6176839   0.15934215 
   27600   -286.23116    16.475667    -269.7555    1191.2271   -8538.7952    9.4583856   0.19021931 
   27700   -286.91829    17.634484    -269.2838    1275.0122   -9008.1748    9.4644361   0.18628867 
   27800   -284.18258    17.059806   -267.12277    1233.4617    9014.9289    9.5480782   0.20893733 
   27900   -281.52868    20.039218   -261.48946    1448.8798   -2787.2381    9.3033296   0.26645092 
   28000   -284.21081    17.264018   -266.94679    1248.2267    6895.5953    9.5573498   0.24233372 
   28100   -286.04202    17.088313    -268.9537    1235.5228   -6097.1937    9.4525414   0.19236101 
   28200   -284.82712    14.283571   -270.54354    1032.7338    -11694.57    9.3651124   0.23066648 
   28300   -285.48715    16.072836   -269.41432    1162.1016   -3995.7907    9.4462801   0.25202696 
   28400    -284.0552     18.77326   -265.28194    1357.3482    3403.7837    9.4762642   0.25406258 
   28500   -285.61899    16.530306   -269.08869    1195.1777    14204.408    9.6920065   0.21906593 
   28600   -285.86944     16.09783   -269.77161    1163.9087   -6992.7619    9.4802767   0.20485505 
   28700   -284.79176    19.018622   -265.77314    1375.0885    3399.6718    9.5033264   0.22572311 
   28800   -284.80741    18.028608    -266.7788    1303.5083   -7173.8117    9.3941759   0.22045842 
   28900   -285.46293    14.550807   -270.91212    1052.0555    1291.3114    9.5232383   0.19290562 
   29000   -287.54605    18.308485   -269.23756    1323.7439   -8220.4677    9.5095143   0.21060819 
   29100   -284.86473    18.358319   -266.50641    1327.3471   -1247.8229     9.461923   0.20774796 
   29200   -289.20299    17.460936   -271.74206    1262.4643   -2609.7498     9.653796   0.14706697 
   29300   -286.77505    17.343966   -269.43109    1254.0071    2483.9915    9.5954618   0.16312389 
   29400   -286.98955    18.774673   -268.21488    1357.4504    2919.5751    9.5745864   0.17679664 
   29500   -287.76738    16.848646   -270.91873    1218.1944    123.93474    9.5957199   0.16396427 
   29600    -288.8509    15.614991   -273.23591    1128.9984   -1138.5798    9.6225851   0.16156378 
   29700   -287.56128    18.088348   -269.47293    1307.8276    -6130.383    9.5267283   0.19201157 
   29800   -287.28416    19.232534   -268.05162    1390.5547   -2441.7619    9.5367781   0.17740241 
   29900   -287.96141    15.953033   -272.00838    1153.4396    14681.121    9.7642725    0.1423811 
   30000   -288.75771    16.652319   -272.10539    1203.9995   -7248.7294    9.5640898   0.17338027 
   30100    -285.2549    16.348934   -268.90597    1182.0641   -9930.3056    9.3975352   0.21980363 
   30200   -286.84103    17.132936   -269.70809    1238.7492   -2476.7344    9.5238748   0.18797482 
   30300   -289.95407    17.699743   -272.25432    1279.7305    7782.1311    9.7731837   0.14819477 
   30400   -286.57608    18.581425   -267.99466    1343.4782     3094.234    9.5902747   0.17199205 
   30500   -285.76597    17.346209   -268.41976    1254.1693    9400.6136    9.6202311   0.18540171 
   30600   -286.39397    15.569905   -270.82406    1125.7386   -18506.148    9.3654909   0.21522916 
   30700   -285.94497    15.323282   -270.62169    1107.9072   -4200.0623    9.4831668   0.20865542 
   30800   -284.51045      18.5786   -265.93185    1343.2739   -8147.8704    9.3625861   0.25874163 
   30900   -288.91561    19.991335   -268.92427    1445.4177    6560.2677    9.7041494   0.15137073 
   31000   -287.71716    16.959306   -270.75785    1226.1953    14970.024    9.7654975   0.14145133 
   31100   -284.91298    17.480268   -267.43272     1263.862    365.71788    9.5109147   0.22253286 
   31200   -284.47447    17.026187   -267.44828     1231.031    1622.9879    9.4898062   0.20473683 
   31300   -287.70135    16.217581   -271.48377     1172.567    10386.215    9.7161078   0.16876613 
   31400   -288.08291    19.844662   -268.23825     1434.813   -14929.112    9.4392463   0.16094658 
   31500   -286.51967    18.339598   -268.18007    1325.9935   -13816.756    9.4085406   0.20771199 
   31600   -289.41261    16.514594   -272.89801    1194.0416    16936.245    9.8416368    0.1401324 
   31700   -286.66873    16.644687   -270.02405    1203.4477    371.11079    9.5747972   0.18162992 
   31800   -287.17031    19.238201   -267.93211    1390.9645   -9174.8412    9.4610171   0.17059002 
   31900   -288.66817    16.930172     -271.738    1224.0889    4218.6695    9.6851268   0.13853184 
   32000   -288.92946    16.727564    -272.2019    1209.4399    6207.5165     9.723841   0.13937443 
   32100   -286.68754    18.515809   -268.17173    1338.7339   -2832.1063    9.5279685   0.20394628 
   32200   -286.17723    16.185935   -269.99129    1170.2789   -5957.7076    9.4716116   0.20132321 
   32300   -288.67796    16.131775   -272.54618     1166.363   -12725.316     9.504785   0.19274199 
   32400   -283.22948    15.454465   -267.77501     1117.392    703.57172    9.4074933   0.26360414 
   32500     -284.208    17.578997   -266.62901    1271.0004    3176.6467    9.5063196   0.23877102 
   32600   -288.84196    18.251176   -270.59079    1319.6004    4830.0152    9.6950538   0.15745874 
   32700   -286.56222    16.785481   -269.77674    1213.6274    4416.8873    9.5996861   0.17452688 
   32800   -283.89502    17.942841   -265.95217    1297.3071    -9144.391    9.3514468   0.25158836 
   32900   -286.53418    16.802234   -269.73195    1214.8387   -2284.8324     9.521912   0.19102761 
   33000   -287.97993    16.755168   -271.22476    1211.4357   -9986.8842    9.4893387   0.16221257 
   33100   -285.00769     17.48314   -267.52455    1264.0697    7046.8206     9.553414   0.20409828 
   33200    -285.4863    16.304316   -269.18199    1178.8381   -6630.5079    9.4228555    0.2243583 
   33300   -289.05026    16.904478   -272.14579    1222.2312   -14872.187    9.4891956   0.16959756 
   33400    -286.4265    18.403894   -268.02261    1330.6422    16448.134    9.7293991    0.1831983 
   33500   -286.38453    18.974678   -267.40985    1371.9112    10016.317    9.6837816   0.18392325 
   33600   -288.31499    16.755979   -271.55901    1211.4943   -1958.8334    9.6231395   0.17133567 
   33700    -288.9993    18.501693    -270.4976    1337.7133   -13503.816    9.5046849   0.15617665 
   33800   -284.71893     18.78724   -265.93169     1358.359    -1238.404    9.4721367   0.23605269 
   33900   -285.78055    17.106767   -268.67378    1236.8571    1868.5265    9.5263956   0.20139657 
   34000   -288.39542    16.219795   -272.17562    1172.7271   -9093.6826    9.5428539   0.16508175 
   34100    -287.5341     19.18739   -268.34671    1387.2907   -2022.4661    9.5494965   0.16737343 
   34200   -286.01691    18.297178   -267.71973    1322.9264    10935.782     9.652433   0.17546747 
   34300   -289.17981    17.672074   -271.50774      1277.73    3459.4865    9.6958606   0.14181514 
   34400   -286.90037    17.412072    -269.4883    1258.9313    1864.0784    9.5736418   0.16574144 
   34500   -284.00127     16.49121   -267.51006    1192.3509   -1139.5077    9.4194927   0.22926377 
   34600   -287.23271    15.692652   -271.54006    1134.6134   -6251.4886    9.5125131   0.19376429 
   34700   -288.71542    18.374094   -270.34132    1328.4876   -1052.5766    9.6291074   0.16953287 
   34800   -284.11786     17.44409   -266.67377    1261.2463    7993.6506    9.5308616   0.22103039 
   34900   -285.44682    14.932217    -270.5146    1079.6323   -4395.9202    9.4745515   0.22192507 
   35000   -289.32955    18.595015   -270.73454    1344.4607    -16787.06    9.4546729   0.17510903 
   35100   -285.60811    19.306735   -266.30138    1395.9196    4912.0151    9.5567356   0.23308126 
   35200   -287.24559    19.550845   -267.69475    1413.5694    1631.2158    9.5762401   0.15617065 
   35300   -287.14709    16.217595   -270.92949     1172.568    -4127.724    9.5479876    0.1781569 
   35400   -286.07273     17.83368   -268.23905    1289.4145   -3417.4968    9.4819633   0.20939357 
   35500   -283.24693    17.433299   -265.81363    1260.4661     7358.566    9.5152895   0.22406042 
   35600   -289.00346    18.545291   -270.45817    1340.8656   -3727.6268    9.6160454   0.14821052 
   35700   -286.90702    16.067369   -270.83965    1161.7063    4433.1553    9.6506312   0.19478802 
   35800   -285.96511    18.308021   -267.65709    1323.7104   -12979.056    9.3621055   0.22977825 
   35900   -285.63224    18.718498   -266.91375    1353.3888    2148.8893    9.5399575   0.21031681 
   36000   -289.36959    17.518829   -271.85076    1266.6501    -10876.29     9.547804   0.17716902 
   36100   -286.26506    16.357155   -269.90791    1182.6585   -5170.5202    9.4626027   0.20696547 
   36200   -285.92051    19.187163   -266.73335    1387.2743    11752.376     9.638228   0.18433483 
   36300   -287.13317    18.420726   -268.71244    1331.8592    8865.6811    9.6636381   0.19784305 
   36400   -287.18681     14.37388   -272.81293    1039.2634    12784.876    9.7356107   0.15444338 
   36500   -285.50189    17.083078   -268.41881    1235.1443   -9404.5464    9.4045149    0.2061089 
   36600      -285.11     16.73322   -268.37678    1209.8489    3288.5157     9.513536   0.20523428 
   36700   -285.34522    13.913276   -271.43194    1005.9606    8068.1037    9.6166245   0.23039274 
   36800    -285.0464    17.885599    -267.1608    1293.1684   -9102.7107    9.3770183   0.25952409 
   36900   -284.07038    17.089656   -266.98073    1235.6199    1782.3883    9.4533437   0.22986154 
   37000   -287.88214     16.37674    -271.5054    1184.0745   -3245.1072     9.574411   0.21863788 
   37100     -287.167    18.213626   -268.95337    1316.8855   -2027.4574     9.561137   0.21497596 
   37200   -283.17637    16.789214   -266.38716    1213.8973   -2448.3617     9.389851   0.24829333 
   37300   -286.00761    15.481396   -270.52622    1119.3392   -5982.9337    9.4710686   0.19850685 
   37400   -286.71686    15.822381   -270.89448    1143.9931    6636.6098    9.6558035   0.14365175 
   37500   -285.79609    18.859891   -266.93619    1363.6119    12178.292    9.6490572   0.16220514 
   37600   -285.87116    18.879354   -266.99181     1365.019     286.1757    9.5437574   0.21235609 
   37700   -287.14885    15.882075   -271.26678    1148.3092    6840.9172    9.6719425    0.1825166 
   37800   -287.27347    15.694705   -271.57877    1134.7619    2123.1237    9.6130624   0.21772642 
   37900   -282.82316    16.043643   -266.77952    1159.9909   -2536.1141    9.3852657   0.25164169 
   38000   -285.05649    16.392475   -268.66401    1185.2122   -2511.2969    9.4644866   0.19205402 
   38100   -286.96662    14.692878   -272.27374    1062.3276   -573.50653     9.589331   0.17680417 
   38200   -287.36327    18.471515   -268.89175    1335.5314   -1686.8989    9.5583426   0.15967371 
   38300   -286.37558    18.780148   -267.59543    1357.8463    15053.471    9.7020763   0.17409506 
   38400   -288.59813    16.915066   -271.68307    1222.9967    14483.125    9.7983316   0.11950822 
   38500   -286.91228    15.325209   -271.58707    1108.0465   -11784.943    9.4702111    0.1859881 
   38600   -283.10506    15.132137   -267.97292     1094.087   -5280.2271    9.3653062   0.24204211 
   38700   -286.14856    16.324858   -269.82371    1180.3233    -12501.41    9.4014146   0.22469969 
   38800   -288.74649    16.673342   -272.07315    1205.5195    439.74114    9.6650425   0.16104822 
   38900   -287.48745    17.130831   -270.35662     1238.597    1487.2558    9.6420962   0.15046387 
   39000   -284.30586    18.450722   -265.85513     1334.028    9177.2382    9.5631646   0.20211789 
   39100   -286.76239    18.069494    -268.6929    1306.4644    5505.0934    9.6229355   0.16070129 
   39200   -288.11565    16.750523   -271.36513    1211.0998   -4446.7914    9.5615915   0.15070055 
   39300   -288.47875    17.997893   -270.48085    1301.2875   -6111.2389    9.5700062    0.1536501 
   39400   -285.84725    20.150263   -265.69699    1456.9086    10955.927    9.6131772   0.16056395 
   39500   -287.61081    18.822564   -268.78825     1360.913    1097.8206    9.5899023   0.18773654 
   39600   -287.75436    15.772609   -271.98175    1140.3945   -5936.6435    9.5257647   0.17429552 
   39700    -287.1723    17.806715   -269.36559    1287.4649   -9889.2502    9.4710158   0.16413057 
   39800   -285.05616    17.300536   -267.75562     1250.867    19473.567     9.704788   0.17073951 
   39900   -287.66157    17.668637   -269.99294    1277.4815    23157.022    9.8293986   0.12974896 
   40000   -287.54892    14.765642   -272.78328    1067.5886    -8139.928    9.5335416   0.17498249 
   40100   -284.26851    16.482708    -267.7858    1191.7363   -7371.1132    9.4100267   0.22743285 
   40200   -285.17801    16.728786   -268.44922    1209.5283    9021.4339    9.5910769   0.18802535 
   40300   -288.86205    17.480931   -271.38112      1263.91     2056.133    9.6775654   0.16382322 
   40400   -288.15986    17.757826   -270.40204    1283.9301    -397.2047    9.6057924   0.18729494 
   40500   -286.47625    19.542705   -266.93354    1412.9808    4544.6657    9.5488378   0.17863021 
   40600   -286.86752     16.52791   -270.33961    1195.0045   -7486.2717    9.4654817   0.20226992 
   40700    -286.4544    15.391971   -271.06243    1112.8736   -6415.3176    9.4721319   0.19289421 
   40800   -284.16231    18.975969   -265.18634    1372.0046   -2723.9938    9.4120454   0.20753357 
   40900   -286.21694    19.067719   -267.14922    1378.6382    20951.671     9.762444   0.18264737 
   41000   -288.38765    17.720446   -270.66721    1281.2274   -1686.6463    9.6213227   0.16176223 
   41100   -287.51171    17.204819   -270.30689    1243.9465   -5463.2684     9.515876   0.19541611 
   41200   -284.86599    19.033557   -265.83243    1376.1683   -4640.5113    9.4121815    0.2447867 
   41300   -286.57309    18.046828   -268.52626    1304.8256   -1373.8351    9.5225845   0.19590213 
   41400   -286.80718    15.267062   -271.54012    1103.8424    2715.2834    9.5955067   0.16896865 
   41500   -283.50514    15.834664   -267.67048    1144.8812    17145.475    9.6052358   0.19444992 
   41600     -283.991    15.515048   -268.47595    1121.7723    10329.217    9.5797679   0.17513245 
   41700    -289.7844    17.621959   -272.16244    1274.1066   -13091.421    9.5381675   0.15054262 
   41800   -285.64043    16.600047   -269.04038    1200.2201   -5585.4406    9.4601418   0.24108386 
   41900   -284.39431    17.258931   -267.13538    1247.8589   -11959.017    9.3337628   0.21269388 
   42000    -286.6913    16.184639   -270.50666    1170.1852   -9756.0501    9.4607332   0.18142685 
   42100   -289.35836    18.883575   -270.47478    1365.3243     13664.35    9.8264917   0.15219468 
   42200   -285.40445    20.067231   -265.33722    1450.9052    3066.8619    9.5348333   0.16613937 
   42300   -285.17071    16.320254   -268.85045    1179.9905     2734.598    9.5065754   0.20064063 
   42400   -287.65474    16.090955   -271.56378    1163.4116   -13610.836    9.4546985   0.20696269 
   42500   -284.61841    16.614993   -268.00341    1201.3007    1557.6318    9.4878852   0.19957146 
   42600   -284.91097    16.536249   -268.37472    1195.6074     5379.568    9.5579893   0.23221349 
   42700   -288.54033     15.98706   -272.55327    1155.8998   -7539.1249    9.5598909   0.15324309 
   42800   -285.39166    16.214514   -269.17714    1172.3452    6724.4757    9.5828232     0.186939 
   42900     -286.383    18.615318   -267.76768    1345.9287    7016.8497    9.6144198    0.1895246 
   43000   -287.29695    15.634532   -271.66242    1130.4113   -13470.262    9.4521837    0.1915259 
   43100   -286.07105    16.345143   -269.72591      1181.79   -11000.116    9.3985678   0.22055798 
   43200   -283.56282    16.830414   -266.73241    1216.8761    4968.8475     9.447325   0.26831178 
   43300   -287.49145     16.88188   -270.60957    1220.5973   -3579.6126    9.5649683   0.20239367 
   43400   -285.69098    15.269257   -270.42173    1104.0011    6093.8346    9.5999435   0.20015062 
   43500   -283.56231    16.802207    -266.7601    1214.8367    10853.214    9.5502273   0.22210113 
   43600   -287.45364    16.815161   -270.63848    1215.7733   -8659.8682    9.5082566   0.17039089 
   43700   -288.45641    17.735716    -270.7207    1282.3315    8608.0356    9.7461079   0.17529354 
   43800   -285.67622    17.338217     -268.338    1253.5915    5702.4647    9.5974337   0.19411465 
   43900   -284.51192    15.343368   -269.16856    1109.3594   -9079.0815     9.388612   0.21293365 
   44000   -289.08408    15.268911   -273.81517     1103.976   -9937.9499    9.5533838   0.17498277 
   44100   -285.97245    16.181074   -269.79138    1169.9275    50.513203    9.5426064   0.19654147 
   44200    -286.4726    17.665329   -268.80727    1277.2424    12866.025    9.6844813   0.16990517 
   44300   -286.44283    16.630519   -269.81231    1202.4233    2978.8314    9.5874131   0.18645468 
   44400   -290.32401    15.802092   -274.52192    1142.5262   -5584.7812    9.6438015    0.1360031 
   44500   -290.15837    17.261157   -272.89722    1248.0198   -6130.5517    9.6321643   0.12871842 
   44600   -285.42421    15.684014    -269.7402    1133.9889    12906.435    9.6668383   0.17428979 
   44700   -285.97484    17.904126   -268.07072    1294.5079   -3989.2139    9.4733046   0.21258739 
   44800   -284.38377    16.615458   -267.76831    1201.3344    -3705.129     9.430588   0.27032782 
   44900   -289.57162     16.70481   -272.86681    1207.7947   -3016.8723    9.6419838   0.16748094 
   45000   -287.97923    17.330656   -270.64858    1253.0448   -2465.0405      9.59394   0.15408117 
   45100   -286.02032    18.252425    -267.7679    1319.6907    4443.4299    9.5685509   0.16472997 
   45200   -287.43527      16.4639   -270.97137    1190.3764    6936.0562    9.6522677   0.15796944 
   45300   -288.20522    16.176053   -272.02917    1169.5644   -667.01943    9.6224244      0.16963 
   45400    -286.2489    18.091655   -268.15725    1308.0667   -5170.9252    9.4884547   0.22342523 
   45500   -285.90218    18.835008   -267.06717    1361.8128   -6339.7659    9.4636665   0.23345766 
   45600   -289.80682    17.369389   -272.43743    1255.8453   -2987.0321    9.6475119   0.15000549 
   45700    -288.0149    17.067761   -270.94714    1234.0369   -2777.0023     9.586915   0.17083624 
   45800   -285.34835    17.690619   -267.65773    1279.0709   -173.91661    9.4942021   0.20154662 
   45900   -287.75099    19.702433   -268.04856    1424.5295   -2801.3797    9.5304945   0.16492052 
   46000   -289.02304    17.924443    -271.0986    1295.9768   -5825.3694    9.5873135   0.15577507 
   46100   -284.84961    16.750674   -268.09894    1211.1107    4127.9089    9.5314512   0.19883657 
   46200   -284.35239    17.089278   -267.26311    1235.5926   -3802.2681     9.419362   0.25311859 
   46300   -285.98653    15.243469   -270.74306    1102.1365    3496.3718    9.5739968   0.19761108 
   46400   -287.61259    16.512397    -271.1002    1193.8828   -1096.4731    9.5943008   0.16746435 
   46500   -282.98515     17.13486   -265.85029    1238.8883    1833.7404    9.4224148   0.24862988 
   46600   -285.71499    17.309741   -268.40525    1251.5325    -7844.575    9.4101816   0.20185935 
   46700   -287.33366    16.273412   -271.06025    1176.6037    10855.849    9.6975118   0.16359992 
   46800   -287.57895    18.753897   -268.82506    1355.9482    7115.8507    9.6770644   0.17962403 
   46900   -284.53625    18.562847    -265.9734    1342.1349   -6642.1291    9.3789621   0.23482331 
   47000   -287.38283     16.95911   -270.42372    1226.1812   -3789.2961     9.541778   0.18589164 
   47100   -286.81495     16.40716   -270.40779     1186.274    13181.546    9.7124803   0.18419997 
   47200   -283.79058    17.515218   -266.27536     1266.389   -8758.8699    9.3752092   0.21461673 
   47300   -285.27881    15.414336   -269.86448    1114.4906    -6384.955    9.4299001   0.23761488 
   47400   -286.91721    15.445397   -271.47181    1116.7364   -8726.2413    9.4912368   0.18945303 
   47500   -282.01452    15.245516     -266.769    1102.2845    11770.041    9.5097165   0.26691955 
   47600   -283.48097    16.707198   -266.77377    1207.9673    19562.525    9.6457107   0.21856515 
   47700   -286.24459    16.528749   -269.71584    1195.0651    1043.4101     9.556925   0.19866374 
   47800   -286.68602    16.259658   -270.42636    1175.6092   -9612.0905    9.4574337    0.2077203 
   47900   -281.71851    15.902342   -265.81617    1149.7745    -4267.061    9.2980024   0.29780818 
   48000   -281.63465    15.760463   -265.87419    1139.5164    -9123.286    9.2661071   0.29247309 
   48100   -287.16367    16.883738   -270.27993    1220.7316   -1088.6467    9.5526392   0.18543293 
   48200   -287.87815     17.09151   -270.78664     1235.754     1272.128    9.6099045   0.17477764 
   48300   -284.77022    18.251714    -266.5185    1319.6393    7369.6237     9.562242   0.19933167 
   48400   -285.54419    17.101955   -268.44223    1236.5092    7345.9341    9.5791518   0.19002446 
   48500   -284.80724    14.187386   -270.61985    1025.7794   -20372.867    9.2683573   0.21213463 
   48600   -284.24801    15.562033   -268.68597    1125.1694   -14698.511    9.2943806   0.26434554 
   48700   -283.16491    16.786433   -266.37848    1213.6962    3374.8072    9.4512266   0.27461083 
   48800   -286.50625    15.181561   -271.32469    1097.6605    5529.4966    9.6289075   0.17547979 
   48900   -286.48515    15.712121   -270.77302    1136.0211    2035.0349    9.5753232   0.16889523 
   49000   -283.61685    16.955062   -266.66179    1225.8885   -501.96289    9.4556477   0.20239967 
   49100   -285.68938    16.013329   -269.67605    1157.7991    11866.118     9.645611   0.20926644 
   49200   -286.80434      15.7637   -271.04064    1139.7504    5319.3384    9.6413118   0.19578932 
   49300   -283.37252    16.014019    -267.3585     1157.849   -20628.314    9.2052673    0.2739819 
   49400   -283.67919    15.185012   -268.49418      1097.91   -2241.0342     9.379696   0.24959408 
   49500   -287.33021    16.459319   -270.87089    1190.0452    2196.9923    9.5988382     0.189644 
   49600    -285.3331    17.756004   -267.57709    1283.7983    3703.8888    9.5362635   0.19264664 
   49700   -282.88678     15.56631   -267.32047    1125.4786    149.50085    9.4130339   0.22469786 
   49800   -287.07487    16.087469    -270.9874    1163.1596   -8880.5647    9.4707412   0.22310078 
   49900   -286.31072    17.301487   -269.00924    1250.9358   -8393.1879    9.4427561   0.22706588 
   50000   -284.03713    17.544483   -266.49264     1268.505    9315.5336    9.5448414   0.26028052 
   50100   -287.95155    17.509573   -270.44197    1265.9808    7624.1263     9.711598   0.14633049 
   50200   -289.05064    16.928217   -272.12242    1223.9475    2190.5593     9.668514   0.15439281 
   50300   -283.11769    15.549086    -267.5686    1124.2333   -12020.056    9.2819329   0.24443643 
   50400   -283.92153    16.178492   -267.74304    1169.7408   -5750.2884    9.3976998   0.24866257 
   50500   -287.54853    16.156795   -271.39173     1168.172    10087.102    9.7198145   0.17098472 
   50600   -287.30719    16.390147   -270.91704    1185.0439   -5183.7525    9.5428452   0.18473334 
   50700   -287.31173    19.063662   -268.24806    1378.3449   -10893.024    9.4688911    0.2128067 
   50800   -288.58745    18.194921   -270.39253     1315.533    1487.0288    9.6335343   0.18724649 
   50900   -288.25033    15.047453   -273.20287    1087.9642    8044.0168    9.7295011   0.14240131 
   51000   -283.70805    15.316158   -268.39189    1107.3921   -5664.2637    9.3568865   0.24995509 
   51100   -283.52273    16.125685   -267.39704    1165.9227   -1717.8259    9.4039382   0.25168174 
   51200   -285.06736    15.843889   -269.22348    1145.5482    2486.5838    9.5156783   0.21140618 
   51300   -289.27873    16.277176   -273.00155    1176.8758   -1670.7394    9.6365191   0.14567783 
   51400   -284.60255    15.168931   -269.43362    1096.7472   -1725.8032    9.4518277   0.19061775 
   51500   -285.70264    17.062296   -268.64034    1233.6417   -9758.4783    9.4228742    0.1930681 
   51600   -288.79028    16.404006   -272.38627    1186.0459     8954.753    9.7504557   0.13144065 
   51700   -287.81309    15.828992    -271.9841    1144.4712     5982.177    9.6951637    0.1619524 
   51800   -285.71564    17.367817   -268.34782    1255.7316    -1658.694    9.5063224   0.17304775 
   51900   -287.66893    17.378629    -270.2903    1256.5133   -7112.2368    9.5113839    0.1800841 
   52000   -288.54843     19.14941   -269.39902    1384.5447    7877.3426    9.7079834   0.14669893 
   52100   -284.81783    19.017859   -265.79997    1375.0333    5824.1217    9.5518862   0.16337395 
   52200   -286.59564    16.543986   -270.05165    1196.1668     5902.603    9.6336328   0.17224237 
   52300   -286.95753    17.814854   -269.14268    1288.0533    5583.0791    9.6384539    0.1831351 
   52400    -286.1297    21.090542   -265.03915    1524.8929    6626.2591    9.5850251   0.19723798 
   52500   -287.73817    17.607891   -270.13028    1273.0895   -10880.451    9.4928409   0.17748897 
   52600   -285.17814    14.721372   -270.45677    1064.3878   -4009.3083      9.46496    0.1825793 
   52700   -285.54968    16.287101   -269.26258    1177.5934    1977.2994    9.5235481   0.18682784 
   52800   -283.69208     19.11863   -264.57345    1382.3193    8195.0872    9.5004498   0.19441231 
   52900   -287.45859    18.977496   -268.48109    1372.1149    2101.4997    9.6039239   0.17393013 
   53000   -287.29158    17.218214   -270.07336     1244.915    4886.8938    9.6442107   0.15286811 
   53100   -287.36384     18.73905   -268.62479    1354.8747    -10962.09    9.4699777    0.1595122 
   53200   -283.52032     17.16463   -266.35569    1241.0407    10200.179    9.5283352   0.20990224 
   53300    -286.0081    19.028764   -266.97933    1375.8217    19503.944    9.7432001   0.16489645 
   53400   -285.71441     15.27847   -270.43594    1104.6672    5533.3058    9.5862998   0.17431956 
   53500   -285.57384    17.260619   -268.31322    1247.9809    82.518353    9.4937749   0.17880929 
   53600   -283.52694    14.330271   -269.19666    1036.1103    2927.5219    9.4687555   0.22322846 
   53700   -286.39354    12.885076   -273.50846    931.61947   -3924.5756    9.5408221   0.21646893 
   53800   -286.53737    17.120503   -269.41687    1237.8502   -10856.046    9.4410117   0.22013593 
   53900   -286.36862    17.539839   -268.82878    1268.1692    4804.4805    9.5961235   0.19084486 
   54000   -287.44887    15.738147   -271.71072    1137.9028     11312.29    9.7189296   0.15869258 
   54100   -288.37067    15.005705   -273.36497    1084.9456   -7724.6283    9.5615901   0.16431343 
   54200   -284.90358    16.582426   -268.32115    1198.9461   -17036.771    9.3114827   0.23131605 
   54300   -285.65238     16.78851   -268.86387    1213.8464    10983.201    9.6330087   0.22027269 
   54400   -286.34189     15.80519    -270.5367    1142.7502    14448.941    9.7256061   0.20095153 
   54500   -287.85915    13.516685   -274.34246    977.28622   -11639.209    9.5056968   0.19156197 
   54600   -286.23339     16.52626   -269.70713    1194.8851   -9333.3938    9.4135442   0.18947499 
   54700   -284.15765    15.743789   -268.41386    1138.3107    590.93297    9.4433159    0.2851774 
   54800   -283.72915     15.94027   -267.78888    1152.5167     -1044.48    9.4096806    0.2309181 
   54900   -289.28707    17.162649   -272.12442    1240.8975     766.7014    9.6496545   0.15213365 
   55000    -285.9969    16.393324   -269.60358    1185.2736    12376.435    9.6714817   0.18913772 
   55100   -283.80786    17.226337   -266.58153    1245.5023    2619.5166    9.4627572   0.22704965 
   55200   -286.83564    16.346425   -270.48922    1181.8827   -7662.8901    9.4978542   0.19602354 
   55300   -286.11359    15.326429   -270.78716    1108.1347    3064.8079    9.6032691   0.20900411 
   55400   -285.55181    17.800312    -267.7515    1287.0019   -3433.6468    9.4848459   0.17663802 
   55500   -287.02423     15.66467   -271.35956    1132.5903    5467.5147    9.6182146   0.16642611 
   55600     -286.897    16.185768   -270.71123    1170.2668    6291.8541    9.6461263   0.16331494 
   55700   -285.05841    17.877491   -267.18092    1292.5821   -5232.4314    9.4156337   0.22339855 
   55800   -285.11151    14.362187   -270.74933    1038.4179   -71.206831    9.4811061   0.23054179 
   55900   -287.23387     14.86682   -272.36705     1074.904    -9300.341    9.4989033   0.18143885 
   56000   -286.25637     19.60951   -266.64686     1417.811    474.77413    9.5321955   0.18922885 
   56100   -285.99681    18.210086   -267.78673    1316.6295    4111.4731    9.5749607   0.18103466 
   56200   -287.88654    16.805912   -271.08063    1215.1046     6627.978    9.6806602   0.16339331 
   56300   -285.75573    17.146363   -268.60937      1239.72    811.13819    9.5148796   0.19379323 
   56400   -282.73924    17.120042   -265.61919    1237.8169   -10205.608    9.2849903   0.25896585 
   56500   -287.15523    16.802222   -270.35301    1214.8378    3348.3686    9.6138212   0.16693029 
   56600   -287.17117    16.161299   -271.00987    1168.4976    4665.3859    9.6436082    0.1512626 
   56700   -284.66894    18.035375   -266.63357    1303.9975    8980.8285    9.5700348   0.18711478 
   56800      -285.72    17.087162   -268.63284    1235.4396    6871.7061    9.6003075   0.19815953 
   56900   -286.87884    16.286719   -270.59212    1177.5658    -26701.09    9.2947926   0.20018918 
   57000   -282.26756    13.908369   -268.35919    1005.6058    6388.9166    9.4982021   0.21280039 
   57100    -283.4501    17.310527   -266.13957    1251.5894    16947.621    9.6334657   0.21807773 
   57200    -289.3379    18.341548   -270.99636    1326.1345    6622.5443    9.7459745   0.15546086 
   57300   -286.74449    16.480387   -270.26411    1191.5685    7333.3513    9.6642298   0.19111873 
   57400   -284.16902    17.165532   -267.00349    1241.1059   -12683.455    9.3033839   0.23236193 
   57500   -284.57141    16.539125   -268.03229    1195.8154   -10865.841    9.3336761   0.25276241 
   57600   -287.32171    15.977477   -271.34424    1155.2069    2968.0762    9.6506455   0.16428645 
   57700   -286.19238    18.058483    -268.1339    1305.6682    8816.3361    9.6228882    0.1708481 
   57800   -282.63476    16.771694   -265.86307    1212.6306    5866.0853    9.4657792   0.20951248 
   57900   -287.61924    16.307708   -271.31154    1179.0834     300.5186     9.626527   0.18698017 
   58000   -286.47808    16.687954   -269.79012     1206.576    3377.4565    9.6013059   0.16320272 
   58100     -286.771    18.619673   -268.15133    1346.2435   -7945.6235    9.4974523   0.18505308 
   58200   -290.07842    17.473066   -272.60535    1263.3413     5299.842     9.763251   0.12819838 
   58300   -287.98656    16.216692   -271.76987    1172.5027    6919.2114    9.7002371   0.15859972 
   58400   -284.88502    16.342577   -268.54244    1181.6045   -8720.3529    9.3771959   0.21849282 
   58500   -286.19371     17.86469   -268.32902    1291.6566    3251.0877    9.5698254   0.18627081 
   58600   -287.41461    14.844477   -272.57013    1073.2885    18224.789    9.8161982   0.16349222 
   58700    -287.4105    14.636389   -272.77412    1058.2433    6531.4826     9.669631   0.16607488 
   58800   -285.85474    16.446125   -269.40861    1189.0912   -8797.1381    9.4159541   0.20711662 
   58900   -286.62662    17.330931   -269.29569    1253.0647   -11766.306    9.4062368   0.20902571 
   59000   -288.64051    15.417625   -273.22289    1114.7284    1233.6894    9.6543959   0.14316444 
   59100   -288.02797    16.066685   -271.96129    1161.6568    11127.146    9.7482489   0.14557036 
   59200   -285.60856    16.185777   -269.42278    1170.2675   -17722.002    9.3325938   0.23383221 
   59300   -284.84047    15.403265    -269.4372    1113.6901   -10720.002    9.3610748   0.25586589 
   59400   -285.30904    17.993584   -267.31546    1300.9759    5537.6418    9.5645541   0.19583453 
   59500   -285.16507    17.049904   -268.11516    1232.7458   -153.17737    9.4927295   0.20342866 
   59600   -285.36016    14.006789   -271.35338    1012.7218    7053.2836    9.6085528   0.20707945 
   59700   -285.53373    17.144861   -268.38887    1239.6114   -2117.5882    9.4930113   0.19492214 
   59800   -285.51343    16.783851   -268.72958    1213.5095   -2898.2111    9.4943783   0.22074734 
   59900   -288.38642    15.197839   -273.18859    1098.8374    4859.3341    9.6910387   0.20367105 
   60000   -285.76265    15.385482   -270.37716    1112.4044   -476.03277    9.5600374   0.19052883 
   60100   -286.04088    18.265234   -267.77565    1320.6168   -7876.0153    9.4377124   0.21486696 
   60200    -285.1507    16.367407    -268.7833    1183.3997     4350.743    9.5442177   0.20993327 
   60300   -287.08266    14.819496   -272.26317    1071.4823   -6789.7088    9.5262593   0.18838339 
   60400   -284.85076    15.892734   -268.95803    1149.0798   -7337.2426    9.4108751   0.24090372 
   60500   -284.32101     17.68386   -266.63715    1278.5822    12651.562    9.5888152   0.21521928 
   60600   -288.48251    17.537993   -270.94452    1268.0357    1328.5341     9.634762    0.1568149 
   60700   -287.65117    16.871811   -270.77936    1219.8692   -13163.013    9.4685971   0.17029328 
   60800   -285.28107     18.74718   -266.53389    1355.4626    10859.032    9.6155883   0.20920571 
   60900   -287.48598    21.473762   -266.01222    1552.6005    18563.768    9.7707087   0.14941076 
   61000   -286.58285    15.799413   -270.78344    1142.3325    4386.8252    9.5984877   0.16144456 
   61100   -286.15842    16.038757   -270.11967    1159.6376   -5138.2218    9.4915065   0.19366026 
   61200   -286.11332    18.385359   -267.72796    1329.3021   -13619.443    9.3639391   0.23613145 
   61300   -283.98511    18.894583   -265.09053    1366.1201   -14758.873    9.2749504   0.25368146 
   61400   -287.31285    16.944685   -270.36816    1225.1382    1944.8779    9.6128622   0.18924194 
   61500   -288.33601    18.707735   -269.62828    1352.6106   -5372.1472    9.5402473   0.16841459 
   61600   -284.96995    18.329634   -266.64031    1325.2731   -5867.6245     9.375649   0.20188187 
   61700   -282.97978    16.488449   -266.49134    1192.1514    -727.0599    9.3975598   0.23824067 
   61800   -288.38763    17.495471   -270.89216    1264.9613   -2319.2897    9.6092605   0.17621341 
   61900   -288.33017    19.167584   -269.16258    1385.8587    10040.136    9.7453638   0.15696763 
   62000   -286.19558    19.318276    -266.8773    1396.7541   -1613.1764    9.5084408   0.20224114 
   62100   -282.63908    17.066395   -265.57268    1233.9381   -5150.7679    9.3351531   0.24108718 
   62200   -286.92547    15.539103   -271.38637    1123.5115   -9849.5029    9.4752151   0.20600488 
   62300   -287.87824     17.94619   -269.93205    1297.5492    -494.1632    9.5767325   0.19282571 
   62400    -285.2879    17.668346   -267.61956    1277.4605    11493.853    9.6256173   0.18897928 
   62500   -284.99737     17.50432   -267.49305    1265.6011   -4778.2919    9.4280267   0.23095151 
   62600   -287.79593    15.312928     -272.483    1107.1585   -7241.1627    9.5344991   0.18595148 
   62700   -289.12804     19.31136   -269.81668    1396.2541   -3339.4882    9.5996072   0.16336927 
   62800   -285.25619    18.570614   -266.68557    1342.6965    11783.077    9.6549587   0.17943059 
   62900   -285.66421    14.924908   -270.73931    1079.1038   -1437.6115    9.4888426    0.2118421 
   63000   -286.86102    15.142882   -271.71814    1094.8638   -7776.2826    9.4811186   0.17788115 
   63100   -283.45427     16.66238   -266.79189    1204.7269    -6585.736    9.3298748   0.23216715 
   63200   -286.22787    17.533153   -268.69471    1267.6858    3036.8931    9.5815341    0.1985931 
   63300   -288.45948     17.83728    -270.6222    1289.6748     375.7464    9.6092389   0.17374845 
   63400     -285.169    17.754882   -267.41412    1283.7172   -7051.7349    9.4040333   0.21492104 
   63500   -283.28214     17.59365   -265.68849    1272.0598   -2538.6892     9.373406    0.2138925 
   63600   -287.79992    17.589024    -270.2109    1271.7253    6562.3805    9.6651042   0.17217971 
   63700   -286.19157    16.375925   -269.81564    1184.0156    797.89992    9.5560036   0.20348172 
   63800   -283.23811      17.0662   -266.17191     1233.924   -20365.622    9.1777335   0.24967284 
   63900   -282.91951    14.870243   -268.04927    1075.1514   -9725.4947    9.2928981   0.26901028 
   64000   -286.45366    14.511317   -271.94234    1049.2003     16628.07    9.7458137   0.16040153 
   64100   -288.41238    19.567458   -268.84492    1414.7705   -2624.6314    9.5769687   0.14833027 
   64200   -285.24814    17.422204   -267.82593    1259.6639   -1364.7431    9.4711795   0.19528941 
   64300   -288.10191    15.802117   -272.29979     1142.528   -790.09775    9.6329288   0.15873999 
   64400   -286.66508    17.077202   -269.58788    1234.7195   -738.52251    9.5571868    0.1865153 
   64500   -285.39149     17.77611   -267.61538    1285.2521   -12476.222    9.3563964   0.23634447 
   64600   -287.13748    15.894888    -271.2426    1149.2355    17.582841    9.5827055    0.1531192 
   64700   -288.47759    16.892602   -271.58499    1221.3725    16039.184    9.8279693   0.14904852 
   64800   -285.40605    17.295383   -268.11066    1250.4944   -2547.4409    9.4626729   0.22865481 
   64900   -283.85023     17.35029   -266.49995    1254.4643   -11681.907    9.2873883   0.25239959 
   65000   -288.51591    17.068191   -271.44772    1234.0679   -7903.2487     9.515353   0.17738948 
   65100   -287.42262    17.824835   -269.59778     1288.775    538.78964    9.6085553   0.15568258 
   65200   -284.14668    17.806664   -266.34002    1287.4612    1667.2721    9.4653337    0.2469784 
   65300   -285.97382    17.044559   -268.92926    1232.3593   -2002.6604    9.5093761   0.20012653 
   65400   -287.43003    16.433604   -270.99643    1188.1859   -4402.9182    9.5498143   0.17122449 
   65500   -287.19111    17.661554   -269.52956    1276.9694   -590.35986    9.5553957   0.17846009 
   65600   -283.00333    17.752549   -265.25078    1283.5486    8058.1277    9.4841944   0.24142021 
   65700   -283.86638    15.766797   -268.09958    1139.9743    2852.2347    9.4755228   0.19819668 
   65800   -287.47783    17.122567   -270.35526    1237.9995   -3212.3826     9.555927   0.17693994 
   65900     -288.069    19.543933   -268.52507    1413.0696    4864.4674    9.6353716   0.16663993 
   66000   -285.82847    17.405248   -268.42322    1258.4379    9577.0709    9.6009511   0.18769844 
   66100    -287.3234    13.645424   -273.67798    986.59436   -11584.088    9.4905788   0.16547776 
   66200   -285.71664    14.887344   -270.82929    1076.3879    -135.1938    9.5152387   0.21714335 
   66300   -285.15766    16.708295   -268.44936    1208.0467    2687.2741     9.541097   0.19452269 
   66400   -286.42407     15.66739   -270.75668    1132.7869   -11070.766    9.4271881   0.22616935 
   66500   -287.86362    15.873757   -271.98986    1147.7077   -879.82049    9.5937346   0.20033166 
   66600   -283.87592    17.074457   -266.80147     1234.521    25045.461    9.7281588   0.21727815 
   66700   -286.44757    18.088597   -268.35897    1307.8455    -816.0733     9.534756   0.21423666 
   66800   -288.16841    16.519733   -271.64868    1194.4132   -14309.058    9.4724901   0.16683878 
   66900   -289.71471    17.141128   -272.57359    1239.3415   -9336.0728    9.6110313   0.12593575 
   67000   -284.41086    17.256663    -267.1542    1247.6949    7864.1648    9.5599753    0.2031423 
   67100   -286.84063    18.049078   -268.79156    1304.9883    1160.2511    9.5637982   0.21282009 
   67200   -287.93581    15.196246   -272.73956    1098.7222   -5250.9945    9.5550206   0.17585176 
   67300    -285.1676    13.965009   -271.20259     1009.701   -1778.6382    9.4994309   0.20460417 
   67400    -285.6143    16.992428   -268.62187    1228.5901    4762.8837    9.5415286   0.21214598 
   67500   -287.11264     17.70058   -269.41206    1279.7911   -2384.9179    9.5295374   0.18656985 
   67600   -288.26133    14.650874   -273.61046    1059.2906   -10945.107      9.51469   0.16506634 
   67700   -286.73291    17.218406    -269.5145    1244.9288    5783.9007    9.6335593   0.17352611 
   67800   -285.98692    18.203438   -267.78348    1316.1488    15919.115    9.6969873   0.16377485 
   67900   -287.34308    16.568928   -270.77415    1197.9702    1368.5631    9.6010971   0.16770321 
   68000   -285.97714    13.400355   -272.57679    968.87529    -9624.167    9.4516206   0.19848183 
   68100   -285.14483    16.291959   -268.85287    1177.9447   -10441.604    9.4195978   0.18926452 
   68200   -287.29746    17.288341   -270.00912    1249.9853     11556.47    9.6969616   0.15551471 
   68300    -289.4794    16.255941   -273.22346    1175.3405    4310.8181    9.7191127     0.136797 
   68400   -286.67814      16.7718   -269.90634    1212.6382   -7756.1602    9.4658058   0.19273756 
   68500    -285.8518    17.170922   -268.68088    1241.4956   -36.375508    9.5337901   0.22028745 
   68600   -286.82072    17.182712   -269.63801    1242.3481    14624.006     9.720141   0.16143327 
   68700   -288.18954    17.100441    -271.0891    1236.3997    11249.033    9.7532026    0.1418323 
   68800   -282.77891     16.32452   -266.45439    1180.2989    1197.9707    9.4091525   0.21491264 
   68900   -286.67264     18.83554    -267.8371    1361.8512   -8996.7922    9.4492234   0.18548158 
   69000   -285.95909    15.968047   -269.99104    1154.5251    3543.4035    9.5705336   0.20810557 
   69100   -286.80381    18.358825   -268.44499    1327.3837   -1923.7384    9.5358922   0.15934537 
   69200   -287.92217    15.180584   -272.74159    1097.5898     3182.153    9.6578033   0.16706255 
   69300   -287.61743     15.75204   -271.86539    1138.9073   -4605.3676    9.5413941   0.17836146 
   69400   -286.68908    17.892791   -268.79629    1293.6884   -6853.0088    9.4800857   0.18768608 
   69500   -287.92499    18.439594    -269.4854    1333.2234    5397.6898     9.654001   0.16312896 
   69600   -290.06336    17.294665   -272.76869    1250.4425    8507.8236    9.7732684   0.11276202 
   69700   -286.82387    17.933993   -268.88987    1296.6674   -13867.257    9.4024934   0.19602346 
   69800    -285.5423    17.261153   -268.28114    1248.0195   -14799.273    9.3500255   0.19070989 
   69900   -285.52744    15.716013   -269.81142    1136.3025    14579.998    9.6718366   0.19141709 
   70000   -285.49028     18.71296   -266.77732    1352.9884    7963.9483    9.6085845   0.21478668 
   70100   -284.21437     18.78982   -265.42455    1358.5456   -3550.9279    9.3993472   0.23272293 
   70200   -285.86968     16.21247   -269.65721    1172.1974    -8370.658    9.4572611    0.2209987 
   70300   -286.04885    16.370433   -269.67842    1183.6185    349.80559     9.550397   0.18780105 
   70400   -286.38524    19.450863   -266.93438    1406.3404     8719.952    9.6215434   0.18382103 
   70500   -282.19217    17.933551   -264.25862    1296.6354    10942.829    9.5114068   0.23004027 
   70600   -286.12442    16.976084   -269.14834    1227.4084   -9246.8309    9.4317504   0.21279873 
   70700   -286.90737    17.711596   -269.19577    1280.5876   -1328.7206    9.5372249    0.1969881 
   70800   -287.43223    18.851671   -268.58056    1363.0175   -5878.1099    9.5113927   0.16170504 
   70900   -290.26384    16.457755   -273.80609    1189.9321    4268.4436    9.7640334    0.1464583 
   71000   -285.96341    14.643105   -271.32031    1058.7289      7054.14    9.6308281   0.17594951 
   71100   -285.07499    15.911859   -269.16313    1150.4626      -5419.6    9.4249216    0.2335401 
   71200   -283.93475    17.616585   -266.31817    1273.7181   -15712.662    9.2683425   0.24244205 
   71300   -286.19027    15.721127   -270.46915    1136.6722   -3413.9568    9.4976169   0.22307374 
   71400   -288.69082    18.417026   -270.27379    1331.5917    6949.2775    9.7125446   0.16613031 
   71500   -286.72416    19.734056    -266.9901    1426.8159    14238.639    9.6991953   0.19525813 
   71600   -283.21528    18.365008   -264.85027    1327.8307    2361.1703    9.4448843    0.2421041 
   71700   -287.03495    17.390442   -269.64451    1257.3674    -6598.988    9.5090062   0.23440124 
   71800   -286.84224    16.281613   -270.56062    1177.1967   -10018.289    9.4534241   0.18882352 
   71900   -283.41031    14.027651   -269.38266    1014.2302    2593.0863    9.4743621   0.21664031 
   72000    -285.7128    20.034147   -265.67865    1448.5131    5645.2601     9.573735   0.18089222 
   72100   -288.81496    19.286231   -269.52873    1394.4371    9356.2476    9.7349752   0.15171532 
   72200    -287.8204    16.890986   -270.92941    1221.2557   -4764.4752    9.5479172   0.17191695 
   72300    -284.8548    15.628691   -269.22611    1129.9889   -12681.421    9.3699139   0.19669526 
   72400   -283.55962    18.373289   -265.18633    1328.4294    1996.8202    9.4687913   0.22201023 
   72500   -284.77624    17.163195   -267.61304    1240.9369     4226.366    9.5251345   0.24924448 
   72600   -287.71234    16.776314   -270.93603    1212.9646   -3122.6403     9.574319   0.16200209 
   72700   -289.48086    18.909619   -270.57124    1367.2073   -7407.4741    9.5672434   0.16600502 
   72800   -283.56131    18.035926   -265.52539    1304.0373    13259.445    9.5832787   0.23511348 
   72900   -286.97742     17.71113   -269.26629    1280.5539    17367.221    9.7606328   0.19018823 
   73000   -286.41656    15.977322   -270.43924    1155.1957   -13368.545    9.4057912   0.20398501 
   73100   -283.74029    17.066516   -266.67377    1233.9469   -4960.4992    9.3563294   0.24652033 
   73200   -284.99145    16.677269   -268.31419    1205.8035     3257.632    9.5330267   0.19398131 
   73300    -288.2277    18.603484   -269.62421     1345.073   -376.96253     9.609666   0.15488129 
   73400   -286.69846    17.465822   -269.23264    1262.8176   -547.14887    9.5437159   0.16830976 
   73500   -285.43583    19.790696   -265.64513    1430.9111     1075.858    9.5036065   0.22634608 
   73600    -281.9097    16.971026   -264.93867    1227.0427    12100.251    9.4936733   0.21640451 
   73700    -285.2416    16.490192   -268.75141    1192.2774   -9954.8404    9.3709232    0.2136828 
   73800   -287.31809    17.259837   -270.05825    1247.9244   -4026.5427    9.5151238    0.1726028 
   73900   -288.12335    18.550115   -269.57323    1341.2144    9015.7188    9.7153999   0.14576975 
   74000   -282.32506    18.320099   -264.00497    1324.5837    11166.452    9.4810134   0.26177597 
   74100   -284.21434    15.852859   -268.36148    1146.1968    1703.7759    9.4896032   0.18189908 
   74200   -286.15752    15.965583   -270.19193     1154.347   -12671.316    9.4077423   0.19105989 
   74300   -287.49222    18.766642   -268.72557    1356.8697    4453.8675    9.6273191   0.17623414 
   74400   -283.79038    19.211614   -264.57877    1389.0422    11106.314    9.5581112   0.20209456 
   74500    -286.9292    17.794278   -269.13492    1286.5657   -1914.6674    9.5457171   0.18124145 
   74600   -288.29775    17.335431   -270.96232      1253.39     617.5434    9.6223724   0.17402163 
   74700    -283.9042    16.407293    -267.4969    1186.2836    7163.1526    9.5370154    0.2333864 
   74800   -282.31444     16.16735   -266.14709    1168.9352   -2391.7976     9.344042   0.26350357 
   74900   -286.05776    15.336782   -270.72098    1108.8832    -881.9891    9.5354341   0.20226618 
   75000   -287.03834    16.508258   -270.53008    1193.5836   -444.59303    9.5910389   0.17638847 
   75100   -283.32272    17.750527   -265.57219    1283.4023    16376.493    9.6204058   0.21913296 
   75200    -284.7122     16.88558   -267.82662    1220.8648    542.11804    9.4929137   0.21552245 
   75300    -286.5545    15.695791   -270.85871    1134.8404   -12146.296    9.4542604   0.18441628 
   75400    -286.9524    17.765978   -269.18642    1284.5195    333.45716     9.565947   0.20506856 
   75500   -282.41301    16.587066   -265.82594    1199.2815    11057.172    9.5006835   0.27227513 
   75600   -287.23231     17.82073   -269.41158    1288.4782   -620.14283    9.5582122   0.16104373 
   75700   -286.92566    14.450404   -272.47526    1044.7962   -429.35804    9.5855908   0.17259847 
   75800   -287.94829    18.963241   -268.98505    1371.0843    -2033.195    9.5874328   0.18837169 
   75900    -287.4972    20.945329   -266.55187    1514.3936    526.14275    9.5767006   0.18721045 
   76000   -287.54008     16.65662   -270.88346    1204.3105   -7809.0853    9.5194015   0.19803259 
   76100   -288.11521    15.811273   -272.30394      1143.19   -13861.989    9.4665687   0.17225311 
   76200   -284.59978    16.862371   -267.73741    1219.1867   -7832.3106    9.3633031     0.233464 
   76300   -285.02364    17.819273   -267.20437    1288.3729    -5350.968    9.4205214   0.22775175 
   76400   -288.45427    17.991525   -270.46275     1300.827   -937.60682    9.6162167    0.1649082 
   76500   -287.72468    16.481817   -271.24286    1191.6718    654.80049     9.610199   0.15529334 
   76600   -282.76523    16.013486   -266.75174    1157.8104    11062.055    9.5033216    0.2225677 
   76700   -285.01753    15.996295   -269.02124    1156.5675    256.68706    9.5213627   0.22607342 
   76800   -286.62676    14.872243   -271.75452     1075.296    2744.4127    9.6128512   0.18262828 
   76900   -284.77255    17.315953    -267.4566    1251.9817    5318.9215    9.5639538   0.21519758 
   77000   -286.91654     20.93375   -265.98279    1513.5564    7468.1744    9.6402046   0.17093562 
   77100   -288.69509    19.134805   -269.56029    1383.4887    17052.027    9.8350905   0.15305474 
   77200   -286.42439    16.562449   -269.86194    1197.5017     1016.832    9.5793927   0.15762829 
   77300   -283.41878    17.371083    -266.0477    1255.9677   -7107.7761    9.3434875   0.21801637 
   77400   -283.94835    17.602068   -266.34628    1272.6685   -9355.0936    9.3311556   0.23603201 
   77500   -287.59785    17.561176   -270.03668    1269.7119   -7950.5197    9.4987234   0.19439056 
   77600    -286.7615    17.266642   -269.49486    1248.4164    559.28057    9.5857561   0.19253207 
   77700   -285.51734    20.611556   -264.90578    1490.2611     3915.159    9.5363018   0.19931877 
   77800   -287.66377    19.527604   -268.13616    1411.8889    12226.588    9.7009886   0.16593008 
   77900   -287.42308    16.458355   -270.96472    1189.9755    1841.1886    9.6223284   0.17138679 
   78000   -284.44909    15.762804   -268.68628    1139.6856   -5451.1843    9.4125034   0.20153269 
[...]
  481400   -288.60055     16.11934   -272.48121     1165.464   -10074.328    9.5362302   0.15954396 
  481500   -284.91065    14.648509   -270.26214    1059.1196   -5193.2685    9.4234012   0.21406633 
  481600   -283.57757    16.455185   -267.12238    1189.7463   -13970.592    9.2621037   0.28046418 
  481700   -286.58102    17.267235   -269.31379    1248.4593   -2795.4312    9.5160845   0.20528206 
  481800   -289.28854    17.568451   -271.72009    1270.2378    12480.573    9.7865687   0.13927175 
  481900   -283.97805    16.520583   -267.45747    1194.4747    4503.1035    9.5012248   0.18815955 
  482000   -284.39098    16.602747   -267.78824    1200.4153     10158.86    9.5733312   0.21471401 
  482100   -287.30185    15.719606   -271.58225    1136.5623   -1901.8744    9.5742889   0.18240091 
  482200    -285.7799    16.281121   -269.49878     1177.161   -9992.4192    9.4017382   0.20696473 
  482300   -281.99744     15.37322   -266.62422    1111.5178   -5548.4266    9.3139178   0.24831671 
  482400   -286.80945    16.626495   -270.18295    1202.1324    686.44209    9.5946148   0.17655964 
  482500   -289.10249    18.174025   -270.92846    1314.0222   -2007.8228    9.6392311   0.15709323 
  482600   -284.35785     17.61932   -266.73853    1273.9158    11946.297    9.6027256   0.21401565 
  482700   -286.19196     17.53526    -268.6567    1267.8381    4171.0889    9.5635158   0.16513398 
  482800   -287.85004    16.343935    -271.5061    1181.7027   -4661.6742    9.5740095   0.15706244 
  482900   -285.84111    17.141255   -268.69985    1239.3507   -2338.7655    9.5159992   0.23486498 
  483000   -284.48344    17.221656   -267.26178    1245.1638   -9063.1791    9.3883868   0.27483058 
  483100   -287.59562    15.933245   -271.66238    1152.0089    3726.5635    9.6513808   0.19070597 
  483200   -288.62135    17.936331   -270.68502    1296.8364    5719.9675    9.7071472   0.17092202 
  483300   -285.79364    18.833253   -266.96039    1361.6859    2.9171156    9.5319025   0.22877246 
  483400   -286.94645    16.281868   -270.66458    1177.2151   -1100.2097    9.5656756   0.19501774 
  483500   -286.78006    15.561186   -271.21888    1125.1082    2916.2268    9.6164433   0.16203865 
  483600   -285.24784    18.536185   -266.71165    1340.2072   -9969.6212    9.3911313   0.19984201 
  483700   -286.03262     16.59565   -269.43697    1199.9022    122.85879     9.562893   0.21945525 
  483800   -287.80327    16.097615   -271.70566    1163.8932     4413.641    9.6626296   0.17099915 
  483900   -283.89475     17.16568   -266.72907    1241.1167   -1758.3388    9.4179852   0.26688108 
  484000   -283.43776     18.05701   -265.38075    1305.5618   -726.04202    9.3901273   0.23438972 
  484100   -286.83774    16.735017   -270.10272    1209.9788   -2359.4677    9.5243655   0.19833625 
  484200   -286.90497    16.628342   -270.27663    1202.2659    7485.7708    9.6459987   0.18275412 
  484300   -283.73089    18.169564   -265.56133    1313.6997   -10620.735    9.3139332   0.23203649 
  484400   -285.75794    17.521252   -268.23669    1266.8253   -1494.8609    9.5041827   0.20360518 
  484500    -288.1263     17.07683   -271.04947    1234.6926     4807.002     9.669605   0.16295087 
  484600   -285.16644     16.88245   -268.28399    1220.6385     9984.008    9.6133191   0.16204483 
  484700   -284.08786    17.448714   -266.63915    1261.5806   -5353.9572    9.4018649   0.18400786 
  484800   -287.15444    15.397086   -271.75735    1113.2434    537.60119    9.5894845   0.18225034 
  484900   -287.60434     18.04455   -269.55979    1304.6609   -8856.6084    9.5033351    0.1802097 
  485000   -285.00964    16.938481   -268.07115    1224.6896   -8488.1034    9.4154213   0.20900387 
  485100   -289.37433    16.334945   -273.03938    1181.0526   -840.53682    9.6576464   0.13111718 
  485200    -286.9403    15.560093   -271.38021    1125.0292    11176.749    9.6985701   0.18504936 
  485300   -285.39683    16.581913   -268.81492     1198.909   -6137.9434    9.4534067    0.2055292 
  485400   -284.24617    13.880919   -270.36525    1003.6211   -6287.9792    9.4103517   0.22569667 
  485500    -287.7656     15.49171   -272.27389    1120.0849    2762.3854    9.6287102   0.17674728 
  485600   -285.08175    18.460077   -266.62167    1334.7044    1565.9095    9.4914274   0.22118875 
  485700   -287.00498     18.24502   -268.75996    1319.1553   -6896.9187    9.4676325   0.18102379 
  485800    -287.7168    16.389021   -271.32778    1184.9625    3915.9308    9.6336237   0.16502476 
  485900   -284.79135     17.34011   -267.45124    1253.7283    3628.0795    9.5351256   0.19036764 
  486000   -282.71772    15.790865   -266.92686    1141.7145    10497.444    9.5273563   0.24338809 
  486100   -285.91238    14.707656   -271.20473    1063.3961    -2668.848    9.5195869   0.18204681 
  486200   -285.44581    15.235214   -270.21059    1101.5397   -3135.4154    9.4802392   0.21579822 
  486300   -283.52743    16.725414   -266.80202    1209.2844     3940.391    9.4768741   0.25107545 
  486400   -286.87975    15.988683   -270.89106    1156.0172    8333.3153    9.6605326   0.17111399 
  486500   -286.82541    15.659368   -271.16604    1132.2069    1946.7316    9.5911473   0.18161018 
  486600   -284.31738    16.723277    -267.5941    1209.1299    4422.4413    9.5325519   0.21337457 
  486700   -286.53559    15.763561   -270.77203    1139.7403      952.999    9.5703836   0.18372656 
  486800   -287.02438     14.73961   -272.28477    1065.7064   -3076.6383    9.5540472    0.1758771 
  486900   -285.23271    17.295008    -267.9377    1250.4673    5266.1322    9.5472766   0.16432491 
  487000    -287.0817    16.388914   -270.69278    1184.9547    4163.7039    9.6195602    0.1744104 
  487100   -286.89104    14.020291   -272.87075    1013.6981   -16454.453    9.3992581    0.1934715 
  487200   -284.02582     16.10926   -267.91656    1164.7351   -14611.331    9.2875983   0.24454992 
  487300   -284.80712    17.070144   -267.73697    1234.2092   -3668.5721    9.4550285   0.22219709 
  487400   -288.45577      18.4322   -270.02357    1332.6888     4471.004    9.6539405   0.16713558 
  487500   -288.68433    18.318759   -270.36557    1324.4868    11943.896    9.7728822    0.1556699 
  487600   -282.87003    17.303128    -265.5669    1251.0545    7551.2879    9.4739618   0.24743393 
  487700   -284.92193    15.999358   -268.92257    1156.7889   -7022.5055    9.4093085   0.21503505 
  487800   -286.98366    15.465377   -271.51828     1118.181   -4638.1878    9.5512642   0.17439973 
  487900   -285.90266    16.920036   -268.98262    1223.3561    4701.7392    9.5558533   0.24343767 
  488000    -284.5896    17.527007    -267.0626    1267.2414    7175.8421    9.5557658    0.2290597 
  488100   -286.91152    17.530337   -269.38118    1267.4821   -9524.1584    9.4586303   0.19002525 
  488200    -287.5955    14.955892   -272.63961    1081.3441    1720.9017    9.6191688   0.16779866 
  488300   -287.95792    17.871646   -270.08628    1292.1595    2148.8443     9.611538   0.17477341 
  488400   -285.72866    17.749299   -267.97936    1283.3136   -100.53559    9.5136202   0.20552413 
  488500   -286.99874    16.867933   -270.13081    1219.5889   -138.89666    9.5717148   0.17774557 
  488600   -289.01813    16.903868   -272.11426     1222.187   -12193.708    9.4969585   0.18732436 
  488700   -283.14503    16.214037   -266.93099    1172.3108   -3814.0407    9.3741818   0.23691092 
  488800   -284.86192     16.71259   -268.14933    1208.3572    10579.536    9.6081405     0.192353 
  488900    -287.5256    16.075452   -271.45015    1162.2908    3353.2426    9.6379902   0.16436735 
  489000    -285.5017    17.471808    -268.0299    1263.2503    343.87903    9.5316249   0.21870884 
  489100   -284.69735     17.07163   -267.62572    1234.3166   -8936.8826    9.3813338      0.23817 
  489200   -288.63461    16.674581   -271.96003    1205.6091    5462.2588    9.6947146   0.18119542 
  489300   -285.57875     14.98435   -270.59441    1083.4016   -3856.3737    9.4882485   0.23037847 
  489400   -284.44868     17.05996   -267.38872    1233.4729   -18952.165    9.2641945   0.22315198 
  489500   -285.19453    15.166527     -270.028    1096.5734    9732.9997    9.5975916   0.17982419 
  489600   -287.71564    15.747923   -271.96772    1138.6097    5681.0599    9.6768904   0.17334796 
  489700   -285.05167     17.78401   -267.26766    1285.8232    7798.7919    9.5783421   0.21173861 
  489800   -284.90193    15.970632    -268.9313     1154.712    6747.4826    9.5574737   0.23400189 
  489900   -287.04761    17.000963   -270.04665    1229.2072   -9143.9199    9.4754407   0.18261774 
  490000   -285.02287    18.259341   -266.76353    1320.1908   -10943.087     9.377188   0.24729418 
  490100   -282.34985    18.625728   -263.72412    1346.6813    2141.8907    9.3865461   0.29218284 
  490200   -285.06916    15.408779   -269.66038    1114.0888     6600.137    9.5609249   0.19148935 
  490300   -285.24025    15.606453    -269.6338    1128.3811   -1523.8392    9.4928186   0.22134516 
  490400   -287.22999    18.607463   -268.62252    1345.3608   -4797.0127    9.5213215   0.18493262 
  490500   -283.09798    19.749617   -263.34836     1427.941    11093.143     9.507999   0.23125037 
  490600   -284.54303    18.642797   -265.90023    1347.9155    553.63598     9.478527   0.20441712 
  490700   -286.08311    16.355694   -269.72741    1182.5529    5139.0097     9.587425    0.1950083 
  490800   -285.13256    15.100603   -270.03196     1091.807   -5348.3487    9.4717644   0.21499393 
  490900   -287.55965    16.315789   -271.24387    1179.6676    2342.1167    9.6213947   0.19343453 
  491000   -290.93979    14.967465   -275.97232    1082.1808    7224.4438    9.8212211   0.14554316 
  491100   -289.13014     16.85175   -272.27839    1218.4188   -5866.8327    9.5949807   0.15503952 
  491200   -286.04504    15.737435   -270.30761    1137.8514   -6076.2571    9.4911362   0.17498833 
  491300   -286.27074    17.513429   -268.75731    1266.2596    4986.8818    9.5564266   0.19199979 
  491400   -285.57079    18.662364   -266.90842    1349.3302   -140.66276    9.4966132   0.20883017 
  491500   -282.74928    20.828712   -261.92057     1505.962   -3995.9398    9.3180727   0.23472199 
  491600   -285.96042    18.494117   -267.46631    1337.1655    3388.2755    9.5624539   0.19962366 
  491700   -284.87019    16.422547   -268.44764    1187.3865    13939.093    9.6538476    0.2273403 
  491800   -286.04883    17.333418   -268.71542    1253.2444   -12066.319     9.410719   0.21993932 
  491900   -286.31122    15.246675   -271.06455    1102.3684   -1482.0922    9.5442462   0.17745098 
  492000   -291.34245    18.180961   -273.16149    1314.5237    3727.4201    9.7868415   0.12427354 
  492100   -288.43292    18.922892   -269.51003    1368.1669    13387.394    9.7567648   0.13412247 
  492200   -287.10022    19.040977   -268.05925    1376.7047   -5591.9941    9.5100743   0.16727027 
  492300     -287.261     16.30647   -270.95454    1178.9938   -609.69458    9.5517056   0.17210179 
  492400   -287.57722    15.677137   -271.90009    1133.4917    227.22239    9.6043291   0.17120424 
  492500   -284.84374    16.905579   -267.93816    1222.3108    1469.8222    9.5008412   0.24781239 
  492600   -284.32006    15.714768   -268.60529    1136.2125   -10574.855    9.3484644   0.24157768 
  492700   -287.38037    14.335096   -273.04528    1036.4592   -3018.9321    9.5743714   0.17434458 
  492800    -288.5159    18.001328   -270.51457    1301.5359    1495.7033    9.6493004   0.15382912 
  492900   -287.12916       18.904   -268.22516     1366.801    4286.2207    9.6083379   0.15900738 
  493000   -288.67934    16.780867   -271.89847    1213.2938   -14099.795    9.4917638    0.1709302 
  493100   -286.70882    15.759389   -270.94943    1139.4387    2195.7643    9.5784486    0.1803449 
  493200   -285.39033    18.349946   -267.04038    1326.7417    6713.1984    9.5945223   0.19562279 
  493300   -287.97468    17.991956   -269.98273    1300.8582    9454.8062    9.7108225   0.14970081 
  493400   -287.61512    15.796004   -271.81911    1142.0861   -6628.3123     9.530018   0.14103893 
  493500    -283.5885    16.337586   -267.25092    1181.2436   -8899.5587    9.3440594   0.22159634 
  493600   -284.59274    16.506742     -268.086     1193.474   -6057.5578     9.416216   0.25223992 
  493700   -288.79602    17.407984   -271.38803    1258.6357    15189.263    9.8176186   0.16658083 
  493800    -286.0045    16.806058   -269.19844    1215.1152    16251.132    9.7332091     0.206652 
  493900   -284.01079    17.071756   -266.93904    1234.3257   -3422.4077    9.4002268   0.24473909 
  494000   -285.38318     14.58445   -270.79873     1054.488   -1567.9691    9.5143626   0.18316667 
  494100   -288.14788    16.657139   -271.49074     1204.348   -2586.5387     9.613698   0.18061953 
  494200   -285.80887    18.523615   -267.28526    1339.2983    4240.9338    9.5716726   0.20975383 
  494300   -285.87914    16.068438    -269.8107    1161.7836    8831.5464      9.62712   0.17738232 
  494400   -288.65512    16.603724    -272.0514     1200.486   -10848.725    9.5205744   0.17758287 
  494500   -283.97263    15.789029    -268.1836    1141.5818   -6141.7433    9.3851416   0.23537412 
  494600   -285.86248    16.303605   -269.55887    1178.7867   -5415.9126    9.4563525   0.25003696 
  494700   -286.92377    14.199994   -272.72377    1026.6909    11387.831    9.7198635    0.2070869 
  494800    -284.2754    15.478736   -268.79666    1119.1468   -1734.5289    9.4368576   0.23694435 
  494900   -283.00704    15.557048   -267.44999     1124.809   -15822.984    9.2739508   0.27890064 
  495000   -286.56887    15.252071    -271.3168    1102.7585    11586.046     9.675447   0.19748569 
  495100   -287.14176    17.355721   -269.78603     1254.857    4120.9019    9.6190383   0.21036059 
  495200    -285.7434    18.392701    -267.3507     1329.833    -7587.275    9.4105608    0.2122586 
  495300   -287.60795    18.011792   -269.59616    1302.2924     11113.28    9.7038108   0.15434115 
  495400   -288.95202    15.763156   -273.18887     1139.711    19252.589     9.879984    0.1184553 
  495500   -287.32951    16.339176   -270.99034    1181.3585    2296.0911    9.6025466   0.17392974 
  495600   -285.66554    16.177026   -269.48852    1169.6348   -9749.5365    9.4018925   0.19416869 
  495700   -286.64153    16.902978   -269.73856    1222.1227   -2440.4085    9.5295919   0.17958443 
  495800   -289.13379    16.004978   -273.12881    1157.1953    9055.0131    9.7719014    0.1530619 
  495900   -288.93958    15.687288   -273.25229    1134.2256     4509.376     9.712281   0.15781722 
  496000   -285.38834    15.424945    -269.9634    1115.2577     1898.285     9.557058   0.19944082 
  496100   -285.18549    15.647856   -269.53764    1131.3746    5007.2404     9.560231   0.19816129 
  496200   -287.43513    16.319871   -271.11526    1179.9628   -12142.071    9.4550589   0.17029191 
  496300    -289.6619    14.368126   -275.29378    1038.8473    6513.9684    9.7632538   0.14761333 
  496400   -286.83695    15.713966   -271.12298    1136.1545    10968.501    9.6867251   0.19216212 
  496500    -285.5073    16.079919   -269.42738    1162.6137   -9485.8091    9.4250213   0.24498814 
  496600   -284.07823    16.395719   -267.68251    1185.4468   -10793.484    9.3228605   0.22649175 
  496700   -288.05093    15.640422    -272.4105    1130.8371      2901.37    9.6582174   0.14863553 
  496800   -287.70669    16.911033   -270.79566    1222.7051    9656.1864    9.7022043   0.15511292 
  496900   -286.65098    18.442996   -268.20798    1333.4694   -314.31241    9.5333008     0.171978 
  497000    -286.1964    15.502864   -270.69353    1120.8914   -5004.7158     9.487097   0.16990568 
  497100   -288.38582    15.877115    -272.5087    1147.9505    -5106.278    9.5825295   0.15427882 
  497200   -286.18834    17.975706   -268.21263    1299.6833    7885.4684    9.6151468   0.18179641 
  497300   -285.35114    17.846819   -267.50432    1290.3645    1736.3877    9.5503374   0.21753027 
  497400   -290.17302    17.250347   -272.92268    1247.2382    7487.7142    9.7620533   0.12329615 
  497500   -286.52813    14.718783   -271.80934    1064.2006   -13799.725    9.4188756   0.17089916 
  497600   -287.02418    18.007312   -269.01686    1301.9685    995.29599    9.5445601   0.18025864 
  497700   -287.16295    17.208879   -269.95408      1244.24   -6308.8446    9.5326354   0.17442363 
  497800   -288.96041     14.45077   -274.50964    1044.8227    11008.358    9.7798641   0.11130115 
  497900   -286.27966    14.871708   -271.40795    1075.2574    7827.1524    9.6231984   0.17261123 
  498000   -285.12312    15.629402   -269.49372    1130.0403   -5131.7322    9.4450456   0.18669351 
  498100   -287.31786    17.878454    -269.4394    1292.6518   -7203.8878    9.4879514   0.17615693 
  498200   -286.80082    17.975114   -268.82571    1299.6405    23882.216     9.818144   0.16043572 
  498300   -289.69385     15.90247   -273.79138    1149.7838    8666.3676    9.7824968   0.15081806 
  498400   -287.49996    16.838902   -270.66106    1217.4898   -10048.359    9.4776905   0.18775743 
  498500    -286.8111    17.869974   -268.94113    1292.0386    3172.4429    9.5951244   0.17610705 
  498600   -286.47523    16.142306   -270.33292    1167.1244    5830.6573    9.6151225   0.19434111 
  498700   -288.42468    13.596573   -274.82811    983.06227   -8108.2024    9.5773802   0.16217987 
  498800   -285.22043    14.992343   -270.22809    1083.9796   -10196.252     9.409947   0.23744165 
  498900    -285.4798    16.435953   -269.04385    1188.3558   -2713.2824    9.4867039   0.20542012 
  499000   -286.62475    16.480778   -270.14397    1191.5967    7162.8089    9.6373131   0.19519105 
  499100   -284.43808    18.602323   -265.83576    1344.9891    13476.443    9.6314103   0.17514245 
  499200    -284.3485    17.761277   -266.58722    1284.1796    8125.5988    9.5358928   0.19082463 
  499300   -286.18742    15.660164   -270.52726    1132.2645   -13552.948    9.4123461   0.22439217 
  499400   -285.81123     15.99787   -269.81336    1156.6814   -4576.4105    9.4797042    0.2020708 
  499500   -285.61711    16.769916   -268.84719     1212.502    2616.6995    9.5499953   0.20289193 
  499600   -283.10324    19.115854   -263.98738    1382.1185   -1112.5591    9.4040469   0.22800608 
  499700   -286.49946    18.053857   -268.44561    1305.3338    5130.8964    9.5906445   0.17683383 
  499800   -286.97141     16.79113   -270.18028    1214.0358    -6909.853    9.4760902   0.19729616 
  499900   -286.08639    17.372628   -268.71376    1256.0795   -17058.395    9.3610121   0.23018511 
  500000   -284.06233    18.053383   -266.00895    1305.2995    12543.184    9.5727112   0.24867837 
Loop time of 150.038 on 1 procs for 500000 steps with 108 atoms

Performance: 1439.637 ns/day, 0.017 hours/ns, 3332.493 timesteps/s
100.0% CPU use with 1 MPI tasks x no OpenMP threads

MPI task timing breakdown:
Section |  min time  |  avg time  |  max time  |%varavg| %total
---------------------------------------------------------------
Pair    | 89.502     | 89.502     | 89.502     |   0.0 | 59.65
Neigh   | 5.1596     | 5.1596     | 5.1596     |   0.0 |  3.44
Comm    | 2.5084     | 2.5084     | 2.5084     |   0.0 |  1.67
Output  | 0.11851    | 0.11851    | 0.11851    |   0.0 |  0.08
Modify  | 52.244     | 52.244     | 52.244     |   0.0 | 34.82
Other   |            | 0.505      |            |       |  0.34

Nlocal:    108 ave 108 max 108 min
Histogram: 1 0 0 0 0 0 0 0 0 0
Nghost:    990 ave 990 max 990 min
Histogram: 1 0 0 0 0 0 0 0 0 0
Neighs:    4917 ave 4917 max 4917 min
Histogram: 1 0 0 0 0 0 0 0 0 0

Total # of neighbors = 4917
Ave neighs/atom = 45.5278
Neighbor list builds = 22478
Dangerous builds = 0
Total wall time: 0:02:30
