LAMMPS (3 Mar 2020)
Reading data file ...
  orthogonal box = (0 0 0) to (17.469 17.469 17.469)
  1 by 1 by 1 MPI processor grid
  reading atoms ...
  217 atoms
  read_data CPU = 0.000988604 secs
Reading potential file library.meam with DATE: 2012-06-29
Reading potential file LiSi.meam with DATE: 2020-11-07
1 atoms in group Li
Neighbor list info ...
  update every 1 steps, delay 10 steps, check yes
  max neighbors/atom: 2000, page size: 100000
  master list distance cutoff = 6
  ghost atom cutoff = 6
  binsize = 3, bins = 6 6 6
  2 neighbor lists, perpetual/occasional/extra = 2 0 0
  (1) pair meam/c, perpetual
      attributes: full, newton on
      pair build: full/bin/atomonly
      stencil: full/bin/3d
      bin: standard
  (2) pair meam/c, perpetual, half/full from (1)
      attributes: half, newton on
      pair build: halffull/newton
      stencil: none
      bin: none
Setting up Verlet run ...
  Unit style    : metal
  Current step  : 0
  Time step     : 0.00091649
Per MPI rank memory allocation (min/avg/max) = 9.27 | 9.27 | 9.27 Mbytes
Step PotEng KinEng TotEng Temp Press Density c_msdli[4] 
       0   -951.04357    50.256344   -900.78722         1800   -114161.75    1.8918427            0 
     100   -920.43333    34.955799   -885.47753      1251.99   -80905.213    1.8918427   0.19521255 
     200   -909.07521    49.162251   -859.91295    1760.8135   -68409.279    1.8918427   0.15999512 
     300   -899.86649    55.509394   -844.35709    1988.1452   -58263.746    1.8918427   0.14919542 
     400   -899.98046    44.835647   -855.14481    1605.8503    -62695.38    1.8918427   0.42629339 
     500    -902.8165    44.275959   -858.54054    1585.8043   -66090.227    1.8918427   0.70971364 
     600   -902.62074    52.109357   -850.51138    1866.3682   -62073.827    1.8918427    1.0419654 
     700   -904.22966    52.566763    -851.6629    1882.7508   -64815.283    1.8918427    2.6288397 
     800   -908.79592    53.290286   -855.50563    1908.6648   -67767.614    1.8918427    0.7298009 
     900   -907.80541    52.910324   -854.89508    1895.0559    -67503.33    1.8918427   0.38300395 
    1000   -899.21823    50.444005   -848.77423    1806.7213   -59505.845    1.8918427   0.21501429 
    1100   -907.07373    46.700259   -860.37347    1672.6339   -67009.261    1.8918427    1.4272212 
    1200   -903.20476    47.294936   -855.90982    1693.9331   -62873.973    1.8918427   0.24803029 
    1300   -900.44519    48.427372   -852.01781    1734.4929   -59789.511    1.8918427   0.20422273 
    1400   -911.51207    52.143769    -859.3683    1867.6007   -70565.433    1.8918427   0.26638177 
    1500   -903.65527    53.367559   -850.28771    1911.4324   -65036.837    1.8918427   0.48912676 
    1600   -905.16163    52.621628      -852.54    1884.7159   -64796.375    1.8918427   0.24572429 
    1700    -911.6297    55.746766   -855.88293     1996.647   -71688.502    1.8918427  0.092707843 
    1800   -903.06181    48.486518    -854.5753    1736.6112   -62987.291    1.8918427   0.15481403 
    1900   -902.54283    52.432057   -850.11077    1877.9261    -59837.41    1.8918427   0.14920247 
    2000   -905.23371    47.825154   -857.40855    1712.9236   -65509.445    1.8918427  0.041940116 
    2100   -904.32713    49.388071   -854.93906    1768.9016   -65180.557    1.8918427   0.20688835 
    2200   -907.96696    54.824923   -853.14203    1963.6299   -69893.691    1.8918427   0.26270239 
    2300   -909.40097    47.356929   -862.04405    1696.1535    -68912.28    1.8918427  0.097312612 
    2400   -903.37471    50.518216   -852.85649    1809.3793   -65537.776    1.8918427  0.038990003 
    2500   -905.97855    53.538003   -852.44055    1917.5371   -66102.871    1.8918427   0.29078761 
    2600   -906.74958    47.688375    -859.0612    1708.0247   -68061.107    1.8918427  0.026066248 
    2700    -902.0536    51.853017   -850.20058     1857.187   -64153.604    1.8918427   0.13761052 
    2800    -905.2518    52.367224   -852.88457     1875.604   -67060.887    1.8918427   0.33024263 
    2900    -905.6407    47.885207   -857.75549    1715.0744   -67234.345    1.8918427    0.1311931 
    3000   -899.54906    52.092034   -847.45703    1865.7477   -59397.335    1.8918427  0.078394641 
    3100   -904.91782    50.845764   -854.07206    1821.1109   -63049.814    1.8918427  0.045954319 
    3200   -904.19272    46.266944   -857.92578    1657.1141   -66446.337    1.8918427   0.40361212 
    3300   -903.34249    50.612263   -852.73022    1812.7477    -63813.02    1.8918427   0.24400372 
    3400   -901.26433    46.925103   -854.33923     1680.687   -63515.012    1.8918427   0.12561191 
    3500   -907.02036    47.662094   -859.35827    1707.0833   -71315.975    1.8918427   0.15847613 
    3600   -897.94224    47.948508   -849.99373    1717.3417   -59682.406    1.8918427  0.080015762 
    3700   -902.59806    48.630177   -853.96788    1741.7566   -66492.723    1.8918427   0.12539138 
    3800   -907.45791    48.235075   -859.22284    1727.6054   -68711.126    1.8918427  0.066027535 
    3900   -908.85017    51.022219   -857.82795    1827.4309    -70003.91    1.8918427   0.30194631 
    4000    -901.7387    51.626501    -850.1122    1849.0741   -63119.494    1.8918427   0.15660435 
    4100   -904.31969    47.987422   -856.33227    1718.7354   -67918.175    1.8918427   0.15958737 
    4200   -904.16421    51.325176   -852.83903    1838.2817   -67671.391    1.8918427   0.24071778 
    4300   -902.77192    52.725925   -850.04599    1888.4514   -67481.018    1.8918427  0.096826917 
    4400   -906.22758    48.513718   -857.71386    1737.5854   -69505.581    1.8918427    0.5601883 
    4500   -899.45959    48.992235   -850.46735    1754.7242   -60800.438    1.8918427   0.17067125 
    4600   -901.90253    53.625336   -848.27719     1920.665   -64748.997    1.8918427  0.092170882 
    4700   -907.43697    52.237346   -855.19962    1870.9523   -67884.181    1.8918427   0.16706727 
    4800     -902.165      51.2872    -850.8778    1836.9215   -65690.377    1.8918427  0.070287118 
    4900   -902.23988    52.122109   -850.11777    1866.8249   -67393.628    1.8918427  0.091274736 
    5000   -900.42884    42.789112   -857.63973    1532.5508   -68291.635    1.8918427   0.24256634 
    5100   -900.07681    46.341656   -853.73516    1659.7901   -65974.684    1.8918427   0.10506227 
    5200   -901.17253    48.087083   -853.08545    1722.3049   -65605.551    1.8918427  0.041875364 
    5300    -906.9891    53.274749   -853.71435    1908.1083   -68796.115    1.8918427  0.011793913 
    5400   -902.17862    48.259134   -853.91949    1728.4672   -66045.233    1.8918427  0.093211843 
    5500   -900.43562    53.166626   -847.26899    1904.2357   -62914.363    1.8918427    1.1917341 
    5600   -903.95054    47.019665   -856.93088    1684.0739   -68416.216    1.8918427   0.54153555 
    5700   -903.60901    50.909459   -852.69956    1823.3922    -67746.16    1.8918427   0.18889608 
    5800   -901.23872    53.464383   -847.77434    1914.9003    -65349.47    1.8918427   0.43710592 
    5900    -906.5584    49.148903    -857.4095    1760.3355   -70947.759    1.8918427  0.085631471 
    6000   -903.50546    48.685519   -854.81994    1743.7387   -66891.848    1.8918427   0.24034025 
    6100   -902.14784    52.350944    -849.7969     1875.021   -62420.654    1.8918427  0.039908746 
    6200   -905.56186    49.931557    -855.6303    1788.3673   -67846.735    1.8918427    0.1863377 
    6300   -904.27147    52.137167    -852.1343    1867.3642   -66630.242    1.8918427  0.033079355 
    6400    -897.4573    53.043278   -844.41402    1899.8178   -59437.892    1.8918427   0.37378991 
    6500   -902.94273    48.799747   -854.14298      1747.83   -64802.621    1.8918427  0.060539938 
    6600   -904.18558     48.10703   -856.07855    1723.0194   -65576.172    1.8918427  0.072146389 
    6700    -901.2682     55.43894   -845.82926    1985.6218   -63030.603    1.8918427   0.38916263 
    6800   -899.99022    47.011603   -852.97862    1683.7851   -64087.411    1.8918427   0.14497216 
    6900   -902.12263    47.535684   -854.58695    1702.5558    -65724.43    1.8918427   0.10422722 
    7000   -903.99482    57.933191   -846.06163    2074.9568   -64697.867    1.8918427  0.058022414 
    7100   -900.93171     48.05724   -852.87447    1721.2361   -63541.548    1.8918427    4.0535629 
    7200   -904.47696    47.969274   -856.50768    1718.0854   -67999.445    1.8918427    6.1737355 
    7300    -903.1363    52.270518   -850.86578    1872.1404   -67579.588    1.8918427    7.9959101 
    7400   -900.36557    51.482319   -848.88325      1843.91   -64487.463    1.8918427    7.6148571 
    7500   -907.03232    49.978252   -857.05407    1790.0397   -68118.126    1.8918427    6.0659941 
    7600   -904.46686    56.119049   -848.34781    2009.9808   -67831.938    1.8918427    4.6683534 
    7700    -902.7547    53.301284   -849.45341    1909.0587   -66350.824    1.8918427    5.0527985 
    7800   -902.67149    47.303717   -855.36778    1694.2476   -69468.025    1.8918427    4.3670492 
    7900   -902.16374    49.989669   -852.17407    1790.4487   -70089.201    1.8918427    3.8128247 
    8000   -900.74131     50.34752   -850.39379    1803.2656   -66902.152    1.8918427    5.3391811 
    8100   -906.02454    50.020987   -856.00355    1791.5704   -70725.056    1.8918427    6.9564452 
    8200    -906.2242     52.02227   -854.20193     1863.249   -69209.313    1.8918427     6.381891 
    8300   -903.28087    55.177567   -848.10331    1976.2603   -64055.362    1.8918427    5.7005015 
    8400   -900.93235    47.665243    -853.2671    1707.1961   -64126.845    1.8918427    8.7730322 
    8500     -903.359    47.614122   -855.74488    1705.3652   -67852.967    1.8918427     10.99436 
    8600   -902.43156    51.671888   -850.75967    1850.6996   -65430.602    1.8918427    14.755175 
    8700   -900.66339     49.31284   -851.35055    1766.2071    -66275.97    1.8918427    13.893634 
    8800   -907.61552    50.475936   -857.13959     1807.865    -70990.52    1.8918427    13.975795 
    8900   -906.38427    53.170194   -853.21407    1904.3635   -70738.655    1.8918427    14.991103 
    9000   -898.13908    47.274364   -850.86472    1693.1963   -61737.993    1.8918427     20.64807 
    9100   -904.12765    50.576328   -853.55133    1811.4607   -67672.776    1.8918427     17.45338 
    9200   -905.17807    48.756251   -856.42182    1746.2721   -70267.308    1.8918427    16.777209 
    9300   -898.11245    50.394907   -847.71754    1804.9628   -63407.955    1.8918427    19.555784 
    9400   -902.85307    48.837209   -854.01586    1749.1717   -65868.293    1.8918427    17.582584 
    9500   -902.15347    46.944961   -855.20851    1681.3982   -68256.503    1.8918427    19.263626 
    9600   -902.27627    52.870607   -849.40567    1893.6334   -67317.661    1.8918427    22.801428 
    9700    -905.3011     47.76068   -857.54042    1710.6143   -68255.574    1.8918427    17.395685 
    9800   -903.53766    46.133074   -857.40458    1652.3194   -68321.661    1.8918427    16.881759 
    9900    -901.9923     51.41011    -850.5822    1841.3237   -65974.096    1.8918427    11.267747 
   10000    -901.8401    47.863722   -853.97638     1714.305   -67894.918    1.8918427    20.099976 
   10100   -906.36589    45.970034   -860.39585    1646.4799   -72723.039    1.8918427    14.106639 
   10200   -899.60858    50.671445   -848.93713    1814.8674   -64579.212    1.8918427    22.753419 
   10300   -902.89492    49.655247   -853.23967    1778.4709   -66189.417    1.8918427    27.286521 
   10400   -904.13586    46.169157   -857.96671    1653.6118    -71524.16    1.8918427    21.213347 
   10500   -901.56179    48.558875   -853.00292    1739.2028   -65029.696    1.8918427    23.507574 
   10600   -901.35713    51.230296   -850.12683    1834.8834   -64528.461    1.8918427    21.286104 
   10700    -904.4468    46.584921   -857.86188    1668.5029   -69542.409    1.8918427    21.238421 
   10800   -903.03691    50.301998   -852.73491    1801.6351   -65647.328    1.8918427    21.710282 
   10900   -899.90587    45.992136   -853.91374    1647.2715    -62255.05    1.8918427    24.217679 
   11000    -902.8423    52.419612   -850.42268    1877.4804   -67586.417    1.8918427    24.948955 
   11100   -900.97046    52.243059    -848.7274    1871.1569   -67269.839    1.8918427    21.364306 
   11200   -904.75278     51.38752   -853.36526    1840.5146   -66647.464    1.8918427    18.280906 
   11300   -902.42928    50.046569   -852.38272    1792.4866   -65706.078    1.8918427    9.5568959 
   11400   -895.78347    55.721211   -840.06226    1995.7317   -58696.249    1.8918427    8.7507355 
   11500   -902.80688    55.191008   -847.61587    1976.7418    -63537.88    1.8918427    10.630101 
   11600     -905.035    51.054778   -853.98022     1828.597    -66124.51    1.8918427    13.293364 
   11700   -899.90115     48.43219   -851.46896    1734.6654   -63364.364    1.8918427     10.66623 
   11800   -900.21939    53.486226   -846.73317    1915.6827   -61749.187    1.8918427    13.712189 
   11900    -903.9361      48.2696    -855.6665     1728.842   -69026.196    1.8918427    12.965953 
   12000   -906.22681    53.874592   -852.35222    1929.5925   -69842.697    1.8918427    15.503847 
   12100   -894.87585    52.376248    -842.4996    1875.9273   -55622.364    1.8918427    13.559469 
   12200   -909.50925    56.808622   -852.70063    2034.6788   -70603.721    1.8918427    10.182418 
   12300   -903.66071    50.924555   -852.73615    1823.9329    -66114.78    1.8918427    14.701449 
   12400   -902.31435    55.829634   -846.48471     1999.615   -63707.502    1.8918427    23.868823 
   12500   -905.80652    48.058288   -857.74823    1721.2736   -67652.356    1.8918427    18.751233 
   12600   -904.31887    51.483911   -852.83496     1843.967   -67415.163    1.8918427    35.666051 
   12700   -902.16938    51.372879    -850.7965    1839.9902   -63427.876    1.8918427    40.010075 
   12800   -900.92893    48.374814   -852.55412    1732.6104   -63780.253    1.8918427    28.663504 
   12900   -903.33539    50.337359   -852.99803    1802.9016   -65350.902    1.8918427    36.344006 
   13000   -902.37558    49.382273   -852.99331    1768.6939   -62356.879    1.8918427    33.826839 
   13100   -902.36492    55.619152   -846.74577    1992.0763   -63699.345    1.8918427    33.854685 
   13200   -903.15221     47.38448   -855.76773    1697.1402   -66734.389    1.8918427    39.283453 
   13300   -900.59582    48.201888   -852.39393    1726.4168   -61214.793    1.8918427    26.303839 
   13400   -895.89123    52.589153   -843.30207    1883.5528   -58162.982    1.8918427    15.390026 
   13500   -898.59553     48.66769   -849.92784    1743.1002   -62549.614    1.8918427    25.532643 
   13600   -907.33595    50.593489   -856.74246    1812.0753   -69852.604    1.8918427      24.5539 
   13700    -904.2305    51.603529   -852.62697    1848.2513   -66807.888    1.8918427    24.961696 
   13800   -900.51861    51.612583   -848.90603    1848.5756   -61263.054    1.8918427    21.070974 
   13900   -905.43807    52.577849   -852.86022    1883.1479   -67058.375    1.8918427    27.093691 
   14000   -901.54439    49.329021   -852.21537    1766.7867   -64703.297    1.8918427    23.256078 
   14100   -901.48619    52.320569   -849.16562     1873.933    -64448.76    1.8918427    26.517635 
   14200   -900.42914    43.546079   -856.88307    1559.6626   -64046.663    1.8918427    24.751578 
   14300    -902.7519    48.110868   -854.64103    1723.1568   -64154.676    1.8918427    22.181253 
   14400   -897.88808     53.09278    -844.7953    1901.5909   -60145.301    1.8918427    21.935521 
   14500   -903.74923    50.940423   -852.80881    1824.5012   -67292.244    1.8918427    19.746852 
   14600   -903.91513    49.040175   -854.87495    1756.4412   -68760.508    1.8918427    25.342294 
   14700   -901.53144    56.611336    -844.9201    2027.6128   -62027.103    1.8918427    22.655004 
   14800   -903.36837    53.560319   -849.80805    1918.3364   -66831.651    1.8918427     21.92212 
   14900    -905.4734     49.64065   -855.83275     1777.948   -66223.278    1.8918427    24.097027 
   15000   -904.39221    50.903483   -853.48872    1823.1782   -66501.966    1.8918427    24.901183 
   15100   -897.87821    50.059528   -847.81868    1792.9507   -60461.199    1.8918427    25.488261 
   15200   -900.97036    44.274547   -856.69582    1585.7537   -66184.067    1.8918427    27.777252 
   15300   -900.69092    49.205138   -851.48579    1762.3496   -65133.626    1.8918427    26.786409 
   15400   -896.70703    51.928585   -844.77844    1859.8936   -59441.024    1.8918427    32.273424 
   15500   -899.26258    48.127882    -851.1347    1723.7662    -61226.97    1.8918427    36.323807 
   15600   -905.21022    51.814911    -853.3953    1855.8222   -68621.361    1.8918427    35.310061 
   15700   -901.95391    50.758872   -851.19504    1817.9987   -61854.117    1.8918427    34.104979 
   15800   -899.94942    51.370765   -848.57865    1839.9145   -61181.043    1.8918427    22.061605 
   15900   -906.43958    48.319564   -858.12002    1730.6316   -69009.742    1.8918427    26.053656 
   16000   -904.12469    49.759066   -854.36562    1782.1893   -67953.817    1.8918427    22.503525 
   16100   -904.27438    53.670802   -850.60358    1922.2935    -68924.26    1.8918427    19.547248 
   16200   -905.85897    49.243469    -856.6155    1763.7225    -70819.92    1.8918427    18.877946 
   16300   -905.63119    49.563241   -856.06795    1775.1755   -71430.528    1.8918427    20.523007 
   16367   -901.96242    54.457635   -847.50479     1950.475   -63305.965    1.8918427    19.670764 
Loop time of 8.89471 on 1 procs for 16367 steps with 217 atoms

Performance: 145.707 ns/day, 0.165 hours/ns, 1840.083 timesteps/s
100.0% CPU use with 1 MPI tasks x no OpenMP threads

MPI task timing breakdown:
Section |  min time  |  avg time  |  max time  |%varavg| %total
---------------------------------------------------------------
Pair    | 8.6089     | 8.6089     | 8.6089     |   0.0 | 96.79
Neigh   | 0.12449    | 0.12449    | 0.12449    |   0.0 |  1.40
Comm    | 0.068508   | 0.068508   | 0.068508   |   0.0 |  0.77
Output  | 0.0047228  | 0.0047228  | 0.0047228  |   0.0 |  0.05
Modify  | 0.067216   | 0.067216   | 0.067216   |   0.0 |  0.76
Other   |            | 0.0209     |            |       |  0.23

Nlocal:    217 ave 217 max 217 min
Histogram: 1 0 0 0 0 0 0 0 0 0
Nghost:    880 ave 880 max 880 min
Histogram: 1 0 0 0 0 0 0 0 0 0
Neighs:    3616 ave 3616 max 3616 min
Histogram: 1 0 0 0 0 0 0 0 0 0
FullNghs:  7232 ave 7232 max 7232 min
Histogram: 1 0 0 0 0 0 0 0 0 0

Total # of neighbors = 7232
Ave neighs/atom = 33.3272
Neighbor list builds = 227
Dangerous builds = 0
Total wall time: 0:00:08
