LAMMPS (3 Mar 2020)
Reading data file ...
  orthogonal box = (0 0 0) to (17.469 17.469 17.469)
  1 by 1 by 1 MPI processor grid
  reading atoms ...
  217 atoms
  read_data CPU = 0.00097632 secs
Reading potential file library.meam with DATE: 2012-06-29
Reading potential file LiSi.meam with DATE: 2020-11-07
1 atoms in group Li
Neighbor list info ...
  update every 1 steps, delay 10 steps, check yes
  max neighbors/atom: 2000, page size: 100000
  master list distance cutoff = 6
  ghost atom cutoff = 6
  binsize = 3, bins = 6 6 6
  2 neighbor lists, perpetual/occasional/extra = 2 0 0
  (1) pair meam/c, perpetual
      attributes: full, newton on
      pair build: full/bin/atomonly
      stencil: full/bin/3d
      bin: standard
  (2) pair meam/c, perpetual, half/full from (1)
      attributes: half, newton on
      pair build: halffull/newton
      stencil: none
      bin: none
Setting up Verlet run ...
  Unit style    : metal
  Current step  : 0
  Time step     : 0.00307924
Per MPI rank memory allocation (min/avg/max) = 9.27 | 9.27 | 9.27 Mbytes
Step PotEng KinEng TotEng Temp Press Density c_msdli[4] 
       0   -951.04357    50.256344   -900.78722         1800   -114161.75    1.8918427            0 
     100   -928.27904    27.714659   -900.56438    992.63856   -92353.866    1.8918427  0.071490586 
     200   -925.33839    24.824102   -900.51429    889.10931   -90079.735    1.8918427   0.11534201 
     300   -927.84491    27.264993   -900.57991    976.53317   -93947.595    1.8918427    0.1078547 
     400    -925.5521    25.015135   -900.53696    895.95142   -91843.542    1.8918427  0.064997887 
     500   -926.41078    25.882676    -900.5281    927.02358   -91576.607    1.8918427   0.04556012 
     600   -926.65109    26.111775   -900.53932    935.22909   -92296.484    1.8918427  0.087359783 
     700   -926.90752    26.374405   -900.53311    944.63555   -92680.054    1.8918427  0.040202795 
     800   -927.11449    26.571912   -900.54258    951.70951   -91643.099    1.8918427  0.073264815 
     900   -927.88123    27.368394   -900.51283    980.23662   -92612.341    1.8918427  0.033888296 
    1000   -928.83207    28.258455   -900.57361    1012.1154   -94374.725    1.8918427  0.016403616 
    1100   -926.95302    26.406696   -900.54632    945.79207   -93130.527    1.8918427  0.023377295 
    1200   -925.43616    24.903304   -900.53286    891.94603   -93004.923    1.8918427  0.064608557 
    1300   -925.24898    24.738854   -900.51012    886.05605    -91906.76    1.8918427  0.054334398 
    1400   -926.36849     25.85621   -900.51228    926.07566    -92533.73    1.8918427  0.017907421 
    1500    -925.0767    24.563053   -900.51365    879.75949   -91019.674    1.8918427  0.086907482 
    1600   -924.74474    24.234596   -900.51014    867.99535   -91685.765    1.8918427  0.079611938 
    1700   -925.95057    25.439097   -900.51147    911.13621   -90921.418    1.8918427  0.039510101 
    1800   -925.15012     24.64224   -900.50788    882.59566   -91657.283    1.8918427  0.093393491 
    1900   -925.27068    24.733617   -900.53707    885.86848    -92229.53    1.8918427  0.093086093 
    2000   -925.76069    25.222261   -900.53843    903.36993   -92392.765    1.8918427   0.21135135 
    2100   -925.51615    25.002414   -900.51373    895.49581   -91252.642    1.8918427   0.14638152 
    2200   -926.44174    25.925816   -900.51592     928.5687   -91940.171    1.8918427  0.044632222 
    2300   -927.62807    27.070877   -900.55719    969.58065   -93566.728    1.8918427 0.0062555147 
    2400    -924.8652    24.366164   -900.49903    872.70764   -91808.324    1.8918427  0.038462718 
    2500   -926.41961    25.902311    -900.5173    927.72684   -92822.483    1.8918427  0.064022009 
    2600   -924.35594    23.831846    -900.5241    853.57031   -91098.589    1.8918427  0.042172473 
    2700   -925.79286    25.275077   -900.51779    905.26159   -92231.312    1.8918427   0.10242974 
    2800   -926.45408    25.921059   -900.53302    928.39833   -93387.802    1.8918427  0.055317955 
    2900   -925.44152     24.91433   -900.52719    892.34094   -92557.251    1.8918427  0.016678963 
    3000   -925.58375    25.066041   -900.51771    897.77469   -91749.839    1.8918427  0.040094754 
    3100   -925.64125    25.113898   -900.52735    899.48873   -93085.806    1.8918427  0.055697319 
    3200   -925.43606     24.92838   -900.50768    892.84417   -92204.194    1.8918427  0.041386271 
    3300   -926.08312    25.551562   -900.53156    915.16429   -93074.397    1.8918427   0.11844449 
    3400   -926.84563    26.294785   -900.55085    941.78385       -92989    1.8918427   0.03708858 
    3500   -926.26257    25.745332   -900.51724    922.10443   -93390.589    1.8918427   0.15242831 
    3600   -927.56678    27.020903   -900.54588    967.79076   -93314.139    1.8918427 0.0019880151 
    3700   -925.91985    25.397072   -900.52278    909.63102   -92427.272    1.8918427  0.096354721 
    3800   -928.66809    28.106197    -900.5619     1006.662    -96179.33    1.8918427   0.14165619 
    3900   -926.35964    25.827152   -900.53248     925.0349   -93581.767    1.8918427   0.18768865 
    4000   -927.77062    27.215797   -900.55482    974.77114   -93717.228    1.8918427  0.027942558 
    4100   -928.54062     27.98705   -900.55357    1002.3946   -93598.874    1.8918427    0.1379789 
    4200   -927.61069     27.07117   -900.53952    969.59113   -93024.674    1.8918427   0.05066135 
    4300   -927.36988    26.831687   -900.53819    961.01373   -95069.967    1.8918427   0.15998465 
    4400   -926.42581    25.888194   -900.53762    927.22124   -93221.066    1.8918427  0.039070626 
    4500   -926.32433      25.8086   -900.51573    924.37044    -92345.51    1.8918427    0.0541834 
    4600   -925.99326    25.485129   -900.50813    912.78488   -93617.489    1.8918427  0.098555337 
    4700    -927.2298    26.701528   -900.52827    956.35189   -93618.828    1.8918427  0.016267481 
    4800    -925.5541    25.007601    -900.5465    895.68157   -91993.892    1.8918427  0.011742474 
    4872   -926.81557    26.285017   -900.53056    941.43399    -91792.94    1.8918427  0.051890462 
Loop time of 2.59243 on 1 procs for 4872 steps with 217 atoms

Performance: 499.986 ns/day, 0.048 hours/ns, 1879.320 timesteps/s
100.0% CPU use with 1 MPI tasks x no OpenMP threads

MPI task timing breakdown:
Section |  min time  |  avg time  |  max time  |%varavg| %total
---------------------------------------------------------------
Pair    | 2.5528     | 2.5528     | 2.5528     |   0.0 | 98.47
Neigh   | 0          | 0          | 0          |   0.0 |  0.00
Comm    | 0.02096    | 0.02096    | 0.02096    |   0.0 |  0.81
Output  | 0.0014135  | 0.0014135  | 0.0014135  |   0.0 |  0.05
Modify  | 0.010448   | 0.010448   | 0.010448   |   0.0 |  0.40
Other   |            | 0.006759   |            |       |  0.26

Nlocal:    217 ave 217 max 217 min
Histogram: 1 0 0 0 0 0 0 0 0 0
Nghost:    957 ave 957 max 957 min
Histogram: 1 0 0 0 0 0 0 0 0 0
Neighs:    3702 ave 3702 max 3702 min
Histogram: 1 0 0 0 0 0 0 0 0 0
FullNghs:  7404 ave 7404 max 7404 min
Histogram: 1 0 0 0 0 0 0 0 0 0

Total # of neighbors = 7404
Ave neighs/atom = 34.1198
Neighbor list builds = 0
Dangerous builds = 0
Total wall time: 0:00:02
