LAMMPS (3 Mar 2020)

# ---------- 1. Initialize simulation ----------
units metal
atom_style atomic
dimension 3
boundary p p p
read_data /home/modeler/RemLabs/Project/arrhenius_2/T1700.0/n3_T1700.0_timestep3.000000e-03_eqsteps3200_time300_rseed3322/20201205-072045/lammps.data
  orthogonal box = (0 0 0) to (17.469 17.469 17.469)
  1 by 1 by 1 MPI processor grid
  reading atoms ...
  217 atoms
  read_data CPU = 0.000974824 secs

pair_style meam/c
pair_coeff * * library.meam Li Si LiSi.meam Li Si
Reading potential file library.meam with DATE: 2012-06-29
Reading potential file LiSi.meam with DATE: 2020-11-07

group Li type 1
1 atoms in group Li
group Si type 2
216 atoms in group Si

velocity all create 1700.0 3322 dist gaussian

# ---------- 2. Specify equilibration ensemble  ----------
fix 1 all npt temp 1700.0 1700.0 0.15 tchain 2 iso 1.0 1.0 1.0 pchain 2
# fix 1 all nvt temp 1700.0 1700.0 0.15

# ---------- 3. Run equilibration -------------
timestep 0.003
run 3200
Neighbor list info ...
  update every 1 steps, delay 10 steps, check yes
  max neighbors/atom: 2000, page size: 100000
  master list distance cutoff = 6
  ghost atom cutoff = 6
  binsize = 3, bins = 6 6 6
  2 neighbor lists, perpetual/occasional/extra = 2 0 0
  (1) pair meam/c, perpetual
      attributes: full, newton on
      pair build: full/bin/atomonly
      stencil: full/bin/3d
      bin: standard
  (2) pair meam/c, perpetual, half/full from (1)
      attributes: half, newton on
      pair build: halffull/newton
      stencil: none
      bin: none
Per MPI rank memory allocation (min/avg/max) = 8.895 | 8.895 | 8.895 Mbytes
Step Temp E_pair E_mol TotEng Press Volume 
       0         1700   -951.04357            0   -903.57924   -114721.17    5330.9442 
    3200    1608.2066   -943.14493            0    -898.2435   -11617.845    4713.3018 
Loop time of 2.28566 on 1 procs for 3200 steps with 217 atoms

Performance: 362.888 ns/day, 0.066 hours/ns, 1400.032 timesteps/s
100.0% CPU use with 1 MPI tasks x no OpenMP threads

MPI task timing breakdown:
Section |  min time  |  avg time  |  max time  |%varavg| %total
---------------------------------------------------------------
Pair    | 2.19       | 2.19       | 2.19       |   0.0 | 95.82
Neigh   | 0.045476   | 0.045476   | 0.045476   |   0.0 |  1.99
Comm    | 0.015292   | 0.015292   | 0.015292   |   0.0 |  0.67
Output  | 2.5055e-05 | 2.5055e-05 | 2.5055e-05 |   0.0 |  0.00
Modify  | 0.029859   | 0.029859   | 0.029859   |   0.0 |  1.31
Other   |            | 0.004991   |            |       |  0.22

Nlocal:    217 ave 217 max 217 min
Histogram: 1 0 0 0 0 0 0 0 0 0
Nghost:    957 ave 957 max 957 min
Histogram: 1 0 0 0 0 0 0 0 0 0
Neighs:    4103 ave 4103 max 4103 min
Histogram: 1 0 0 0 0 0 0 0 0 0
FullNghs:  8206 ave 8206 max 8206 min
Histogram: 1 0 0 0 0 0 0 0 0 0

Total # of neighbors = 8206
Ave neighs/atom = 37.8157
Neighbor list builds = 77
Dangerous builds = 1

# ---------- 4. Describe computed properties----------
compute msdli Li msd
compute msdsi Si msd
thermo_style custom step pe ke etotal temp press density c_msdli[4] c_msdsi[4]
thermo 100

# ---------- 3. Run production -------------
timestep 0.003
run 100000
Per MPI rank memory allocation (min/avg/max) = 9.664 | 9.664 | 9.664 Mbytes
Step PotEng KinEng TotEng Temp Press Density c_msdli[4] c_msdsi[4] 
    3200   -943.14493    44.901435    -898.2435    1608.2066   -11617.845    2.1397544            0 6.395514e-32 
    3300   -940.99777     48.00475   -892.99302    1719.3561    1707.1187    2.1698827  0.025058988    0.1370469 
    3400   -949.37416    50.788377   -898.58578    1819.0555    7054.9755    2.2004878   0.15140722    0.1102194 
    3500   -946.55786    44.762745   -901.79512    1603.2392   -6555.9245    2.1619915  0.059522991   0.11896907 
    3600   -943.70885    47.198621   -896.51023    1690.4834   -5553.1628    2.1571914  0.061671096   0.15574727 
    3700   -942.56379    49.112577   -893.45122    1759.0344    7573.0179     2.185751  0.087707836   0.11209089 
    3800   -949.07264    46.035883   -903.03675    1648.8384    248.77571    2.1873488   0.11053265  0.095605184 
    3900   -944.02473     46.03843    -897.9863    1648.9296   -10998.451    2.1447544  0.038824858   0.13019604 
    4000   -945.76199    51.214912   -894.54707    1834.3324    -1763.987    2.1698568  0.036956899   0.11003616 
    4100   -948.07162    49.309365   -898.76226    1766.0826    6530.7817    2.1941128   0.28355897   0.10697963 
    4200   -948.39722    44.068614    -904.3286    1578.3779   -4046.9437    2.1681584  0.033033055   0.10905933 
    4300   -942.79658    48.853557   -893.94302    1749.7573   -9000.6902    2.1403139   0.15737477   0.10468556 
    4400   -944.85544    49.324888   -895.53056    1766.6386    9109.2881    2.1923971   0.07100498   0.13195168 
    4500   -946.59341    46.475453   -900.11795    1664.5822     5963.373    2.1932415  0.020180203   0.13722832 
    4600    -939.8966    49.574243   -890.32236    1775.5696   -10433.416    2.1327778  0.098788494   0.13297474 
    4700   -940.74779    46.836722   -893.91106    1677.5215    360.80678     2.162508   0.24151814   0.13333884 
    4800   -943.56303    46.008384   -897.55465    1647.8535     9996.397    2.1929199  0.029153483   0.12294702 
    4900   -943.72514     46.77641   -896.94873    1675.3614    361.36508    2.1696627  0.017407353    0.1265426 
    5000   -938.84105    49.971278   -888.86977      1789.79   -10685.734    2.1303269  0.076521872    0.1457862 
    5100   -947.87312    49.150193   -898.72293    1760.3817    4719.9221    2.1859761  0.023961534   0.12439375 
    5200   -944.78111    47.569663   -897.21145    1703.7728    6870.4622    2.1880864  0.055434962   0.12794882 
    5300   -940.95267    48.798853   -892.15382    1747.7979   -8167.3394    2.1456062   0.33418927   0.13084564 
    5400   -943.34634    48.937622   -894.40872    1752.7682   -5109.8219    2.1579456  0.014071815   0.12476947 
    5500   -950.31568    50.741816   -899.57387    1817.3878    7251.2367    2.1986774  0.097692545    0.1357971 
    5600   -944.56314    49.209409   -895.35373    1762.5026    684.87406    2.1784695  0.079522671   0.14598227 
    5700    -941.9065    46.605786   -895.30072    1669.2502   -8786.5217    2.1456598   0.18794846   0.14859806 
    5800   -949.94797     45.38581   -904.56216    1625.5551    4171.3215    2.1910112   0.13416413   0.11556984 
    5900   -944.78244    48.388156   -896.39428    1733.0883    6574.5438      2.19026    0.1498201   0.12943972 
    6000   -945.05327    49.677505   -895.37576    1779.2681   -4292.8852    2.1621682    0.0364338   0.13379509 
    6100   -946.96873    46.739473   -900.22926    1674.0384   -7328.9069    2.1614299   0.10813025   0.12113337 
    6200   -950.07483    47.314324    -902.7605    1694.6275    4604.7431     2.197457   0.27786986   0.13342666 
    6300   -942.72885    48.909392   -893.81946     1751.757    4862.9135    2.1781761  0.056177662   0.12037284 
    6400   -943.44228    46.005016   -897.43727    1647.7328   -8707.1463    2.1502479  0.050284392   0.13674814 
    6500   -946.96828    46.068977    -900.8993    1650.0237   -812.09764    2.1737557  0.041310613   0.11613866 
    6600   -950.13767    43.734884   -906.40279    1566.4249      10470.8    2.2125298 0.0049049063   0.13174113 
    6700   -940.59546    45.118235   -895.47723    1615.9715    -6777.904    2.1499691   0.04504091   0.15183076 
    6800   -945.91074    49.432268   -896.47847    1770.4846   -7267.0445    2.1548448 0.0037281563   0.12001369 
    6900   -945.34063    49.543469   -895.79716    1774.4674    10208.154    2.1949637  0.050825736     0.125397 
    7000   -947.76368    45.856844   -901.90684    1642.4259    786.13009    2.1820133 0.0055319526   0.11712931 
    7100   -951.08934    44.817651   -906.27168    1605.2057   -13437.209    2.1498811   0.10021998    0.1062132 
    7200   -945.70327     48.21378   -897.48949    1726.8427   -1388.1596    2.1721596  0.098605189   0.13318787 
    7300   -946.40349    50.852602   -895.55089    1821.3558     13345.03    2.2111428   0.11020409   0.14735262 
    7400   -946.02994    47.991403   -898.03854     1718.878    -7791.215    2.1531613  0.049686923   0.11977605 
    7500   -938.27882    49.834817     -888.444    1784.9024   -15196.671    2.1140377  0.091164072   0.15479567 
    7600   -944.68589    53.826292   -890.85959    1927.8626    11322.941    2.2001092   0.28635645   0.13783499 
    7700   -948.00074    52.363699   -895.63704    1875.4778   -1258.3191    2.1766177  0.076653418   0.14512529 
    7800   -942.82262    45.410929   -897.41169    1626.4548   -6471.7793    2.1526074   0.12420838   0.12525054 
    7900   -943.06414    48.788949   -894.27519    1747.4432    2995.9365    2.1723333  0.076349373   0.12795252 
    8000   -940.14647    53.328834   -886.81764    1910.0454    621.22046     2.162133    0.0123157   0.14382317 
    8100   -943.62906    47.650045   -895.97902    1706.6518   -41.903663    2.1696184  0.006110706   0.13017732 
    8200   -945.11012    47.837809   -897.27231    1713.3768   -1553.0086    2.1726245   0.26930207   0.13059482 
    8300   -943.23574    49.395432    -893.8403    1769.1652    562.70607    2.1719442  0.099170902   0.14941414 
    8400   -938.81872    51.197103   -887.62162    1833.6946   -4099.1634    2.1474158  0.061713031   0.15499808 
    8500   -946.95978    49.825973    -897.1338    1784.5857    1016.1236    2.1755121 0.0046319203   0.13547084 
    8600   -941.70599    44.868993   -896.83699    1607.0446    5478.4945    2.1837664   0.21959991   0.14694834 
    8700   -937.64726    45.355697   -892.29157    1624.4766   -989.48129    2.1557158   0.24536513   0.13150751 
    8800   -941.71137     52.93175   -888.77962    1895.8233    -7932.352    2.1443652  0.078012751   0.14737302 
    8900   -945.34887    48.274726   -897.07415    1729.0256    7817.3045    2.1933962    0.1736731   0.14047381 
    9000   -945.54718    49.052198   -896.49498    1756.8718    4442.3536    2.1834505   0.12722903   0.13329552 
    9100   -939.65332    48.455273   -891.19805    1735.4921   -10224.816    2.1337722    1.7418881    0.1651042 
    9200   -938.86761    50.970038   -887.89758    1825.5619   -2764.9663    2.1510368    4.8958038   0.18850706 
    9300   -944.09083    49.221232    -894.8696     1762.926    15925.708    2.2046355    3.2172021   0.15191115 
    9400   -942.96266    46.685122   -896.27754    1672.0918   -648.43479     2.165979    5.0110834    0.1715955 
    9500   -936.93673    45.545046   -891.39169    1631.2584   -9943.2426    2.1331626    2.2790857   0.16883825 
    9600     -937.599    54.394365   -883.20464    1948.2089    1704.6197    2.1572022    8.8598002   0.19038606 
    9700   -944.88847    51.864422   -893.02405    1857.5955    8117.3714    2.1914343    5.1209097   0.16439518 
    9800   -943.36851    47.041405   -896.32711    1684.8525   -4532.2499    2.1578386    5.2380421   0.14754542 
    9900   -942.88433    47.359203   -895.52512    1696.2349    -3151.296    2.1607311    2.3993457   0.14866632 
   10000   -930.09758    44.896586   -885.20099    1608.0329    7451.0154      2.16264    4.0417449   0.17835206 
   10100   -937.74507     45.71386   -892.03121    1637.3047    6985.9921     2.180474     5.552917   0.15785622 
   10200   -943.33852    46.814199   -896.52433    1676.7148   -5434.9212    2.1547911    5.9195785   0.15690293 
   10300   -944.78403    49.038062   -895.74596    1756.3656   -2749.4581    2.1611498    3.5640392   0.13356953 
   10400   -932.78201    47.130135   -885.65187    1688.0305    10031.663      2.16722    2.9569835   0.15492248 
   10500   -941.00381    48.807534   -892.19627    1748.1089    5622.3272    2.1693742    11.297964   0.16227352 
   10600   -943.43337    46.276357   -897.15701    1657.4513   -8717.2791    2.1436802    4.0395743   0.16645634 
   10700   -944.06923     48.92492   -895.14431    1752.3132    773.37475    2.1663176    4.9407879   0.13944542 
   10800   -938.68131    53.202767   -885.47854    1905.5302    9224.1216    2.1689991    6.6556804   0.15525852 
   10900   -940.28021    46.183077   -894.09714    1654.1103   -285.78185    2.1605666    4.8033292   0.16522866 
   11000   -943.85096    46.476037   -897.37492    1664.6031   -7955.2659    2.1457722    3.3486557   0.16345549 
   11100    -943.4406    50.252923   -893.18768    1799.8774    2772.1762    2.1712711     5.305003   0.16730591 
   11200   -942.63888    56.529759   -886.10912     2024.691    443.14991    2.1615445    3.9332561   0.16472928 
   11300   -946.63044    50.050478   -896.57996    1792.6266   -5222.6686    2.1575715     6.597695   0.14445108 
   11400   -941.59598    44.675902   -896.92007    1600.1288    -3432.438    2.1543349    4.8402028   0.15503923 
   11500   -945.21595    53.054059   -892.16189     1900.204    4435.0142    2.1791652    4.7542719    0.1598811 
   11600   -938.02267    52.129542   -885.89313    1867.0911    5438.5536    2.1646484    5.1452555    0.1389575 
   11700   -940.17604    47.323333   -892.85271    1694.9502    -17741.85    2.1169708    3.1637378   0.16574331 
   11800   -943.48874    46.946051   -896.54269    1681.4373   -1418.7595    2.1608419    5.1757352   0.14090474 
   11900   -942.71572    48.281251   -894.43447    1729.2593    21450.177     2.217489    5.3374358   0.13170537 
   12000   -946.66604    45.505439    -901.1606    1629.8398   -7514.1281    2.1588494    4.3690146   0.12264781 
   12100   -946.63443    46.141086   -900.49334    1652.6064    -12149.96    2.1477248    4.7056189   0.12702048 
   12200   -945.71997    52.754938   -892.96503    1889.4906    2404.1082    2.1765971    5.7881277   0.12517086 
   12300   -943.36206    47.839638   -895.52242    1713.4424    5142.0095    2.1793219    5.9333174   0.15079367 
   12400   -946.94491    47.092057   -899.85285    1686.6667   -9248.2993     2.155557    5.7137135   0.13703873 
   12500   -943.67036    50.951963    -892.7184    1824.9145   -746.78289    2.1653145    7.5159544   0.14286495 
   12600   -945.72744    54.404588   -891.32285     1948.575    5134.5279    2.1824869    4.1081323   0.12908063 
   12700   -944.70046    46.953756   -897.74671    1681.7133   -3773.5499    2.1595456      4.64727   0.13260628 
   12800   -942.57306    45.238895   -897.33417    1620.2932   -4830.0979    2.1536416    5.3739138   0.12545288 
   12900   -940.92509    53.222663   -887.70243    1906.2428    5902.8998    2.1703481    6.8711328   0.13194784 
   13000   -943.97715    48.273842   -895.70331    1728.9939    8055.6244    2.1830991    7.3081071   0.12581725 
   13100   -944.59594    46.695949   -897.89999    1672.4796   -9107.3498    2.1426111    14.200025   0.12442154 
   13200   -940.52588    49.592601   -890.93328    1776.2271   -1073.2047    2.1526166    19.157252   0.15662941 
   13300   -942.57079    43.799083    -898.7717    1568.7243    9007.2597    2.1905111    19.261134   0.16252567 
   13400   -944.33712    45.262972   -899.07415    1621.1555   -2429.0966    2.1639998    18.751411   0.15749285 
   13500   -942.43436    49.296661    -893.1377    1765.6276   -5678.5927    2.1478259    25.359037   0.15977674 
   13600   -944.79658    51.933283    -892.8633    1860.0618    -88.76823    2.1704058    24.856208   0.16064823 
   13700   -945.86151    44.418001   -901.44351    1590.8917    5341.1293    2.1879873    33.625689   0.12752811 
   13800   -941.05735    46.587337   -894.47001    1668.5895   -4631.4751    2.1530887     36.74295   0.15864691 
   13900   -936.25199    42.939277   -893.31271    1537.9292    431.41909    2.1544469    32.217508   0.16594141 
   14000   -947.87945    46.487454     -901.392     1665.012    4140.0167    2.1815623    34.372692   0.13859531 
   14100   -944.35118    49.488966   -894.86221    1772.5153    2453.5107    2.1699796    36.896838   0.12663784 
   14200   -944.39541     50.63938   -893.75604    1813.7189   -4974.2536    2.1567822     37.72191   0.12009953 
   14300   -948.93011     47.55995   -901.37016    1703.4249    -4888.768    2.1703747    33.049435   0.13149585 
   14400   -942.72092    47.656972   -895.06395    1706.8999    4674.0928    2.1741389    33.560251   0.12821655 
   14500   -940.64665    47.667372   -892.97928    1707.2724    1617.8449    2.1650285    34.180361   0.15219552 
   14600   -943.72332    42.729455   -900.99387    1530.4141   -813.78718    2.1706106    35.280049   0.14282147 
   14700   -941.11421     45.97883   -895.13538    1646.7949    436.46344     2.169749    34.548535   0.14958043 
   14800   -942.35862    50.325127   -892.03349    1802.4635    2950.7883    2.1764067    33.717875   0.15491293 
   14900   -948.95322    48.587879   -900.36534    1740.2416   -3887.7669     2.170933    34.481892   0.13369314 
   15000   -943.37123    48.014696   -895.35653    1719.7123   -6837.2639    2.1540896     33.83573   0.14452856 
   15100   -937.87156    47.168152    -890.7034    1689.3921    9087.1643    2.1814218    34.517813   0.14804422 
   15200   -946.25461    47.153497   -899.10111    1688.8672    6282.8139    2.1911551    38.501912   0.13997824 
   15300   -942.51055    46.142927   -896.36762    1652.6723   -10294.018    2.1415671    36.633975   0.12625954 
   15400   -938.58542    47.211194   -891.37423    1690.9337    141.81686    2.1566849    35.626347   0.13843207 
   15500   -949.40258    50.465941   -898.93664     1807.507    10966.224    2.2080129    35.130164    0.1395816 
   15600   -943.62598    45.098506   -898.52747    1615.2649   -2001.4051     2.166812    36.032046    0.1437984 
   15700   -940.56227    47.987669    -892.5746    1718.7443    -9764.956    2.1351987    34.441247    0.1449481 
   15800   -945.66211    46.340668   -899.32144    1659.7547    7855.5492    2.1937747    35.835677   0.13006248 
   15900   -950.42997    50.819797   -899.61017    1820.1808    2992.5228    2.1956017    33.124519   0.13199428 
   16000   -946.05117    52.716802   -893.33437    1888.1247   -9692.0856    2.1480002    36.139346    0.1190428 
   16100   -944.35531    46.327792   -898.02752    1659.2935   -3656.3706    2.1625659    36.629726   0.13680773 
   16200   -947.26817    46.900093   -900.36808    1679.7912    5986.6856    2.1981698    33.986905   0.13377606 
   16300   -938.41873    46.198252   -892.22048    1654.6538    3614.2376    2.1660775    37.372914    0.1208452 
   16400   -944.05258     46.45693   -897.59565    1663.9188   -5101.9647    2.1590016    37.965749   0.14569484 
   16500   -944.22506    44.050243   -900.17481      1577.72    3952.7247    2.1815958    36.584414   0.12501134 
   16600   -941.01335    50.067396   -890.94595    1793.2325     1873.263    2.1696028    37.101595   0.14526818 
   16700   -943.84799     46.59367   -897.25432    1668.8163   -456.64129    2.1707492     36.47088   0.14686248 
   16800   -947.47901    48.023356   -899.45565    1720.0225   -2952.3095     2.170266    35.493187   0.12442706 
   16900   -937.96188     47.56053   -890.40135    1703.4457    1566.3463    2.1597098    37.708098   0.13599758 
   17000   -945.32192    47.248037   -898.07388    1692.2534     2148.537    2.1783137    33.795484   0.12845601 
   17100   -945.66291     46.39755   -899.26536     1661.792      -347.61    2.1694092    33.060491   0.13237067 
   17200   -942.22262    50.581123    -891.6415    1811.6324   -2499.1654    2.1566035    34.603149   0.13515125 
   17300   -946.85136    47.432341   -899.41902    1698.8545   -597.59654    2.1811304    39.321586   0.12362749 
   17400   -945.40263    46.085362   -899.31727    1650.6105    675.87418    2.1759021    39.275183   0.12502854 
   17500   -939.96928    47.715016   -892.25427    1708.9788    1442.9214    2.1602348    34.099183   0.12432296 
   17600   -945.09243     45.46051   -899.63192    1628.2306    717.11725    2.1778922    35.199128   0.13836396 
   17700   -946.25626    46.138824   -900.11744    1652.5253    494.82892    2.1782553    34.192002   0.13445257 
   17800    -945.1103    52.237608    -892.8727    1870.9617   -2925.1487    2.1642939    36.108236   0.14132062 
   17900   -947.55036    48.231707   -899.31865    1727.4848   -3273.4746    2.1737223    34.537275    0.1428054 
   18000    -946.4267     46.28981   -900.13689    1657.9331    1974.8865     2.181472    32.162545   0.13675002 
   18100   -943.82559    51.709454   -892.11614    1852.0451   -3234.2217    2.1642154    31.784468   0.14415044 
   18200   -946.81746     47.86583   -898.95163    1714.3804    -2271.109     2.172693    34.938412   0.13390789 
   18300   -945.97289    47.040943   -898.93195     1684.836    1509.5932    2.1817446    31.590244   0.12577991 
   18400   -939.10097    48.238225   -890.86274    1727.7183    -775.3533    2.1631733    35.373858   0.14881821 
   18500   -943.79989    44.880521   -898.91937    1607.4575   -537.12837    2.1735044    35.459775    0.1376637 
   18600   -948.47784    50.018219   -898.45962    1791.4712   -1042.4904    2.1772822    34.288037   0.13349524 
   18700   -940.62468    50.371365   -890.25332    1804.1196   -1919.2099    2.1606675    34.772742   0.14924181 
   18800   -947.81096    49.185748   -898.62521    1761.6551   -1896.6653    2.1774343     34.98999   0.14709812 
   18900   -943.46379    45.083494   -898.38029    1614.7273   -525.83316    2.1715101    36.439948   0.14597733 
   19000    -939.8641     48.79481   -891.06929    1747.6531   -2620.4075    2.1607746    38.178896   0.15431634 
   19100   -947.54203    47.874865   -899.66716     1714.704    305.44347    2.1837574    38.905168     0.141226 
   19200   -943.19657    44.532218   -898.66435    1594.9825   -679.91506    2.1703003    34.702332   0.14471256 
   19300   -940.23925    47.864293   -892.37495    1714.3254   -1207.4806    2.1575682    35.583432   0.14434276 
   19400   -950.54736    49.901537   -900.64583    1787.2921    808.04801    2.1848587     34.28564   0.14813713 
   19500   -946.30036    47.245588   -899.05477    1692.1656   -210.31339    2.1769584    36.409821   0.14029721 
   19600   -942.09483    48.989785   -893.10505    1754.6364   -2787.4079    2.1595295    36.343478   0.14091547 
   19700   -947.74539    47.485038   -900.26035    1700.7419   -2730.0829    2.1710492    37.517407   0.13209291 
   19800   -948.78532    49.389214    -899.3961    1768.9425    1903.3302    2.1859219    36.056021   0.14136596 
   19900   -937.27277    45.088752   -892.18402    1614.9156    4619.0475    2.1665055    38.597331   0.13993385 
   20000   -941.22519    41.761636   -899.46355    1495.7503   -2558.3046    2.1621729    37.447764   0.13099552 
   20100   -948.84838    50.116789   -898.73159    1795.0016   -2073.7881    2.1723136    35.261316   0.12809408 
   20200    -942.7468    51.977718   -890.76908    1861.6533    3943.8164    2.1756637    36.931585   0.12500456 
   20300   -947.31407    49.002251   -898.31182    1755.0829   -5480.9907    2.1638209    38.422841   0.13916428 
   20400   -941.90556    43.081851    -898.8237    1543.0357   -5771.8572    2.1542174    35.727085   0.13601149 
   20500   -938.97892    49.253268   -889.72566    1764.0734    3106.3843    2.1682531     36.80452   0.13993837 
   20600   -947.52298    50.706966   -896.81602    1816.1396    6635.6227    2.1934125    37.859002   0.13143741 
   20700   -947.44975     47.54297   -899.90678    1702.8168   -9948.8989    2.1512602    33.571245   0.13284371 
   20800   -935.59792    43.443294   -892.15462    1555.9812    -4657.361    2.1428327    35.616792   0.12947217 
   20900   -942.54051    44.734658   -897.80585    1602.2332    13896.626    2.2039543    35.383042   0.14980964 
   21000   -946.11897    46.132968     -899.986    1652.3156    1936.7723    2.1819207    33.052402   0.12104335 
   21100   -944.30593    49.547576   -894.75835    1774.6145   -10499.554    2.1443699    34.544791   0.12736001 
   21200    -944.2873    51.242172   -893.04513    1835.3088   -653.20302    2.1686219    32.532694    0.1286978 
   21300   -947.53889    46.447206   -901.09168    1663.5705    11260.495    2.2072501      32.4039   0.13007316 
   21400   -943.22547    48.488956   -894.73651    1736.6985   -5670.5828    2.1563763    37.199845   0.12612616 
   21500   -942.50045      48.1626   -894.33785    1725.0097   -5484.3166    2.1520709     33.61672   0.13968402 
   21600   -947.11832    45.539064   -901.57925    1631.0441    5113.9171    2.1881971     33.87879   0.12783014 
   21700    -942.9505    49.027126   -893.92337    1755.9739    4118.3002    2.1738825    34.851122   0.13632932 
   21800   -944.75986    50.301039   -894.45882    1801.6008   -6037.6814    2.1612908    38.268815   0.13805964 
   21900   -948.16607    47.096029   -901.07004     1686.809   -1939.1875    2.1741282    37.713036   0.12538443 
   22000   -941.82693    47.596601   -894.23032    1704.7376     4217.653    2.1770593    34.236787   0.15451528 
   22100   -941.07396    47.842412   -893.23154    1713.5417   -461.24394     2.164145    34.787509   0.13190082 
   22200   -948.21883    47.163637   -901.05519    1689.2304   -5573.3505    2.1644502    34.993912   0.14095868 
   22300   -944.01238    49.394695   -894.61769    1769.1389    2544.0793    2.1727068    34.551172   0.13507669 
   22400   -941.36475     49.24881   -892.11594    1763.9138    5971.2241    2.1720372     36.44983   0.13355782 
   22500   -946.11746    45.056285   -901.06117    1613.7527   -3139.8309    2.1672184    33.478963   0.13118615 
   22600   -939.65667    43.793498   -895.86317    1568.5243   -3297.8018    2.1568124    37.981225   0.15131855 
   22700   -942.52892    51.274425    -891.2545     1836.464    6091.6293    2.1763921    31.873261   0.13373402 
   22800   -948.00029    47.501387    -900.4989    1701.3274    3460.0916    2.1867877    38.171429   0.12330343 
   22900    -944.3545    48.120482   -896.23402    1723.5012   -12642.066    2.1382109    35.977525    0.1395623 
   23000   -941.95731    49.307322   -892.64999    1766.0095   -1273.6084    2.1633778    39.343693    0.1327977 
   23100   -945.88761    47.045655   -898.84196    1685.0048     12891.51    2.2051904    36.952845    0.1360813 
   23200    -944.8678    46.030738   -898.83706    1648.6541   -5288.3666    2.1598542    35.433578   0.14473651 
   23300   -939.27898    46.841542   -892.43744    1677.6942   -10722.974    2.1342747      36.8744   0.14362191 
   23400   -949.83146    51.007458     -898.824    1826.9022    5010.9271    2.1931086    36.261763   0.13684295 
   23500   -946.38702    47.322565   -899.06445    1694.9227    8288.6892    2.1938386    35.920164   0.13527734 
   23600   -937.88295    45.958065   -891.92488    1646.0512   -8493.3514    2.1377817    37.701794   0.13573557 
   23700    -944.2085     44.96078   -899.24772    1610.3321   -3858.9003    2.1633276    35.341184   0.12897869 
   23800   -945.79187    47.122395   -898.66948    1687.7533    8228.0362    2.1917377    36.513123   0.12948202 
   23900   -943.44499    51.528747   -891.91625    1845.5728   -354.92216    2.1636825    33.733868   0.13430318 
   24000   -949.28432    51.335709   -897.94861    1838.6589   -6981.8673     2.154657     38.18082   0.12207809 
   24100   -944.57609    44.705106   -899.87099    1601.1748    1877.7758    2.1751007    39.487894   0.13723306 
   24200   -946.63092    54.725054   -891.90586     1960.053    940.84913      2.17052    34.451473    0.1374148 
   24300   -945.77408    47.646768   -898.12732    1706.5344    -2675.674    2.1668994    34.574439   0.12577425 
   24400   -945.53948    44.391063   -901.14841    1589.9269   -4433.0348    2.1652774     37.07101   0.14254632 
   24500   -944.26093     51.77275   -892.48818    1854.3122    -535.6109    2.1650404    37.231461   0.12458108 
   24600    -943.3621    45.694413   -897.66769    1636.6082    3690.4088    2.1783841    37.503022     0.132483 
   24700   -948.41092    46.493534   -901.91739    1665.2298   -2402.9168    2.1715537    36.533936    0.1190276 
   24800   -941.70051    48.796506     -892.904    1747.7139    -3749.795    2.1529626    32.664189   0.12459596 
   24900   -945.93135    48.776285   -897.15507    1746.9897    1985.4319    2.1805333    36.856959   0.14152847 
   25000   -946.26884    45.414791   -900.85405    1626.5931    2944.0438    2.1794333    33.776682   0.12525634 
   25100   -941.32367    49.146694   -892.17697    1760.2564   -4848.5567    2.1461993    39.245371    0.1221121 
   25200   -945.42022    47.966512   -897.45371    1717.9865   -58.968801    2.1700417     38.27964   0.12672343 
   25300   -949.28516    49.382221   -899.90294    1768.6921    2558.8472    2.1873301    35.562002   0.13220391 
   25400   -942.19481    50.702063   -891.49275     1815.964   -5150.0122    2.1491991    34.737871   0.12299475 
   25500   -943.94869    46.783073   -897.16562       1675.6   -5669.9386    2.1512646    35.640052   0.12666641 
   25600   -948.29045    49.277317   -899.01313    1764.9348    8339.8658    2.1986863    36.165221   0.13177056 
   25700   -939.99978    49.372049   -890.62773    1768.3277    5786.5944    2.1724695     35.84297   0.13864978 
   25800   -946.28482    50.816614    -895.4682    1820.0668   -14931.991    2.1311525    37.002344    0.1319404 
   25900   -945.41957    45.322567     -900.097      1623.29    402.26683    2.1708369    35.207419   0.14176688 
   26000   -945.14019    51.923536   -893.21666    1859.7128    13689.832     2.201649    33.628268   0.14058055 
   26100   -944.43908    51.048263   -893.39081    1828.3637   -6941.9417    2.1538246    37.012999   0.15303155 
   26200   -947.78071    45.972483   -901.80823    1646.5676   -10616.451    2.1536437    36.365365   0.14180416 
   26300   -943.94916    48.330975   -895.61819    1731.0402    5524.8104    2.1831675    34.044834   0.13629161 
   26400   -943.86664    51.550471   -892.31617    1846.3509    5053.5883    2.1801458    35.685019   0.13038336 
   26500   -950.35809    48.379528   -901.97856    1732.7792   -8969.4426    2.1630082    32.123864    0.1322174 
   26600   -944.49688    46.770345   -897.72654    1675.1441   -3974.9965    2.1595796     36.89923   0.13668826 
   26700   -939.97918    47.985781    -891.9934    1718.6767     8806.144    2.1813133    33.134803   0.14074346 
   26800   -945.53526    44.920752   -900.61451    1608.8984    1433.9309    2.1800324    36.131867   0.14113037 
   26900   -946.09593    47.817157   -898.27877    1712.6371   -7648.9938    2.1531647     31.15417   0.12525763 
   27000   -943.06755    50.412304   -892.65525    1805.5859   -2392.5163    2.1618689    38.324756   0.14206179 
   27100   -945.21468    46.474579    -898.7401    1664.5509    6888.9213    2.1906258    35.071056   0.14451048 
   27200   -943.52743    43.570123    -899.9573    1560.5238   -597.33376    2.1715629    36.279426   0.14089937 
   27300    -940.4687    48.980022   -891.48868    1754.2868   -10299.572    2.1356989    29.983333   0.15713943 
   27400   -945.24362    47.935323   -897.30829    1716.8694    4437.4533    2.1847412    34.823223   0.17527874 
   27500   -944.76421    46.827608    -897.9366    1677.1951    10037.545    2.1957913    34.589806   0.17756474 
   27600   -935.35759     44.86048   -890.49711    1606.7397   -9237.3005    2.1301757    33.707986   0.17916171 
   27700    -944.0036    48.492519   -895.51108    1736.8262   -8678.3022    2.1456603    36.657715   0.14651808 
   27800   -947.67098    51.548115   -896.12286    1846.2666    15593.335    2.2186858    32.835666   0.16909021 
   27900   -938.87002    47.244877   -891.62514    1692.1402    932.03475     2.165392    31.885612   0.19223455 
   28000   -937.58319    45.165281   -892.41791    1617.6566   -16525.422    2.1150402    33.357473   0.17562705 
   28100   -944.81034    46.037558   -898.77278    1648.8984    6518.6563    2.1860336    30.875438   0.16135729 
   28200   -937.62435    44.665588   -892.95877    1599.7594    14538.086     2.195163    31.862837   0.16402003 
   28300   -940.13004     47.99729   -892.13275    1719.0889   -9120.5155    2.1418959    30.657948   0.16600239 
   28400   -943.80175    43.626882   -900.17487    1562.5567   -5249.4007    2.1579094    38.136088   0.15459833 
   28500   -943.20891    49.068342   -894.14057    1757.4501    5843.1106    2.1872909     30.54935   0.15983827 
   28600   -940.05637      48.7877   -891.26867    1747.3985    916.93373    2.1647395    34.970378   0.15135683 
   28700   -946.01601    45.341048   -900.67496    1623.9519   -7030.8267    2.1563424    36.644659   0.14191856 
   28800   -944.42964     47.47099   -896.95865    1700.2387    990.09023    2.1738001    36.725609   0.13566447 
   28900   -943.15394    52.524738    -890.6292    1881.2456    4592.3933    2.1786577    35.943157   0.16145129 
   29000   -945.52881    45.618454   -899.91035    1633.8876   -2748.7398    2.1661668    34.836068   0.14450312 
   29100   -945.15215    47.018266   -898.13389    1684.0238   -7183.1991    2.1535136    36.254382   0.13258512 
   29200    -942.8907    51.297031   -891.59367    1837.2736    2654.4489    2.1738209    32.428875   0.15260903 
   29300   -946.28601    46.565016   -899.72099      1667.79    9062.9899    2.1967212    31.928564   0.13602632 
   29400   -942.70816    43.351139   -899.35702    1552.6806   -4928.7763    2.1547917     36.72799    0.1334648 
   29500   -940.07623    46.746762   -893.32947    1674.2995   -5553.4504    2.1486601    38.050721   0.13249305 
   29600   -946.29947    47.764427   -898.53504    1710.7486      9776.86     2.199095    36.939334   0.13152268 
   29700   -947.53864    46.586775   -900.95187    1668.5693    3950.4327    2.1865836     34.36291   0.13748054 
   29800   -940.37456    47.320692   -893.05387    1694.8556   -9648.3035    2.1364922    32.823314   0.15068104 
   29900   -945.06896    47.104892   -897.96407    1687.1264   -217.93076    2.1719398    35.664321   0.15954889 
   30000    -948.3561    48.982103   -899.37399    1754.3613     11790.29    2.2143037    36.521167   0.15667097 
   30100   -939.96139    48.886661   -891.07473    1750.9429   -4072.9179    2.1497763    38.616019   0.15390461 
   30200   -944.63012    48.629935   -896.00018    1741.7479   -19408.285    2.1221277    38.073446   0.14603575 
   30300   -944.34279    46.219986    -898.1228    1655.4323    16240.645    2.2130236    34.156984   0.13553046 
   30400   -947.01219    52.738071   -894.27412    1888.8865     15659.62    2.2154682    31.098752   0.14290874 
   30500   -943.96102    50.576843   -893.38418    1811.4791   -18846.787    2.1250374    38.090174   0.13287457 
   30600     -945.575    43.670648   -901.90435    1564.1243   -1769.1053    2.1699067    31.425588   0.12996227 
   30700   -949.38917    52.464474    -896.9247    1879.0872    5681.4707    2.1929998    35.647399   0.14096077 
   30800   -942.91061    49.631817   -893.27879    1777.6317   -3268.2121    2.1644327     34.79449   0.15600969 
   30900   -948.80231    47.086064   -901.71625    1686.4521   -9297.9388    2.1584385    32.711378    0.1496971 
   31000   -946.51828     48.40468    -898.1136    1733.6801    632.77814    2.1777721    35.130068   0.15830543 
   31100   -941.34243    49.521602   -891.82083    1773.6842    6595.0995     2.180763    35.709105   0.14282034 
   31200   -944.84978    44.801173    -900.0486    1604.6155    -3479.939    2.1645467    39.421938   0.12939652 
   31300   -941.84505    44.036153   -897.80889    1577.2153    -3601.432    2.1604116    33.619725   0.14508579 
   31400   -940.44914    49.346192   -891.10295    1767.4016     4925.603     2.175539    32.840136    0.1438395 
   31500   -945.31671    46.824901    -898.4918    1677.0982    2945.9913    2.1795445    34.075658   0.13269563 
   31600   -943.80167    45.362937   -898.43873    1624.7359    -4748.774    2.1559286    35.284293   0.12692359 
   31700   -941.67484    50.867548   -890.80729    1821.8911    -6013.592    2.1507203    35.532966   0.14229843 
   31800   -945.98422    47.371832   -898.61239    1696.6872    8254.5356     2.194573    32.743499   0.14796812 
   31900   -944.16489    45.184918   -898.97997    1618.3599   -197.28538    2.1708805    34.189201    0.1497931 
   32000   -938.25947    46.194505   -892.06496    1654.5197   -6320.3748      2.13674    36.475437   0.14894459 
   32100   -946.01546    45.675557    -900.3399    1635.9328    6171.6083    2.1885567    35.909745   0.13766592 
   32200    -949.1115    50.205847   -898.90565    1798.1914    5950.1399    2.1911196    36.543446   0.13252566 
   32300   -942.61369     48.86564   -893.74805      1750.19   -8527.4336    2.1423782     36.50679   0.12194408 
   32400   -944.42798    47.120474   -897.30751    1687.6845   -6435.4613    2.1535478    34.420504    0.1275999 
   32500   -950.61774    50.391106   -900.22663    1804.8267    10918.704    2.2124807    34.593974   0.13445255 
   32600   -940.45184    48.395478   -892.05636    1733.3505    3626.4809     2.168647    33.830505   0.13791222 
   32700   -945.16265    48.812292   -896.35036    1748.2793   -15639.484    2.1297334    37.788104   0.14413467 
   32800   -945.87066    46.076332   -899.79432    1650.2871    4409.0385    2.1848735    35.915798   0.14295848 
   32900   -941.29415    49.254929   -892.03922    1764.1329    14325.368     2.194595    36.677343   0.14610423 
   33000   -944.30888    50.962712   -893.34617    1825.2995   -7418.9681    2.1477269    34.864683   0.13186866 
   33100   -943.65179    43.493716   -900.15807    1557.7872   -2216.9403    2.1661866    35.958663   0.13781045 
   33200   -944.59216    49.181226   -895.41093    1761.4932     4041.639    2.1805177    36.226997    0.1361261 
   33300   -945.48178    53.704454   -891.77732    1923.4988   -982.36428    2.1642586    33.240304   0.12244606 
   33400   -946.33134    45.927531   -900.40381    1644.9576   -1737.5101    2.1697321    34.591756   0.13053363 
   33500   -943.38476    47.343811   -896.04094    1695.6836    1077.6021    2.1709619    34.056655   0.12876505 
   33600   -940.12287    48.966495   -891.15637    1753.8023    4524.5006     2.167813     35.81481    0.1467675 
   33700   -944.52948    43.994186    -900.5353    1575.7122    3411.1926    2.1781708    36.186105   0.13027785 
   33800   -943.96431    47.571279   -896.39303    1703.8307    -4158.125    2.1598902    37.421793   0.12929732 
   33900   -943.46412    51.040519    -892.4236    1828.0863   -3297.3589    2.1582526    35.629184   0.13652457 
   34000   -948.78726    47.438204   -901.34906    1699.0644    4766.0049    2.1897114    33.352737   0.12906489 
   34100   -941.45636    45.521857    -895.9345    1630.4278    2090.1204    2.1656582     33.80375   0.12705748 
   34200   -937.36641    43.530379   -893.83603    1559.1003   -4281.7261    2.1467547    35.779881   0.14003351 
   34300   -951.20056    49.263554   -901.93701    1764.4418    1488.0975    2.1859611    34.383788   0.12340303 
   34400   -945.28692    48.684884   -896.60203     1743.716    6710.0647    2.1890422    36.977916    0.1359508 
   34500   -942.00391    48.051349   -893.95256    1721.0251    -7479.505    2.1472382    34.772997   0.12823892 
   34600     -946.297    44.520734   -901.77627    1594.5712   -6348.2105    2.1595086    35.443212   0.13654637 
   34700   -945.63027    47.990942   -897.63933    1718.8615    8585.4538    2.1992271    35.266778   0.15418281 
   34800   -939.12968    47.053347   -892.07634    1685.2802    4514.8468    2.1700413     34.52776   0.14726049 
   34900   -945.51952    45.467855   -900.05166    1628.4937   -12319.667     2.143947    31.168593   0.14283343 
   35000   -941.00757    43.689954   -897.31762    1564.8157    3653.0215    2.1732343    33.812616   0.13753936 
   35100    -940.3854    51.335866   -889.04953    1838.6645    9919.1185    2.1870845    33.445312   0.15886822 
   35200   -945.04543    47.240711   -897.80472     1691.991   -4231.5518    2.1603683    34.070745   0.13570247 
   35300   -950.11818    51.200387   -898.91779    1833.8122   -11899.631    2.1502243    37.636476   0.12827935 
   35400   -943.64206    53.668214   -889.97385    1922.2008    2864.0314    2.1720166    39.024515   0.12985354 
   35500   -945.50176    48.271418   -897.23034    1728.9071    3707.4027    2.1833709    39.592487   0.15007225 
   35600    -944.5825    44.443651   -900.13885    1591.8104   -4986.2425    2.1623174    35.347791   0.14144525 
   35700   -946.24339    53.856553   -892.38684    1928.9464    -3987.429    2.1600324    35.518942   0.14996384 
   35800   -948.25069    49.787567   -898.46313    1783.2101    1134.5222    2.1805063    33.760631   0.12095402 
   35900   -948.27586    47.696811   -900.57905    1708.3268   -2116.6587    2.1720951    31.938204   0.13097466 
   36000   -939.63437    46.079528   -893.55485    1650.4016   -1177.4143    2.1601885    38.637683   0.15811721 
   36100   -944.97756    47.270453   -897.70711    1693.0562    658.54804    2.1719846    32.407311   0.15007386 
   36200   -950.47193    48.680144   -901.79179    1743.5462   -115.51449    2.1815046    36.268526   0.12930162 
   36300   -943.51517    50.073641   -893.44153    1793.4562   -2871.3177    2.1593921    37.735627   0.12733079 
   36400   -945.69055    48.484325   -897.20623    1736.5327   -1856.6654     2.167787    36.748995    0.1339842 
   36500   -948.10669     46.15776   -901.94893    1653.2036    1399.6192    2.1840151    36.024593   0.13935554 
   36600   -943.58221    51.140868   -892.44134    1831.6804   -5067.7323    2.1523305    38.159707   0.14597161 
   36700   -947.71567    50.417295   -897.29837    1805.7647   -5516.7553    2.1600659    34.643189   0.14383344 
   36800   -948.03259    48.302846   -899.72975    1730.0328    4109.0513    2.1887016    36.863541    0.1358484 
   36900   -943.32714    53.735947    -889.5912    1924.6267   -1668.5187    2.1553259      33.1958   0.12792911 
   37000   -940.27215     44.41803   -895.85412    1590.8928    -2769.859    2.1533785    34.007484   0.13630303 
   37100   -945.62814    46.625349   -899.00279    1669.9509   -644.87281     2.174846    32.584004   0.12354843 
   37200   -947.76826    56.525805   -891.24245    2024.5493    2913.9966    2.1822899    36.270677   0.12592629 
   37300   -943.70792    49.797639   -893.91028    1783.5708   -4992.8652    2.1542614    36.721617   0.13018146 
   37400    -950.0193    49.415572   -900.60373    1769.8866   -10084.732    2.1559379    35.781862   0.11799537 
   37500   -945.01231    51.093169   -893.91915     1829.972    7172.8679    2.1880278    33.231501   0.13314689 
   37600   -944.80182    50.714308   -894.08751    1816.4026     2039.823    2.1757014    33.485753   0.14888676 
   37700   -946.78395    44.022102   -902.76185     1576.712   -6851.3074    2.1600271    34.135836   0.14125203 
   37800    -944.4426     47.61816   -896.82444    1705.5098     722.3165     2.170511    36.415497   0.13531171 
   37900   -947.24545    54.491777   -892.75367    1951.6979    5713.5054    2.1839382    33.361593   0.13066011 
   38000   -946.83396    44.924258    -901.9097     1609.024   -2551.3882    2.1708279    34.469814   0.11665818 
   38100   -942.30602    43.693392   -898.61263    1564.9389   -6307.0057    2.1526281    34.685297   0.14421748 
   38200   -942.78609    50.438409   -892.34768    1806.5209    7363.5215    2.1820528    32.000156    0.1442058 
   38300   -945.16096    47.014166   -898.14679    1683.8769    5856.2621    2.1851756    38.798725   0.15060624 
   38400   -945.36066    43.762258    -901.5984    1567.4054   -11165.878    2.1473575    34.950871   0.15424651 
   38500   -941.85445    48.688659    -893.1658    1743.8512   -5529.7983    2.1503091    37.026983   0.16290979 
   38600   -940.49247    46.959033   -893.53343    1681.9023    22768.793    2.2137199    37.314415   0.15609521 
   38700   -947.20333    47.542444   -899.66089    1702.7979   -2148.5849    2.1723938    36.466973   0.13783541 
   38800   -937.59928    45.730854   -891.86843    1637.9133   -17640.616    2.1131376    35.691041   0.14204721 
   38900   -939.75432    49.072783   -890.68154    1757.6091    4946.0188    2.1743698    37.532899   0.15005376 
   39000   -944.92396    48.099848   -896.82412    1722.7621    8580.8452    2.1937686    33.304485    0.1486732 
   39100   -945.93106    48.311245   -897.61981    1730.3336    -5806.014    2.1560413    39.859083   0.12902232 
   39200    -935.2131    46.144301    -889.0688    1652.7215   -2221.5441    2.1447977    34.898138   0.15802769 
   39300   -944.01617    46.679441   -897.33673    1671.8883    7597.0153     2.187068    34.737193    0.1387969 
   39400   -942.34068    43.893979    -898.4467    1572.1231   -858.46059    2.1661495    34.779083   0.15367476 
   39500   -940.43716    45.054596   -895.38257    1613.6922   -1604.4053     2.157432    38.431601   0.15514756 
   39600   -942.02912    51.473724    -890.5554    1843.6021     3325.146    2.1711823     33.19475   0.14909465 
   39700   -934.59317     52.44079   -882.15238    1878.2389    2640.8272    2.1498862    38.229025    0.1425248 
   39800   -945.34293    51.165938   -894.17699    1832.5783   -1954.3263    2.1661437     33.26061   0.14629253 
   39900   -944.81046    48.907334   -895.90313    1751.6834   -526.92162    2.1659609    34.395415   0.13386702 
   40000   -943.79938    46.236606   -897.56278    1656.0275    84.755768    2.1706936    35.189988   0.13058643 
   40100    -948.3908    48.762485   -899.62831    1746.4954   -362.76776    2.1766178    34.703218   0.12712111 
   40200   -948.40911    38.807718   -909.60139    1389.9517    2043.9288    2.1891443    34.545448   0.12051288 
   40300   -942.65655    41.120018   -901.53654    1472.7699   -3714.2131     2.160765    35.859823   0.13447093 
   40400   -943.72978    46.279388    -897.4504    1657.5598    4075.2543    2.1787363    32.636796   0.12328853 
   40500   -941.68241    47.004057   -894.67835    1683.5148    3811.0176    2.1784249    33.665585   0.14723594 
   40600   -944.33285    47.914565   -896.41828     1716.126   -8655.7117    2.1513363    34.496401   0.13091606 
   40700   -948.39698    44.803086    -903.5939     1604.684    665.10658    2.1822753     33.28505   0.13512215 
   40800   -943.58701    47.807664   -895.77935    1712.2972    10956.895    2.1941338    33.138124    0.1413386 
   40900   -945.01075    49.147728   -895.86303    1760.2934   -4827.0284    2.1590454    36.890942   0.13639858 
   41000   -947.56421    45.767174   -901.79704    1639.2142   -11610.423    2.1537144    33.646632   0.12575571 
   41100   -950.07284    48.556397   -901.51644     1739.114    7522.3358     2.201405     34.09688   0.11401106 
   41200    -942.7162    48.865392    -893.8508    1750.1811    6580.0856    2.1822274    34.338532   0.12586762 
   41300     -942.609    44.621206    -897.9878    1598.1698   -9771.8123    2.1471222    36.364789   0.13744418 
   41400   -943.71035    42.331476   -901.37888      1516.16    1404.5511    2.1753691    34.423248   0.13024988 
   41500   -939.36889    47.162884     -892.206    1689.2035    11812.512    2.1887502    35.927609   0.13758491 
   41600   -940.58829    46.943558   -893.64474     1681.348    1862.3367    2.1653201    31.106862   0.13194061 
   41700   -944.58271    46.194436   -898.38827    1654.5172    -7180.091    2.1523558     34.38689   0.12659228 
   41800   -942.40026    46.118097   -896.28216     1651.783    4301.2442    2.1750745    37.861746   0.13311185 
   41900   -941.27912    52.921281   -888.35784    1895.4484   -744.38339    2.1566966    34.539172   0.13390385 
   42000   -945.21717     47.79473   -897.42244    1711.8339    -221.3101    2.1691274    36.626953   0.12172596 
   42100   -942.71046    45.270642   -897.43982    1621.4302    3334.5281     2.168832    37.046679   0.12090281 
   42200   -937.35812    48.025806   -889.33231    1720.1102    1687.4139     2.159764    35.368054    0.1366439 
   42300   -944.85899    49.077553   -895.78144      1757.78   -1256.3445    2.1642214    34.191445   0.13803612 
   42400    -945.6614    47.117506    -898.5439    1687.5782   -3861.9015    2.1636959    34.695451   0.13816749 
   42500   -941.31372    47.638027   -893.67569    1706.2214     3432.443    2.1712502    35.775642   0.13952933 
   42600   -941.03185    50.207225   -890.82462    1798.2407    3901.5832    2.1690737    39.859837   0.14379807 
   42700   -944.07115    43.175252    -900.8959    1546.3809    1180.9979    2.1765438    35.795484   0.14060236 
   42800   -942.48334    44.942392   -897.54095    1609.6735   -2051.9248      2.16479    35.248244   0.14707738 
   42900   -942.12724    48.388022   -893.73922    1733.0835     2144.014     2.169805    36.338776   0.14697554 
   43000   -948.90659    46.699365   -902.20723    1672.6019    1609.8406    2.1880797    34.883248   0.14338905 
   43100   -948.47252    47.589369   -900.88315    1704.4786   -8408.9783    2.1595322    33.731619   0.14029653 
   43200   -943.80173    48.257976   -895.54376    1728.4257   -1895.1497    2.1644618    34.233627   0.15008224 
   43300   -940.19458    44.563697   -895.63088      1596.11    11692.912    2.1921236    36.340874   0.13932584 
   43400    -948.3226    43.616262   -904.70633    1562.1763    1278.7749    2.1824614    35.213002   0.14465537 
   43500   -943.13788    46.878232   -896.25965    1679.0083    -12234.93    2.1414498    40.569181   0.14789935 
   43600   -937.01551    42.517952   -894.49756    1522.8389    7967.9804    2.1798303    39.442915   0.14722954 
   43700   -942.15775    42.455955   -899.70179    1520.6183    10276.857    2.1929317     33.98648    0.1494786 
   43800   -946.53219    47.471083   -899.06111     1700.242   -8631.4046     2.152766    34.232977   0.13941158 
   43900    -942.3399    50.145706   -892.19419    1796.0373   -5849.6522    2.1473396    33.707614   0.14233548 
   44000   -947.84998    51.195435   -896.65454    1833.6348    4093.7179    2.1854864    35.759778   0.14082917 
   44100   -944.77581    45.724433   -899.05138    1637.6834     4923.641    2.1823771    34.994353   0.13163952 
   44200   -937.93288    48.924843   -889.00803    1752.3105   -7271.9311    2.1350357     38.73504   0.13364262 
   44300   -944.23057    48.046911   -896.18366    1720.8661    1212.5607    2.1713893    35.585861   0.13471283 
   44400   -947.91514     50.23753   -897.67761    1799.3261    5606.3121    2.1874648    38.367487   0.12355664 
   44500   -944.26273    50.393742   -893.86898    1804.9211   -3913.1459    2.1598695    35.844169   0.13418681 
   44600    -940.7614    50.497194    -890.2642    1808.6264   -11027.229    2.1331704    37.914104   0.13954691 
   44700   -946.00608     46.05228    -899.9538    1649.4257    11669.081    2.2038342    34.887559   0.14436276 
   44800   -945.66822    50.783874   -894.88435    1818.8942    11565.333    2.2013834    27.016479   0.14867677 
   44900   -942.64972    47.029961   -895.61976    1684.4426   -15734.907     2.123054     32.38915   0.14548318 
   45000   -946.54542    42.204434   -904.34098    1511.6098   -3700.4262    2.1653846    32.970103   0.11986494 
   45100   -948.41554    48.859838    -899.5557    1749.9822    11610.324    2.2089218    33.846626   0.12193601 
   45200   -944.02835    49.203302   -894.82505    1762.2838    301.41697    2.1675004    37.957211   0.12387477 
   45300   -941.27825    43.650949    -897.6273    1563.4187   -6657.2543    2.1432133    37.321624   0.13017548 
   45400   -949.09049    45.304167   -903.78632     1622.631    4080.0064     2.188696    31.264972   0.13263024 
   45500   -943.22808    49.411922   -893.81616    1769.7558    5307.6756    2.1772793    32.214534   0.13227628 
   45600   -942.06667    46.672408   -895.39426    1671.6364   -2951.3547    2.1629376    29.360661   0.14211503 
   45700    -945.5314    45.272749   -900.25866    1621.5057   -4349.9122    2.1641441    34.758776     0.142851 
   45800   -945.97727    46.196386   -899.78088     1654.587    4477.6766    2.1880694    34.203587   0.13737149 
   45900   -941.27993    49.500521   -891.77941    1772.9291   -2416.1739    2.1605423    32.546859    0.1442538 
   46000   -943.42538    45.938214   -897.48716    1645.3402   -7279.1638     2.150501    33.793087   0.14367392 
   46100   -946.35121    48.521408    -897.8298    1737.8609    4498.8828    2.1858728    36.350571   0.12597916 
   46200   -938.62203    51.238919   -887.38311    1835.1922     6822.955    2.1735378     34.00811   0.13497277 
   46300   -943.20634    48.563082   -894.64326    1739.3535   -5726.8542    2.1535101    37.687756   0.13923245 
   46400   -943.97195     45.15131   -898.82064    1617.1562   -5798.3211    2.1550652    37.738636   0.13123314 
   46500   -939.94604    46.713469   -893.23257     1673.107    11967.523    2.1929825    33.081606   0.16131582 
   46600   -937.40744     48.44619   -888.96125    1735.1669    5034.8826    2.1698309    34.230824   0.15250125 
   46700   -943.12374    44.389165   -898.73457    1589.8589   -12272.282    2.1339202    38.911655   0.12703442 
   46800   -948.53814    50.753197   -897.78494    1817.7955   -2296.3665    2.1712596    36.607016   0.14600625 
   46900   -943.23268    51.190981    -892.0417    1833.4753     16569.29    2.2053781     35.99902   0.14524795 
   47000   -942.40956    45.547197   -896.86237    1631.3354   -8142.0405    2.1448661    39.643927   0.13822567 
   47100   -947.14492    44.639238   -902.50568    1598.8156   -10023.178    2.1516186    33.273301   0.13680469 
   47200   -945.64104    50.973932   -894.66711    1825.7014    6576.1921    2.1862614    35.115417   0.13745771 
   47300    -944.8832    48.663463   -896.21974    1742.9488    3833.6553    2.1782543    34.905012   0.14525825 
   47400   -946.94483    42.196302   -904.74853    1511.3185   -5390.6858    2.1654855     35.02656   0.12901036 
   47500    -940.7728    43.794953   -896.97784    1568.5764   -256.46811    2.1628461    34.837217   0.13935508 
   47600   -940.79102    46.570679   -894.22034    1667.9928    8408.4836     2.185412    32.528854   0.13988976 
   47700   -948.42537     47.50375   -900.92162    1701.4121   -790.58229    2.1718273    35.023584   0.13760419 
   47800   -945.25153    47.548512   -897.70302    1703.0153   -4938.6653    2.1555864    39.952757   0.13067183 
   47900   -940.98129    48.582619   -892.39867    1740.0532    4416.9143    2.1691911    32.372859   0.13533645 
   48000   -945.40594    47.954667   -897.45128    1717.5623    2168.9648    2.1762558    35.355516    0.1294561 
   48100   -946.51447    46.038238   -900.47623    1648.9227   -4131.2812    2.1611491    34.513433   0.12288251 
   48200   -945.71951    55.243704   -890.47581    1978.6291   -6551.8267    2.1492892    34.636591   0.13210458 
   48300   -944.96607    49.302068     -895.664    1765.8213    8606.2456    2.1898483    41.052254   0.13177684 
   48400    -945.5134    46.083438   -899.42996    1650.5416   -1653.3146    2.1699785    38.537104   0.12611535 
   48500   -941.38071    49.671544   -891.70917    1779.0546   -9822.7105    2.1369371    36.856965   0.13437883 
   48600   -940.15243    47.135919   -893.01651    1688.2377     7055.431    2.1771743     31.61759   0.14729174 
   48700   -946.55293    48.322491   -898.23043    1730.7364    8986.5772    2.1955786    37.005926   0.13186886 
   48800   -942.66046    47.036835   -895.62362    1684.6888   -8191.1052    2.1433202    30.686932    0.1253015 
   48900   -940.98116    49.352528   -891.62863    1767.6286   -8611.2727    2.1392586    35.868657   0.13215669 
   49000    -947.3352    46.496928   -900.83827    1665.3513    18602.153    2.2224784    34.482584   0.12101333 
   49100   -941.05503    44.808641   -896.24639     1604.883    3203.0451    2.1718913    35.739359   0.13149715 
   49200   -941.43296    46.602945   -894.83002    1669.1485   -13517.746    2.1311685    38.358048   0.13225554 
   49300   -947.30749    47.281283   -900.02621    1693.4441    1409.4473     2.180046    34.678141   0.11621417 
   49400   -948.62934      47.1171   -901.51224    1687.5637    7561.5247    2.2009495    36.908326   0.13359954 
   49500   -942.79121    49.002017    -893.7892    1755.0746    -5622.037    2.1513965    39.566494   0.14161614 
   49600   -942.71824    44.654322   -898.06392    1599.3559   -4559.4237    2.1561523    35.491925   0.14730544 
   49700   -944.65635    43.679131   -900.97722    1564.4281    7170.5321    2.1895227    33.159826   0.14604292 
   49800   -944.09102     52.96906   -891.12196    1897.1596   -1110.1811    2.1627572    34.815201   0.12625081 
   49900   -944.96788    48.045018   -896.92286    1720.7983   -4276.2693    2.1610685    37.675077    0.1359053 
   50000   -949.35279    49.525267   -899.82752    1773.8155    -520.1053     2.174218     35.44158   0.11550021 
   50100   -938.91509    48.900226   -890.01486    1751.4288    3225.1894    2.1657172    34.601923   0.12567883 
   50200   -943.12531    47.823444   -895.30186    1712.8623    2911.2045    2.1739033    34.574459   0.13751447 
   50300   -946.61177    46.800201   -899.81157    1676.2135    -4888.626    2.1606438    33.896814   0.11964517 
   50400   -943.42263    51.304359   -892.11827    1837.5361   -1400.0496    2.1636794    37.922868   0.15179178 
   50500   -943.83369    49.058866   -894.77482    1757.1107    8407.6087    2.1894779    30.583614   0.15672145 
   50600   -944.19359    44.121122   -900.07247    1580.2586   -2623.0526    2.1647378    35.554024   0.14475586 
   50700   -942.45228    47.052198   -895.40008    1685.2391   -7783.9136    2.1485092    34.237058   0.15217838 
   50800   -940.32582    49.942093   -890.38373    1788.7447    10550.126    2.1882209    33.775593    0.1451468 
   50900    -943.3435    43.117304    -900.2262    1544.3055    11072.923    2.1981809    36.652798   0.15708385 
   51000   -938.57143    41.138957   -897.43247    1473.4482   -11526.024    2.1339171    37.114768   0.14029896 
   51100   -943.58618    50.119103   -893.46708    1795.0845   -4467.7453    2.1557067    32.757651   0.15178005 
   51200   -949.93885    50.204775   -899.73408     1798.153    9428.5973    2.2047918    34.652189   0.14264942 
   51300   -946.26481    45.236669   -901.02814    1620.2134   -1054.9535    2.1729448    30.086604   0.14920363 
   51400   -944.31826     50.31589   -894.00237    1802.1327   -10783.631    2.1408516    33.233408   0.16106801 
   51500   -943.95565    46.105466   -897.85019    1651.3306    4257.5755    2.1785419    33.767669   0.15935949 
   51600   -949.33022    47.843837   -901.48638    1713.5927    5738.2208    2.1947632    35.418873    0.1446462 
   51700   -943.40684       51.697   -891.70984    1851.5991   -7297.4011    2.1462103    37.094627   0.13594301 
   51800   -942.15532    44.734638   -897.42069    1602.2325   -1300.7863    2.1644695    33.389362   0.14653383 
   51900   -944.30127    45.249084   -899.05219    1620.6581    7155.1043    2.1870595    33.602237   0.14847676 
   52000   -942.97755    53.165101   -889.81244    1904.1811   -2212.1659    2.1604934    33.662576   0.14970478 
   52100   -945.22985    48.052682   -897.17717    1721.0728   -4307.5939    2.1607941    35.607177   0.14243166 
   52200   -944.29117     45.56653   -898.72464    1632.0279    763.12061    2.1734721    36.571674   0.13951322 
   52300   -939.94895    49.645358    -890.3036    1778.1167    3615.3693    2.1699361     37.32716   0.15515321 
   52400   -945.96298    49.536302   -896.42668    1774.2107   -2256.7435    2.1678393    37.523265   0.14787886 
   52500   -944.55444    44.803513   -899.75093    1604.6993   -3813.5379    2.1588148    34.282835   0.13163732 
   52600   -940.67511    48.330534   -892.34458    1731.0245    7123.6642    2.1755212    35.012605    0.1292933 
   52700    -944.0278    46.613817   -897.41398    1669.5379    10423.119    2.1938087    36.257798   0.13258509 
   52800    -945.0044    43.493137   -901.51127    1557.7664   -11798.302    2.1426189    35.469655   0.13542329 
   52900   -943.38158    47.398866   -895.98271    1697.6555   -4362.2353    2.1565722    37.022517   0.13682809 
   53000   -942.59563    49.905187   -892.69044    1787.4228    17144.847    2.2067714    32.435395   0.14055406 
   53100   -948.01021    45.499389   -902.51083    1629.6231   -1884.3812    2.1763356    35.992516   0.12412773 
   53200   -940.66916    43.208909   -897.46025    1547.5864   -12303.205    2.1357873    35.576756   0.13939808 
   53300   -939.92891    46.681131   -893.24778    1671.9488     7325.908    2.1784593    39.529701   0.14775052 
   53400   -944.46649    45.833168   -898.63332    1641.5779    8860.9073    2.1927299    33.626764   0.12898336 
   53500   -944.40295    42.876429   -901.52652    1535.6782   -5440.7923    2.1599533    36.635898   0.13156833 
   53600   -942.76531    50.988736   -891.77657    1826.2316   -9392.1912    2.1411711    35.911151   0.12417937 
   53700   -948.27057    51.970531   -896.30004    1861.3959    6486.2202    2.1917703    37.817837   0.13941573 
   53800   -941.90008    42.430133   -899.46995    1519.6935    6532.5076    2.1811789    32.690128   0.11524651 
   53900   -939.33554    48.914526   -890.42102    1751.9409   -10330.496    2.1326239    37.080641   0.12778108 
   54000   -945.01413    49.704324   -895.30981    1780.2286    383.97148    2.1690321    33.176501   0.11071338 
   54100   -949.68618    51.351819   -898.33437    1839.2359    2654.9516    2.1849614    37.572595   0.11961779 
   54200   -942.39223    48.276416   -894.11582    1729.0861   -1748.6483    2.1576405    36.233027   0.13285676 
   54300   -937.80881    47.094209    -890.7146    1686.7438   -3810.2279    2.1453816    35.689223   0.12966432 
   54400   -948.33491    48.217488   -900.11742    1726.9755    5934.3559    2.1924988    35.870688   0.13468383 
   54500   -944.99574    49.779602   -895.21614    1782.9248    3202.1701    2.1761582    33.639278   0.13006448 
   54600   -942.28446    47.717666    -894.5668    1709.0738   -9082.7077    2.1428012     33.58686   0.13543177 
   54700   -947.33673    43.407112   -903.92962    1554.6853    2466.7549     2.180985    32.499498   0.13406075 
   54800   -941.79387    45.564507   -896.22937    1631.9554    6839.1486    2.1799901    39.090111   0.12874741 
   54900    -941.2633    45.929995   -895.33331    1645.0458    -3085.086    2.1593684    41.376843   0.12371744 
   55000   -948.15369    45.565303   -902.58839    1631.9839   -2402.2066    2.1711966    34.796877   0.12897941 
   55100   -945.01423    45.307388   -899.70684    1622.7463    4810.1251     2.184146    37.853524   0.13974535 
   55200   -942.46907    48.102772    -894.3663    1722.8669   -964.37441    2.1653875    32.429011   0.14358817 
   55300   -945.47777    46.282918   -899.19485    1657.6863   -2313.7206    2.1654431    34.940477    0.1380142 
   55400   -948.32114    45.658655   -902.66248    1635.3274    814.53848      2.18226    34.817023   0.13461756 
   55500   -945.09772    52.197863   -892.89986    1869.5382   -2645.1156    2.1621066    34.293587   0.14701109 
   55600   -944.34185    47.812935   -896.52891    1712.4859   -2656.6165     2.168541    34.435935   0.16698957 
   55700   -947.25847    46.187435   -901.07104    1654.2664    303.32154    2.1771409    34.946279   0.13334656 
   55800    -944.1184    51.428343   -892.69006    1841.9767    3277.5446    2.1717638    38.876508   0.14122705 
   55900   -943.13976    49.917842   -893.22192    1787.8761     1532.833    2.1705334    35.959132   0.12766391 
   56000   -946.80355    47.901146    -898.9024    1715.6453   -5977.2529    2.1582781    35.506435   0.11850301 
   56100   -944.02804    48.482371   -895.54567    1736.4627   -81.569645    2.1702728    36.097195   0.15387831 
   56200   -939.39507    50.527166    -888.8679    1809.6998    5058.7707    2.1718008    29.100399   0.14052146 
   56300   -941.04704    43.665581   -897.38146    1563.9428   -835.23127    2.1669639    33.401128   0.15667817 
   56400   -943.71736    45.800026   -897.91733    1640.3909   -4191.6036    2.1572918    34.595591   0.14560131 
   56500   -941.70465    52.385324   -889.31933    1876.2523     4016.707      2.17684    39.609707     0.165045 
   56600   -943.19689    46.734596   -896.46229    1673.8638    7252.4293    2.1887807    36.876844   0.14834135 
   56700    -941.0035    41.453725   -899.54977    1484.7221   -8935.3006    2.1458272    31.972477   0.15470954 
   56800   -942.18398    48.158272    -894.0257    1724.8546   -2833.9608    2.1628989    34.600938   0.13561483 
   56900   -945.49128    50.222192   -895.26909    1798.7768     12416.06    2.2018265    32.337033   0.13809547 
   57000   -946.79377    44.486309   -902.30746    1593.3382    400.81685    2.1760248    36.363716   0.12590832 
   57100   -943.14789    46.311723   -896.83616     1658.718   -11662.845    2.1438233    36.710409   0.13668971 
   57200   -941.14525    47.868916   -893.27633     1714.491    4460.3228    2.1743359    35.563531   0.13187213 
   57300   -948.30383    46.045653   -902.25818    1649.1883     8234.986    2.1980773    36.037319   0.13577054 
   57400   -943.45388    46.114147   -897.33974    1651.6415   -5225.1672     2.158168    34.957373   0.14815805 
   57500   -945.24891    50.783953   -894.46496     1818.897   -4451.4658    2.1580156    37.454438   0.13906352 
   57600   -947.18791    47.846047   -899.34187    1713.6719    1548.5981    2.1845918    36.387971   0.13636058 
   57700   -946.27855     43.63508   -902.64347    1562.8503    1853.6873    2.1837719    39.685488   0.14004521 
   57800   -940.67788    47.530601   -893.14728    1702.3737   -5610.1792     2.149581     33.70972   0.14969702 
   57900    -941.5904     44.72808   -896.86232    1601.9976    1978.4882    2.1735379    39.894713   0.12115167 
   58000    -946.5723    46.211865   -900.36044    1655.1414    5014.6663     2.188545    36.760255   0.14337766 
   58100   -941.82622     51.82847   -889.99775    1856.3078   -3941.0953    2.1532132    41.335613   0.12583547 
   58200   -946.14406    50.184381   -895.95968    1797.4225   -2583.2533    2.1703267    37.831299   0.15425242 
   58300   -945.50518     46.84427   -898.66091    1677.7919     3104.048     2.179977    36.488197   0.14613063 
   58400   -937.75099    47.368376   -890.38262    1696.5634    2053.6817    2.1618963    37.595904   0.16638185 
   58500   -942.49864    47.864118   -894.63452    1714.3191   -1619.7035    2.1630353    36.613676   0.16037859 
   58600   -950.58999    51.307517   -899.28247    1837.6492    -2709.475     2.174777    37.031184   0.13692485 
   58700   -941.02308    47.773293   -893.24978    1711.0661     4666.401     2.177301    37.095286   0.14157287 
   58800   -940.11618    48.181109   -891.93507    1725.6726   -541.19723    2.1599225    35.378202   0.13707602 
   58900   -945.81187    44.814183   -900.99768    1605.0815   -4070.5898    2.1702513    39.413783   0.13371513 
   59000   -945.87577    50.121989   -895.75378    1795.1879    6685.9785    2.1882203    35.667053   0.13059168 
   59100   -946.60311     53.46518   -893.13793    1914.9289   -1502.1341    2.1694002    32.136927   0.13390511 
   59200    -943.4865    40.994799    -902.4917     1468.285   -8426.9106    2.1536863    34.499019   0.14449297 
   59300   -944.00223    44.653952   -899.34828    1599.3426   -1141.8082    2.1777261     36.07975    0.1545857 
   59400   -943.72983    51.029777   -892.70005    1827.7016    9485.0057    2.1953133    34.176318   0.15607318 
   59500   -945.19151    46.203903    -898.9876    1654.8562   -4966.3431    2.1665487    33.103597   0.12983421 
   59600    -947.2429    44.907168   -902.33574    1608.4119   -9648.0845    2.1566779      33.6402   0.12772503 
   59700   -941.07075    47.856221   -893.21452    1714.0363    4470.8015    2.1770473    35.304435    0.1384643 
   59800    -945.1905    49.295942   -895.89455    1765.6019    6392.2316    2.1903122    35.060434   0.13022407 
   59900   -945.44367    43.503791   -901.93988     1558.148   -5333.0206    2.1633602    36.155732   0.12426234 
   60000    -940.8342    47.849988   -892.98421     1713.813   -4250.2619    2.1547152    32.902249   0.13692644 
   60100    -942.3825    48.243863   -894.13863    1727.9202     10720.81    2.1933564    34.110296   0.14006347 
   60200   -945.02127    45.324054   -899.69721    1623.3432    990.19639    2.1768292    32.790541   0.13975677 
   60300   -943.15968    50.291638   -892.86804    1801.2641   -8987.0486    2.1450626    39.203606   0.14232399 
   60400   -939.88804    47.729964   -892.15808    1709.5142    2929.8226     2.170519     33.29434   0.13918923 
   60500   -941.87559    43.448007   -898.42759      1556.15    8960.2251    2.1930692    34.642917   0.14305462 
   60600   -943.37759    48.141778   -895.23581    1724.2639   -3612.2135    2.1574699    44.124047   0.16127876 
   60700   -937.85171    47.830367   -890.02135    1713.1103   -3998.7035    2.1470495    41.572329   0.16324705 
   60800    -947.0985    47.703679   -899.39482    1708.5728    3251.5887    2.1888949    31.262068   0.14726429 
   60900   -943.23529    46.061712   -897.17358    1649.7635    4201.8587    2.1747263    38.069228   0.13006063 
   61000   -941.87997    50.324103   -891.55587    1802.4269   -8095.7899    2.1439499    36.127149   0.14572376 
   61100   -949.23431     47.80266   -901.43165    1712.1179    3152.8927    2.1883135    33.533918   0.15125608 
   61200   -944.61137    47.177988   -897.43338    1689.7444    11310.031     2.199264    34.796912   0.14967433 
   61300   -941.15653       47.447   -893.70953    1699.3795    -12814.49     2.130233    40.200396    0.1517909 
   61400    -942.9178    47.989524   -894.92828    1718.8107   -11057.618    2.1388426    35.209756   0.15636658 
   61500   -946.72209    47.171762   -899.55033    1689.5214    20022.494    2.2244121    36.432262   0.15972465 
   61600   -943.78801    50.798996   -892.98902    1819.4358    3116.8433    2.1738271    35.331974   0.15951931 
   61700   -938.60835     43.16109   -895.44726    1545.8737   -12122.293    2.1320144    35.918069   0.16948365 
   61800   -944.29855    43.484517   -900.81403    1557.4577    3151.8861    2.1808037    37.232587   0.14962665 
   61900   -939.86137    44.954237   -894.90714    1610.0978    13203.354    2.1992457     36.46412   0.16075819 
   62000    -939.1878    45.892977   -893.29482      1643.72   -5040.4026    2.1531843    32.999905   0.16592312 
   62100   -944.94206    44.397854   -900.54421    1590.1701    -8294.333    2.1556946    37.108238   0.15358129 
   62200   -943.23017    47.417503   -895.81266     1698.323    7411.1399    2.1890217    35.811914   0.15787737 
   62300   -941.85906    51.651316   -890.20774    1849.9628    5432.1361    2.1772858    35.481843   0.16232493 
   62400   -946.73179    46.959205   -899.77258    1681.9084   -8292.8532    2.1583604    34.273737   0.15088809 
   62500   -944.54299    47.101972   -897.44102    1687.0218   -4387.8496    2.1668159    34.650277   0.16019707 
   62600    -941.5944    51.477301    -890.1171    1843.7302    5870.3371    2.1802959    32.291323   0.15828879 
   62700   -944.43019    45.188236   -899.24195    1618.4787    1899.0742    2.1784949    35.869015   0.15317333 
   62800   -944.45663    45.866827    -898.5898    1642.7834   -7488.1109    2.1555581    35.779306   0.14468218 
   62900   -944.35124    52.442345   -891.90889    1878.2946   -32.023129    2.1685446    39.259897   0.12786031 
   63000   -947.44918    47.563501   -899.88568    1703.5521    6933.9621    2.1994133    32.668305   0.14193465 
   63100   -950.03367    50.350551   -899.68312    1803.3741   -7178.8033    2.1656545    34.895569   0.13250723 
   63200   -940.92212    47.226511   -893.69561    1691.4824   -7259.3546    2.1478039    37.452113   0.14114468 
   63300   -949.32206    50.262274   -899.05978    1800.2124    5475.8688    2.1977325    32.917681   0.13902345 
   63400   -950.57255    50.108984   -900.46357    1794.7221    6175.1575    2.1970999    35.475004   0.12295914 
   63500   -939.19533    46.083864   -893.11147    1650.5569   -15261.992    2.1258438    34.370081   0.14970466 
   63600   -943.31952    46.077868   -897.24165    1650.3421   -6239.2196    2.1581059     35.04401   0.14564184 
   63700   -946.44335    48.880564   -897.56278    1750.7245    22641.348    2.2345945    36.357295   0.14388605 
   63800   -939.56618    48.719234   -890.84694    1744.9463   -2540.9961    2.1572729    34.662846   0.14832296 
   63900   -940.79798    46.832763   -893.96522    1677.3797   -11115.781    2.1342064    35.672926   0.12831509 
   64000   -946.46521    47.729302    -898.7359    1709.4905    3688.9771    2.1858387    34.735019   0.13243684 
   64100   -943.32011    47.686469   -895.63364    1707.9564    8553.6397    2.1900716    34.177213   0.14489043 
   64200   -941.22155    50.216795   -891.00476    1798.5835   -7749.0935    2.1442192    32.866106   0.12604322 
   64300   -947.25946     46.88216    -900.3773     1679.149   -2337.9533    2.1679156    34.536717   0.12833316 
   64400   -945.42379    49.326412   -896.09737    1766.6932    6851.2547    2.1864776    33.449543   0.12334085 
   64500   -941.15731    49.756126   -891.40118     1782.084    1235.2265    2.1638592    37.118728   0.14306609 
   64600   -946.03253    45.180714   -900.85182    1618.2093   -5784.3501    2.1591867    36.093628   0.12635371 
   64700   -943.15361    44.262084   -898.89153    1585.3073    394.65551    2.1706199    30.997026   0.14245924 
   64800   -941.48283    49.340194   -892.14264    1767.1868    8511.7344    2.1831685    34.122286   0.12737841 
   64900   -944.65919    45.544191     -899.115    1631.2278   -412.49959    2.1676331     34.29236   0.13812067 
   65000   -944.60781    43.398299   -901.20951    1554.3697    -7284.478    2.1554723    35.937008   0.13180868 
   65100   -938.53292    45.086953   -893.44597    1614.8512    6995.0487    2.1813648    37.239121   0.14068428 
   65200   -942.83976    45.954007   -896.88576    1645.9059    8072.7378    2.1874631    34.351269   0.13734466 
   65300   -946.92135     43.45107   -903.47028    1556.2597   -6250.4226    2.1597905    35.861297   0.12968555 
   65400   -941.17425    46.901984   -894.27227     1679.859   -7393.6206    2.1491401    34.351982   0.14558596 
   65500   -942.53229    48.390476   -894.14182    1733.1714    14475.837    2.2054232    34.501782   0.15918076 
   65600   -948.14671    47.772427   -900.37428    1711.0351    162.04379    2.1797839    34.383306   0.13723646 
   65700   -944.50948    51.576168   -892.93331    1847.2713   -18175.411    2.1236453    38.174128   0.14120797 
   65800   -944.45701    52.380359   -892.07665    1876.0745    893.97732    2.1725952    32.289986   0.12878262 
   65900   -948.81002    51.021407   -897.78861    1827.4018    8629.4371    2.1993891    33.310715   0.14267484 
   66000   -943.78957    46.782485   -897.00709     1675.579   -1563.5854    2.1615755    36.400157   0.12979939 
   66100   -939.48716    50.772358   -888.71481    1818.4817   -3799.1911    2.1451223    35.177944   0.13118177 
   66200   -944.42319    45.766127   -898.65706    1639.1767    8336.6264    2.1905761    34.738401   0.13952795 
   66300   -940.31295    42.777465   -897.53549    1532.1337    4034.8529    2.1704876    35.345753   0.13255408 
   66400    -940.1053    48.045393   -892.05991    1720.8117   -5010.9397    2.1475257    34.642635   0.15733731 
   66500   -948.20452    47.334671   -900.86985    1695.3563    733.97465    2.1817529    35.198723   0.13555947 
   66600   -942.96308    43.510425   -899.45265    1558.3856    4450.9728    2.1832262    35.108214   0.14275879 
   66700   -942.97213    48.684537    -894.2876    1743.7036   -4059.7151    2.1590312    33.905007    0.1413366 
   66800   -942.66825    46.682763   -895.98549    1672.0073   -2829.6924    2.1647813     37.20978   0.13134555 
   66900   -946.28529    44.293742   -901.99155    1586.4412    9475.4254    2.1972677    33.121068   0.13920017 
   67000   -941.21534    47.216855   -893.99848    1691.1365    923.02616    2.1662838    35.838164   0.13234899 
   67100    -945.0397    48.351405   -896.68829     1731.772   -9400.2529    2.1482934    36.931301     0.125459 
   67200   -943.65066    40.953613   -902.69705    1466.8099    7279.0057    2.1892598    39.589623   0.14829022 
   67300   -943.61974    49.823695   -893.79604    1784.5041    6366.0002    2.1861565    35.190842   0.14034044 
   67400    -942.4451    47.608044   -894.83705    1705.1475   -5581.6957    2.1523579    37.966656   0.14202954 
   67500   -945.67046     45.35067    -900.3198    1624.2965   -7506.8296    2.1524845    35.881469   0.13310399 
   67600    -945.6064    48.696903    -896.9095    1744.1465    10699.742    2.1992977    35.928266   0.12036499 
   67700   -940.35672    49.829311   -890.52741    1784.7052    3335.6592    2.1702489    33.478404   0.13868135 
   67800   -943.54789    44.902161   -898.64573    1608.2326   -12815.632    2.1343225    38.219411   0.10972784 
   67900   -944.54911    47.706754   -896.84235    1708.6829    1091.2414    2.1745901    33.061159    0.1396796 
   68000   -940.92694    52.324725   -888.60222    1874.0819    10950.971    2.1868261    34.625297    0.1420669 
   68100   -940.10705    44.676273   -895.43078    1600.1421    -1969.198     2.157323    34.760276   0.12199319 
   68200   -946.62054    47.454274   -899.16626      1699.64    -6031.689     2.159023    35.954434   0.12679711 
   68300   -941.81045    49.449044    -892.3614    1771.0854     4717.568    2.1783488    31.771299   0.14228957 
   68400   -943.64963    48.292144   -895.35749    1729.6495    807.90322    2.1743713    35.668966   0.15222534 
   68500   -947.22748    46.186857   -901.04062    1654.2457   -5278.8686    2.1661622    34.468973    0.1249264 
   68600   -946.23578    51.688384    -894.5474    1851.2905    -1921.795    2.1706303    34.306573   0.13284273 
   68700   -944.63152     49.95126   -894.68026     1789.073    2623.6498    2.1795427    38.952804   0.13685556 
   68800   -946.12825    43.057607   -903.07065    1542.1673    529.73916    2.1814239    31.577036    0.1379607 
   68900    -943.5728    47.915371   -895.65743    1716.1548   -6196.0164    2.1583224    36.834223    0.1472307 
   69000   -943.51876    49.149044   -894.36972    1760.3405    121.00912    2.1733835    36.780448   0.14356447 
   69100    -945.1798    42.767002    -902.4128    1531.7589    6303.5163    2.1928511    34.982122    0.1329226 
   69200   -945.13417    50.367366   -894.76681    1803.9764   -8306.9862    2.1509931    36.144885   0.14246546 
   69300   -941.46552    46.722449   -894.74307    1673.4287   -1036.2384    2.1625926    33.047131   0.14148036 
   69400   -946.67948    47.414744   -899.26474    1698.2242    9443.7465    2.1991317    34.732858   0.15354948 
   69500   -948.79734    47.687913   -901.10943    1708.0081   -2916.6631    2.1744006    36.753059   0.14205381 
   69600   -942.37274    50.481329   -891.89142    1808.0581   -17493.407    2.1168428    38.203735   0.15197752 
   69700   -945.98747    48.788701   -897.19877    1747.4343    5968.3655    2.1872969    32.557809   0.14406883 
   69800   -947.87213    49.839799   -898.03233    1785.0808    11279.359    2.2048498    35.927594   0.13819767 
   69900    -940.8201    50.013156   -890.80694    1791.2899    -10213.05    2.1375512    31.689472   0.14762733 
   70000   -942.23159    47.161671   -895.06991      1689.16   -7258.6588    2.1482679    35.856666   0.13869278 
   70100    -945.1731    47.629559   -897.54354    1705.9181    7169.4223    2.1892931    30.908703   0.15302008 
   70200   -941.93347    49.779342   -892.15413    1782.9155    2270.8296    2.1665788    37.305034   0.13634571 
   70300   -942.22397    46.396545   -895.82742     1661.756   -7797.9636    2.1453049    32.318377   0.14288953 
[...]
   86800   -944.11502    49.808247   -894.30677    1783.9508    3916.2491    2.1768121    82.267494   0.12953771 
   86900   -944.23986    47.414078   -896.82579    1698.2003    7113.6346    2.1867586    77.636886   0.11273873 
   87000   -944.75439     44.24194   -900.51245    1584.5859   -3908.2598    2.1614442    81.354945   0.12465797 
   87100   -950.22043    42.489609   -907.73082    1521.8237   -4437.7184    2.1739687    85.100767    0.1283203 
   87200   -951.21816    48.295593   -902.92257     1729.773    5415.0975    2.1978234    75.733817   0.12731618 
   87300   -945.00806    46.600294   -898.40776    1669.0535    3504.4144    2.1820329    80.373374   0.14449524 
   87400   -942.93154    46.197876   -896.73367    1654.6404   -8528.0851    2.1471539    90.124781   0.13121038 
   87500   -942.11023    49.621868   -892.48837    1777.2753   -1000.1502    2.1616634     81.09301   0.13071022 
   87600   -947.52881    45.124708    -902.4041    1616.2034    9162.9905    2.1972553    81.555182   0.11526644 
   87700   -943.76225    44.428695   -899.33355    1591.2748   -3250.1901    2.1604188    78.343515   0.12886523 
   87800   -942.75975    48.190218   -894.56953    1725.9989   -5219.7122    2.1538686    81.939039   0.13299935 
   87900   -943.92258    50.412748   -893.50983    1805.6018    5979.6571    2.1809973    77.447518   0.12315451 
   88000   -948.97782    45.600762   -903.37706    1633.2539    2252.6202    2.1868065    79.745409   0.12689573 
   88100   -944.48062    47.220925   -897.25969    1691.2823   -7304.1056    2.1536906    80.783086   0.13116559 
   88200   -946.53351    52.091687   -894.44182    1865.7353   -1250.0056    2.1681133    82.504464   0.13492308 
   88300   -947.31307    45.855821   -901.45725    1642.3892    5134.3945    2.1863245    82.836637   0.12978364 
   88400   -945.07299    47.906933   -897.16606    1715.8526     211.8487    2.1738852    84.123941    0.1318021 
   88500   -943.49901    50.006182   -893.49283    1791.0401   -2343.7706    2.1607676    81.971952   0.15652496 
   88600   -944.93541    45.998809    -898.9366    1647.5105   -1306.9248    2.1704743    83.787991   0.12803337 
   88700   -944.69758    45.544943   -899.15264    1631.2547    2228.1805    2.1826524    77.768483   0.14418601 
   88800   -936.08069    45.519227   -890.56147    1630.3336    -1529.022    2.1546987    82.543269   0.15178188 
   88900   -945.03805     47.15149   -897.88656    1688.7954   -1457.9817    2.1680665    78.574243   0.12126934 
   89000   -947.16418     49.25887   -897.90531    1764.2741    1485.4344    2.1825631    82.702468   0.15585407 
   89100   -939.13119    50.305851   -888.82534    1801.7732   -1105.5282    2.1588924    79.888707   0.14320578 
   89200   -941.91705    44.466308   -897.45074    1592.6219   -965.02584    2.1678494    80.178112   0.14188296 
   89300   -943.08817    44.830359   -898.25781    1605.6609    -1646.529    2.1701938    77.304379    0.1565172 
   89400   -944.48393    53.870622   -890.61331    1929.4503    3354.1973    2.1728879    79.162871   0.13472807 
   89500   -946.54829    50.104157   -896.44414    1794.5492   -2653.2617      2.16575    76.501012   0.13509832 
   89600   -942.19996     42.27683   -899.92313    1514.2027   -6309.7022    2.1537758    82.040931   0.13524693 
   89700   -942.98223    49.324843   -893.65739     1766.637    5894.9826    2.1803577    83.684357   0.12641158 
   89800   -946.68405    49.779331   -896.90472    1782.9151    5185.3593    2.1862995    79.216442   0.12411779 
   89900   -944.88139    41.696259   -903.18513    1493.4088   -5923.8571    2.1581485    78.373082   0.14070626 
   90000   -944.60437    47.925849   -896.67852    1716.5301   -3620.3158    2.1640716    80.199085   0.12745098 
   90100   -942.29301    48.763373   -893.52964    1746.5272    10561.801    2.1920722    77.886269   0.15790001 
   90200   -945.36568    42.793891   -902.57179     1532.722    181.92063    2.1731398    80.287221    0.1420441 
   90300   -943.34881    45.103499   -898.24531    1615.4438   -9094.7595     2.146848     78.88333    0.1403701 
   90400   -942.56834    48.621494   -893.94685    1741.4456    4859.7979    2.1838903    83.884747   0.14440136 
   90500   -946.32673    48.035185   -898.29155    1720.4461    4970.2277    2.1900516     79.48687    0.1340872 
   90600   -947.51739     43.66184   -903.85555    1563.8088   -9719.0861    2.1593612    89.453029   0.13669832 
   90700    -940.8093    46.464783   -894.34451       1664.2   -2228.5403    2.1614932    81.595947   0.15525905 
   90800   -939.96063    45.619195   -894.34143    1633.9141    10988.132    2.1901567    76.233252   0.14090556 
   90900   -946.50448    47.339886    -899.1646    1695.5431   -4465.9988    2.1668273    78.910226   0.13497446 
   91000   -940.66625    46.492678   -894.17357    1665.1991   -1688.6852    2.1590709    80.164548   0.14114615 
   91100   -942.21169    51.753217   -890.45847    1853.6125    750.42123     2.161435    82.060946   0.12845417 
   91200   -943.18479    45.693286   -897.49151    1636.5678    1793.2966    2.1761764    82.158181     0.163321 
   91300   -943.04067     45.29813   -897.74254    1622.4147     1808.442    2.1715397    82.628445   0.14663198 
   91400   -938.80817     50.91672   -887.89145    1823.6523    227.48636    2.1513413    85.251561   0.13250235 
   91500   -946.58149    49.893667   -896.68783    1787.0102    3340.4247    2.1781886     73.33753   0.12047725 
   91600   -944.31926    46.417173   -897.90209    1662.4948   -1514.1564    2.1674954    82.765086   0.12880666 
   91700   -941.47227    49.143665    -892.3286    1760.1479   -946.21048    2.1619459     82.73223   0.14603413 
   91800    -943.6309     51.18532   -892.44558    1833.2725    2495.2257    2.1735171    74.999045   0.14127663 
   91900    -946.9751    47.135021   -899.84008    1688.2055    2878.3736    2.1845448    79.640173    0.1528942 
   92000   -942.93033    46.563963   -896.36637    1667.7523   -3171.4691    2.1649943    84.598804   0.14927898 
   92100   -939.70806     46.44745   -893.26061    1663.5792   -1085.6006    2.1628692    74.478583    0.1670328 
   92200   -950.04949    46.571839   -903.47765    1668.0344    5230.7261    2.1958309    78.013388   0.14758728 
   92300   -943.97964    45.763249   -898.21639    1639.0736   -3659.0309    2.1608385    79.837929   0.13795162 
   92400   -943.55895    48.266785   -895.29217    1728.7412   -5978.3491    2.1568653    84.396187   0.15739429 
   92500   -945.01405    45.517026   -899.49703    1630.2548    7065.8129    2.1883193    80.044462   0.14470699 
   92600   -948.77492    45.613247   -903.16167    1633.7011    4902.8828    2.1901867    80.586096   0.14970439 
   92700   -940.46327    45.162829   -895.30044    1617.5688   -4894.2704    2.1475371    77.922408   0.15417472 
   92800   -938.38404    41.589432   -896.79461    1489.5826    1089.2923    2.1598058    80.985623   0.15240331 
   92900   -944.26956    41.688828   -902.58073    1493.1426    12254.804    2.2028732    80.170358   0.13820161 
   93000   -944.71535    51.073568   -893.64178      1829.27   -1578.7132     2.163556    80.925648   0.14599853 
   93100   -940.10136    45.304782   -894.79658     1622.653   -4811.2069    2.1487945    87.479856    0.1425662 
   93200    -945.9493    47.931254   -898.01804    1716.7237    836.82815    2.1768009    79.052022   0.13704922 
   93300   -945.72295    44.690552    -901.0324    1600.6535    8773.0471     2.197696    77.174795   0.13967838 
   93400   -937.46522    47.535333   -889.92989    1702.5432   -8474.9912    2.1338183    81.665522   0.14237667 
   93500   -941.57714     46.14663   -895.43051    1652.8049    636.07104    2.1658251    78.731682    0.1399202 
   93600   -947.11138    50.008629   -897.10275    1791.1277    11045.025    2.2018277    83.128691   0.14755331 
   93700   -944.71684    47.128273   -897.58857    1687.9638   -4029.4739    2.1598338    84.866161   0.13146275 
   93800   -936.24071    47.923013    -888.3177    1716.4285   -14403.234    2.1158686    81.994406   0.15319102 
   93900   -945.54254    48.476265   -897.06628     1736.244    13710.771    2.2063582    81.006629   0.13757399 
   94000   -942.50331    45.261036   -897.24228    1621.0862    9030.1223    2.1923293    84.545582   0.12290381 
   94100   -938.14924    44.261895   -893.88735    1585.3006   -8451.2386    2.1452935    76.610723   0.15758281 
   94200    -938.2532    50.462401    -887.7908    1807.3802   -1358.3721    2.1569311    75.742847   0.12308612 
   94300   -948.02855     49.25033   -898.77822    1763.9682    5985.9623    2.1956383    84.861974   0.12300904 
   94400   -943.65067    45.721843   -897.92882    1637.5906    -4739.683    2.1597181    81.133762   0.14228669 
   94500   -939.44521    43.740101   -895.70511    1566.6118   -931.69701    2.1598818    79.371835   0.13091308 
   94600   -941.16004    50.121265   -891.03878     1795.162    6895.1587    2.1793049    86.163666   0.13808115 
   94700   -937.85495    52.922829   -884.93212    1895.5038   -2112.9999    2.1458245    86.085453   0.13508313 
   94800   -943.31499    47.719888   -895.59511    1709.1533   -2189.1392    2.1637539    80.469483   0.11446951 
   94900    -945.1012    48.739777   -896.36142     1745.682    2834.5927    2.1806906    76.446024   0.12893904 
   95000   -943.86606    46.191002   -897.67505    1654.3942   -581.29321    2.1722679    84.400566   0.12224099 
   95100   -938.42405    50.187299   -888.23675     1797.527   -4241.4905    2.1476203    80.047722   0.12107702 
   95200   -944.92971    53.827039   -891.10267    1927.8893    2895.5725    2.1774639    80.396989   0.12453518 
   95300   -941.98005    45.946944    -896.0331    1645.6529    927.64154    2.1689902    79.808495   0.13010036 
   95400   -943.71023    45.016168   -898.69406    1612.3159   -7922.5723    2.1563902    79.005835   0.14860032 
   95500   -938.69118     46.07358    -892.6176    1650.1886    7995.3607      2.17698    80.635579   0.14504585 
   95600   -941.20973    51.346169   -889.86356    1839.0336    5486.9526    2.1765548    81.569159   0.13593561 
   95700   -943.56319    46.116037   -897.44715    1651.7092   -11858.943    2.1449694    75.677798   0.15165393 
   95800   -945.13508    48.000307   -897.13477    1719.1969   -2379.3626    2.1673457    80.471443   0.13534271 
   95900   -939.81737    49.073771    -890.7436    1757.6445    15095.884    2.2016996    80.710319   0.14438353 
   96000   -940.18456    48.782324   -891.40223    1747.2059   -5120.6987    2.1499937    82.987161   0.12879157 
   96100   -946.59574    47.431689   -899.16405    1698.8311   -11297.922    2.1466387    48.815683   0.12156058 
   96200   -944.05061    48.660204    -895.3904     1742.832    7863.3999     2.186539    40.925908   0.13717825 
   96300   -942.96467      53.4739   -889.49077    1915.2412    3973.2129    2.1740538    46.011886   0.15419849 
   96400   -942.70236    45.653952   -897.04841     1635.159   -7739.2485    2.1517056    44.457369    0.1475247 
   96500   -944.86688    46.141466   -898.72542      1652.62   -3605.3345    2.1679802    43.617314   0.14709837 
   96600   -942.33484    49.016171   -893.31867    1755.5815    9177.3252    2.1866151    44.984388   0.15556795 
   96700   -943.70093    47.088665   -896.61227    1686.5452   -1711.7722    2.1654852    46.228196   0.12971942 
   96800   -948.41764    45.934788   -902.48285    1645.2175   -3614.3675    2.1687563    45.135886   0.13473149 
   96900   -944.73488    49.350804   -895.38408    1767.5668    3185.2757    2.1784785    51.307532   0.11433268 
   97000   -948.45773    52.953103   -895.50462    1896.5881   -2583.2289    2.1733569    46.936349   0.12108617 
   97100   -948.60407    43.984967    -904.6191     1575.382   -3638.9005    2.1733059    42.932341   0.13538009 
   97200   -944.18961    47.012528   -897.17708    1683.8183   -4198.4348    2.1623372    42.045579   0.14014268 
   97300   -940.60485    46.428225   -894.17662    1662.8906    9288.9555    2.1854875    39.878913   0.14623633 
   97400   -945.46016    44.498101   -900.96206    1593.7606    1237.3067    2.1786047    45.464856   0.14674826 
   97500   -945.08038    46.715329   -898.36505    1673.1737   -9577.4898    2.1480752    45.997959   0.13846158 
   97600   -943.37843    50.220074   -893.15835    1798.7009    4409.2532    2.1754463    46.737269   0.14141259 
   97700   -944.88265    48.744271   -896.13837     1745.843    9281.2854    2.1930234    49.420086   0.11590696 
   97800   -945.00281     43.51587   -901.48694    1558.5807   -9435.6991    2.1440142    43.950784   0.10972327 
   97900   -941.41097    48.555698   -892.85528     1739.089   -6824.9106     2.143204    46.737401   0.13151278 
   98000   -942.12537    49.470336   -892.65503     1771.848    19568.454    2.2101263    43.446858   0.12379869 
   98100   -947.05155    47.418075   -899.63347    1698.3435   -1838.4594    2.1711914     45.58938   0.13706967 
   98200   -946.11346    50.161737   -895.95172    1796.6115   -14008.185    2.1389569    43.890025    0.1314592 
   98300   -943.30235    53.335473   -889.96688    1910.2832    977.29393    2.1670352    42.184049   0.14002917 
   98400   -945.72385    45.870201   -899.85365    1642.9042    9784.6348    2.1982776    40.507239   0.14639207 
   98500   -943.81349    46.504032   -897.30946    1665.6058   -6222.9144    2.1496296    47.226429   0.14806277 
   98600   -937.91654    45.059152   -892.85739    1613.8554   -2179.0668    2.1508239    48.972304   0.13239013 
   98700   -951.49624    50.525215   -900.97102      1809.63     4035.126    2.1934802    48.238962   0.12166706 
   98800   -945.24176     47.85254   -897.38922    1713.9044    1274.0341    2.1746911     44.78045   0.12219411 
   98900   -940.28141    47.115584   -893.16583    1687.5094   -7000.8169    2.1434793    50.339377   0.14940379 
   99000   -945.77369    46.896479   -898.87721    1679.6618   -2372.9486    2.1714171    51.539665   0.17516219 
   99100   -949.03956    50.429578   -898.60999    1806.2046    5309.2236    2.1936367    49.851019   0.17078217 
   99200   -940.01712    48.984537   -891.03258    1754.4485   -3837.2182    2.1530532     64.57166   0.17298486 
   99300   -942.46779    45.193722   -897.27407    1618.6752    -7667.795    2.1512315    71.170213   0.15004318 
   99400    -945.9839     47.85998   -898.12392    1714.1709    5620.4509    2.1865431    70.921034    0.1614651 
   99500   -941.15788    52.025751   -889.13213    1863.3737    5432.4391    2.1778642     77.90586   0.13916679 
   99600   -943.90586    47.490231   -896.41562    1700.9278   -13017.032    2.1419718    67.414029   0.16382438 
   99700   -946.22123      49.5594   -896.66183     1775.038   -9183.7132    2.1480126    74.263605   0.13297758 
   99800   -941.89312    54.475316    -887.4178    1951.1083    18487.971    2.2069465     70.94987   0.14600205 
   99900   -944.35015    49.866385   -894.48376    1786.0331    833.04497    2.1759204    72.309995   0.14211727 
  100000   -945.88636    45.863324   -900.02303    1642.6579   -16677.759    2.1296308    74.268357   0.12395253 
  100100    -943.0334     48.43333   -894.60007    1734.7062    2913.2112    2.1764039    74.988823   0.14821268 
  100200   -941.16774    46.465834    -894.7019    1664.2377    7513.8623    2.1834322     77.94306   0.13556913 
  100300    -947.1749    43.366059   -903.80884     1553.215   -1977.4895    2.1769558    82.641342   0.13777779 
  100400   -944.78617    47.515631   -897.27054    1701.8376    -5332.624    2.1611633    74.783605   0.14582918 
  100500   -943.66828    49.579247   -894.08903    1775.7488    3736.2334    2.1784427    72.384831   0.13870958 
  100600   -950.27356    47.966732   -902.30683    1717.9944    449.34953    2.1860949    67.320236   0.13444116 
  100700   -945.10741    46.718163   -898.38925    1673.2752   -5004.4972    2.1607726    74.894998   0.12613859 
  100800   -940.99892     46.88753   -894.11139    1679.3413    31.053434    2.1676852     77.23848   0.15345057 
  100900   -945.27641    46.891082   -898.38533    1679.4685    4594.5059    2.1839451    75.859169   0.14217626 
  101000   -949.54447    46.366462   -903.17801    1660.6785   -1089.0423    2.1803412    74.718651   0.14007106 
  101100   -938.27926    45.725136   -892.55413    1637.7086   -2888.8155    2.1520612    78.246285   0.15912103 
  101200    -941.7467    46.749228   -894.99747    1674.3878    8448.7112    2.1881199    73.682075   0.14213524 
  101300   -945.26914    46.173416   -899.09573    1653.7643    1864.1858    2.1787755    71.335948   0.15027244 
  101400   -941.58802    50.469246   -891.11877    1807.6254   -7670.5624    2.1406754    73.474056   0.15667967 
  101500    -942.3355    50.368216   -891.96729    1804.0068     1916.359    2.1716257    74.247335   0.13336976 
  101600    -944.5078    47.357873   -897.14993    1696.1873    5762.2321    2.1843753    73.415946   0.12767836 
  101700   -945.44803    47.567251   -897.88078    1703.6864    -4642.639    2.1579053    71.312693   0.13875049 
  101800   -939.21228    51.141344   -888.07094    1831.6975   -6016.9992    2.1394593    71.148834   0.13622388 
  101900   -946.20925    49.643445    -896.5658    1778.0482     12046.96    2.2005861    77.812948    0.1316771 
  102000   -944.55064    46.787757   -897.76288    1675.7678   -1956.6756    2.1647928    76.390223   0.13438191 
  102100   -942.39855    47.043207   -895.35535    1684.9171    -12942.13    2.1336272    72.001537    0.1276337 
  102200   -942.19239    53.104149   -889.08824     1901.998    9327.2762    2.1827102    73.897749   0.13501638 
  102300   -937.65074    51.648437    -886.0023    1849.8597     6510.321    2.1688379    69.585429   0.14489177 
  102400   -941.32184    45.580682   -895.74116    1632.5347   -8599.6872    2.1421614    75.654887    0.1399187 
  102500   -945.35479    48.724991    -896.6298    1745.1525    274.22582    2.1692086    75.531245    0.1381834 
  102600   -943.40447    46.670007   -896.73447    1671.5504    6081.4866    2.1837843    76.811173   0.15047945 
  102700   -938.90844    45.421166   -893.48728    1626.8214     1288.706    2.1633628     81.46959   0.15650447 
  102800    -934.9392    46.381848   -888.55736    1661.2296   -4761.6279    2.1388154    61.887525    0.1605373 
  102900   -945.21352    50.291272   -894.92225     1801.251   -1164.4247    2.1685913    48.651386   0.16953153 
  103000   -940.77999    45.130773   -895.64921    1616.4206    3618.7071    2.1731503    49.447026   0.17463683 
  103100   -939.87985    47.624674   -892.25518    1705.7431   -1033.0679     2.154528    52.041384   0.13662573 
  103200   -941.56981    56.862159   -884.70765    2036.5963   -10401.824    2.1369716    47.715244   0.14795095 
Loop time of 70.6331 on 1 procs for 100000 steps with 217 atoms

Performance: 366.967 ns/day, 0.065 hours/ns, 1415.766 timesteps/s
100.0% CPU use with 1 MPI tasks x no OpenMP threads

MPI task timing breakdown:
Section |  min time  |  avg time  |  max time  |%varavg| %total
---------------------------------------------------------------
Pair    | 67.832     | 67.832     | 67.832     |   0.0 | 96.03
Neigh   | 1.2168     | 1.2168     | 1.2168     |   0.0 |  1.72
Comm    | 0.47071    | 0.47071    | 0.47071    |   0.0 |  0.67
Output  | 0.034745   | 0.034745   | 0.034745   |   0.0 |  0.05
Modify  | 0.92525    | 0.92525    | 0.92525    |   0.0 |  1.31
Other   |            | 0.154      |            |       |  0.22

Nlocal:    217 ave 217 max 217 min
Histogram: 1 0 0 0 0 0 0 0 0 0
Nghost:    953 ave 953 max 953 min
Histogram: 1 0 0 0 0 0 0 0 0 0
Neighs:    4124 ave 4124 max 4124 min
Histogram: 1 0 0 0 0 0 0 0 0 0
FullNghs:  8248 ave 8248 max 8248 min
Histogram: 1 0 0 0 0 0 0 0 0 0

Total # of neighbors = 8248
Ave neighs/atom = 38.0092
Neighbor list builds = 2063
Dangerous builds = 18
Total wall time: 0:01:12
