LAMMPS (3 Mar 2020)

# ---------- 1. Initialize simulation ----------
units metal
atom_style atomic
dimension 3
boundary p p p
read_data /home/modeler/RemLabs/Project/eval_timestep_npt/n3_T1800_timestep5.000000e-03_steps3001/20201205-224029/lammps.data
  orthogonal box = (0 0 0) to (17.469 17.469 17.469)
  1 by 1 by 1 MPI processor grid
  reading atoms ...
  217 atoms
  read_data CPU = 0.00100775 secs

pair_style meam/c
pair_coeff * * library.meam Li Si LiSi.meam Li Si
Reading potential file library.meam with DATE: 2012-06-29
Reading potential file LiSi.meam with DATE: 2020-11-07

group Li type 1
1 atoms in group Li

velocity all create 1800 3320 dist gaussian

# ---------- 2. Describe computed properties----------
compute msdli Li msd
thermo_style custom step pe ke etotal temp press density c_msdli[4]
thermo 100

# ---------- 3. Specify ensemble  ----------
fix 1 all npt temp 1800 1800 0.24999999999999997 tchain 2 iso 1.0 1.0 1.0 pchain 2
# fix 1 all nvt temp 1800 1800 0.24999999999999997
# fix 1 all nve

# ---------- 4. Run -------------
timestep 0.004999999999999999
run 3001
Neighbor list info ...
  update every 1 steps, delay 10 steps, check yes
  max neighbors/atom: 2000, page size: 100000
  master list distance cutoff = 6
  ghost atom cutoff = 6
  binsize = 3, bins = 6 6 6
  2 neighbor lists, perpetual/occasional/extra = 2 0 0
  (1) pair meam/c, perpetual
      attributes: full, newton on
      pair build: full/bin/atomonly
      stencil: full/bin/3d
      bin: standard
  (2) pair meam/c, perpetual, half/full from (1)
      attributes: half, newton on
      pair build: halffull/newton
      stencil: none
      bin: none
Per MPI rank memory allocation (min/avg/max) = 9.27 | 9.27 | 9.27 Mbytes
Step PotEng KinEng TotEng Temp Press Density c_msdli[4] 
       0   -951.04357    50.256344   -900.78722         1800   -114161.75    1.8918427            0 
     100   -948.39047    34.890638   -913.49983    1249.6561   -15257.758     2.137167   0.32642621 
     200   -951.56258    43.638806   -907.92377    1562.9838    8516.6392     2.205397  0.071380329 
     300   -947.52966     45.47084   -902.05882    1628.6006    24087.294    2.2339426   0.27330125 
     400   -950.19334    52.008363   -898.18498     1862.751    11326.317     2.201914   0.31398784 
     500   -946.14649     51.93031   -894.21618    1859.9554   -5603.6257     2.150976  0.066823818 
     600   -939.55639    50.185649   -889.37074     1797.468   -16369.246    2.1142571   0.34383082 
     700   -938.12944    51.710361   -886.41908    1852.0776   -14542.128    2.1130916   0.27266575 
     800   -933.65932    50.244416   -883.41491    1799.5728   -1000.0336    2.1434982   0.42663878 
     900   -926.93194    56.290598   -870.64134    2016.1251    10058.915    2.1537216   0.26463153 
    1000   -931.62217    51.108427   -880.51374    1830.5185     15714.11    2.1787591   0.21468531 
    1100   -938.70626     52.89259   -885.81367    1894.4208    4430.3683    2.1671744   0.15026686 
    1200   -937.28964    48.677272   -888.61237    1743.4434   -5843.4381    2.1381536   0.19975393 
    1300   -935.10586    45.741337   -889.36453    1638.2888   -9025.8171    2.1226334   0.36639724 
    1400   -932.58109    54.908167   -877.67292    1966.6114   -14721.775     2.104403   0.36302014 
    1500   -936.74328    51.805006   -884.93828    1855.4675   -3087.7386    2.1439316  0.092191231 
    1600   -937.39276    48.796674   -888.59608    1747.7199    11046.321    2.1839252   0.12659441 
    1700   -939.10788    51.534446   -887.57344     1845.777    12181.463    2.1907837   0.32436489 
    1800   -935.43693    57.608304   -877.82863    2063.3205    133.16694    2.1458928   0.18560029 
    1900    -937.3716    50.490051   -886.88155    1808.3705   -5591.2844     2.134964   0.42757658 
    2000   -933.63664    46.292474   -887.34417    1658.0285   -10155.327    2.1168632    0.1506229 
    2100   -933.62667    53.312937   -880.31374    1909.4761   -9854.0818    2.1161269   0.93146516 
    2200    -940.9218    54.528877   -886.39293    1953.0266    -4468.196    2.1491314   0.11817909 
    2300   -941.52149    52.180246   -889.34124    1868.9072    7998.0173    2.1837838   0.43794621 
    2400   -939.23573    53.294707   -885.94103    1908.8231    12461.148    2.1840848   0.46263334 
    2500   -934.82527    55.385886   -879.43938    1983.7216    4056.2472    2.1550988   0.33465196 
    2600   -938.49629    48.271536   -890.22476    1728.9114   -5151.4641    2.1451204   0.36620416 
    2700   -938.12395    48.293561   -889.83039    1729.7002   -11089.509    2.1310715   0.54872214 
    2800   -933.95042    47.559774   -886.39065    1703.4186   -4922.1169    2.1345447   0.72316857 
    2900   -937.29369    54.337919   -882.95577    1946.1872   -361.44427    2.1476006    0.7591084 
    3000   -942.87996    50.424997   -892.45497    1806.0405    6691.6907    2.1807572   0.14789227 
    3001   -945.30401    52.473188   -892.83082    1879.3993    5187.6386    2.1820991   0.15119523 
Loop time of 2.14801 on 1 procs for 3001 steps with 217 atoms

Performance: 603.551 ns/day, 0.040 hours/ns, 1397.110 timesteps/s
100.0% CPU use with 1 MPI tasks x no OpenMP threads

MPI task timing breakdown:
Section |  min time  |  avg time  |  max time  |%varavg| %total
---------------------------------------------------------------
Pair    | 2.0032     | 2.0032     | 2.0032     |   0.0 | 93.26
Neigh   | 0.095948   | 0.095948   | 0.095948   |   0.0 |  4.47
Comm    | 0.015497   | 0.015497   | 0.015497   |   0.0 |  0.72
Output  | 0.00088983 | 0.00088983 | 0.00088983 |   0.0 |  0.04
Modify  | 0.027956   | 0.027956   | 0.027956   |   0.0 |  1.30
Other   |            | 0.004524   |            |       |  0.21

Nlocal:    217 ave 217 max 217 min
Histogram: 1 0 0 0 0 0 0 0 0 0
Nghost:    957 ave 957 max 957 min
Histogram: 1 0 0 0 0 0 0 0 0 0
Neighs:    4151 ave 4151 max 4151 min
Histogram: 1 0 0 0 0 0 0 0 0 0
FullNghs:  8302 ave 8302 max 8302 min
Histogram: 1 0 0 0 0 0 0 0 0 0

Total # of neighbors = 8302
Ave neighs/atom = 38.2581
Neighbor list builds = 164
Dangerous builds = 6
Total wall time: 0:00:02
