LAMMPS (3 Mar 2020)
Reading data file ...
  orthogonal box = (0 0 0) to (17.469 17.469 17.469)
  1 by 1 by 1 MPI processor grid
  reading atoms ...
  217 atoms
  read_data CPU = 0.00108349 secs
Reading potential file library.meam with DATE: 2012-06-29
Reading potential file LiSi.meam with DATE: 2020-11-07
1 atoms in group Li
216 atoms in group Si
Neighbor list info ...
  update every 1 steps, delay 10 steps, check yes
  max neighbors/atom: 2000, page size: 100000
  master list distance cutoff = 6
  ghost atom cutoff = 6
  binsize = 3, bins = 6 6 6
  2 neighbor lists, perpetual/occasional/extra = 2 0 0
  (1) pair meam/c, perpetual
      attributes: full, newton on
      pair build: full/bin/atomonly
      stencil: full/bin/3d
      bin: standard
  (2) pair meam/c, perpetual, half/full from (1)
      attributes: half, newton on
      pair build: halffull/newton
      stencil: none
      bin: none
Setting up Verlet run ...
  Unit style    : metal
  Current step  : 0
  Time step     : 0.003
Per MPI rank memory allocation (min/avg/max) = 8.895 | 8.895 | 8.895 Mbytes
Step Temp E_pair E_mol TotEng Press 
       0         1600   -951.06911            0    -906.3968   -115301.13 
    3200    1462.8245   -909.16934            0     -868.327   -74519.786 
Loop time of 1.88092 on 1 procs for 3200 steps with 217 atoms

Performance: 440.976 ns/day, 0.054 hours/ns, 1701.295 timesteps/s
100.0% CPU use with 1 MPI tasks x no OpenMP threads

MPI task timing breakdown:
Section |  min time  |  avg time  |  max time  |%varavg| %total
---------------------------------------------------------------
Pair    | 1.7848     | 1.7848     | 1.7848     |   0.0 | 94.89
Neigh   | 0.060495   | 0.060495   | 0.060495   |   0.0 |  3.22
Comm    | 0.01618    | 0.01618    | 0.01618    |   0.0 |  0.86
Output  | 2.8526e-05 | 2.8526e-05 | 2.8526e-05 |   0.0 |  0.00
Modify  | 0.014807   | 0.014807   | 0.014807   |   0.0 |  0.79
Other   |            | 0.004585   |            |       |  0.24

Nlocal:    217 ave 217 max 217 min
Histogram: 1 0 0 0 0 0 0 0 0 0
Nghost:    894 ave 894 max 894 min
Histogram: 1 0 0 0 0 0 0 0 0 0
Neighs:    3605 ave 3605 max 3605 min
Histogram: 1 0 0 0 0 0 0 0 0 0
FullNghs:  7210 ave 7210 max 7210 min
Histogram: 1 0 0 0 0 0 0 0 0 0

Total # of neighbors = 7210
Ave neighs/atom = 33.2258
Neighbor list builds = 104
Dangerous builds = 4
Setting up Verlet run ...
  Unit style    : metal
  Current step  : 3200
  Time step     : 0.003
Per MPI rank memory allocation (min/avg/max) = 9.645 | 9.645 | 9.645 Mbytes
Step PotEng KinEng TotEng Temp Press Density c_msdli[4] c_msdsi[4] 
    3200   -909.16934    40.842341     -868.327    1462.8245   -74519.786    1.8918427            0            0 
    3300   -906.71157    43.508384   -863.20319    1558.3125   -68264.865    1.8918427   0.12480978   0.18163571 
    3400     -905.518    44.734746   -860.78326    1602.2364   -69072.655    1.8918427   0.20396978   0.16526263 
    3500   -908.75889    41.081011   -867.67788    1471.3728   -73917.667    1.8918427  0.057465795   0.16436032 
    3600   -910.07576    45.815423   -864.26034    1640.9423   -73044.549    1.8918427  0.085349488     0.163888 
    3700   -909.80529     46.54799    -863.2573    1667.1802   -74103.769    1.8918427  0.081582618    0.1559015 
    3800   -908.69976    45.476923   -863.22284    1628.8185   -72114.891    1.8918427  0.011721224   0.15651958 
    3900   -910.64939    45.458647   -865.19074    1628.1639   -73662.357    1.8918427  0.076840885    0.1513289 
    4000   -909.59866    46.282568   -863.31609    1657.6737   -73525.992    1.8918427  0.040450005   0.15073335 
    4100   -904.01516    45.442189   -858.57298    1627.5744   -68510.452    1.8918427 0.0036048963   0.16119652 
    4200    -910.1773    42.496094    -867.6812     1522.056   -74394.601    1.8918427  0.043681355   0.15453162 
    4300   -908.22079    46.380577   -861.84021    1661.1841   -71764.143    1.8918427 0.0083827297   0.21422842 
    4400   -909.67087    46.260477    -863.4104    1656.8825   -74914.555    1.8918427   0.35549736   0.19447914 
    4500   -911.17911    43.407842   -867.77127    1554.7115   -75988.722    1.8918427   0.29859431   0.17011499 
    4600   -909.25627    48.283437   -860.97284    1729.3376   -71157.065    1.8918427  0.043832929   0.14656946 
    4700   -909.68687    42.614482   -867.07238    1526.2962   -73542.295    1.8918427  0.053136521   0.18410526 
    4800   -911.94798    43.274071   -868.67391    1549.9203   -74688.616    1.8918427  0.024445075   0.16210876 
    4900    -908.2513    45.375327   -862.87597    1625.1796   -70422.012    1.8918427   0.25846237   0.14404291 
    5000   -911.03191    47.415447   -863.61646    1698.2494   -71924.642    1.8918427  0.050108626   0.15492253 
    5100   -910.44617    40.838665    -869.6075    1462.6929   -73441.313    1.8918427  0.075473267   0.16058845 
    5200   -906.80562    45.036008   -861.76961    1613.0265   -69683.016    1.8918427   0.12818625    0.1778369 
    5300   -906.67517    42.637348   -864.03782    1527.1152   -69538.198    1.8918427   0.11627261   0.15710572 
    5400    -912.5189    40.334561   -872.18434    1444.6377   -77375.579    1.8918427   0.15284556   0.13751108 
    5500   -907.05813    44.985647   -862.07249    1611.2227   -71276.453    1.8918427   0.16822947   0.14332609 
    5600   -905.45841    42.304426   -863.15398    1515.1911   -68647.289    1.8918427  0.024685119   0.17168806 
    5700   -907.71429    39.461905   -868.25239    1413.3823   -71793.659    1.8918427   0.35727433   0.19232757 
    5800   -906.82696     46.33128   -860.49568    1659.4184    -71938.66    1.8918427  0.014004415   0.18478011 
    5900   -906.90522    44.117961   -862.78726    1580.1454   -71706.228    1.8918427  0.022885295   0.17037025 
    6000   -909.69605    42.549602   -867.14645    1523.9724   -74218.209    1.8918427   0.24608324   0.18105283 
    6100    -906.2611    42.612592   -863.64851    1526.2285   -69671.567    1.8918427   0.20242915   0.17721688 
    6200   -904.06273    44.327383   -859.73534    1587.6461   -67938.174    1.8918427    0.1136611   0.16177623 
    6300    -910.6679    41.914608    -868.7533    1501.2293   -75024.723    1.8918427   0.16870125    0.1539664 
    6400   -909.17215    46.666399   -862.50575    1671.4212   -72911.099    1.8918427   0.12145754   0.15997037 
    6500   -909.28542    46.696656   -862.58876    1672.5049   -72113.494    1.8918427    0.2617587   0.17920604 
    6600   -908.94689    44.013729   -864.93316    1576.4121   -71824.673    1.8918427  0.089931163    0.1560464 
    6700   -910.08942    43.675536   -866.41389    1564.2993   -75423.117    1.8918427   0.16948064     0.156185 
    6800   -907.50529    46.941017   -860.56427     1681.257   -70638.316    1.8918427   0.31280468   0.18005356 
    6900    -912.4924    48.541833   -863.95057    1738.5924   -74934.592    1.8918427   0.18050261   0.15935423 
    7000   -910.48103    43.395667   -867.08537    1554.2754   -74289.495    1.8918427   0.26049586   0.15430618 
    7100   -905.65344    43.274599   -862.37884    1549.9392   -69227.284    1.8918427   0.14223534   0.17690643 
    7200   -906.19115    42.901879   -863.28927    1536.5897   -68933.596    1.8918427   0.23033201   0.15348886 
    7300   -905.49345    40.322787   -865.17066     1444.216   -70698.116    1.8918427  0.039523257   0.16223605 
    7400   -910.45121    41.218139   -869.23308    1476.2843   -75177.725    1.8918427  0.051154319   0.15037413 
    7500   -907.77358    46.811759   -860.96182    1676.6274   -71652.545    1.8918427  0.037835138    0.1718176 
    7600   -906.69645    42.474724   -864.22173    1521.2906   -73121.976    1.8918427   0.31427718   0.14242044 
    7700   -911.54607    41.530309   -870.01576     1487.465   -75969.819    1.8918427  0.023386374   0.16207327 
    7800   -909.02335    45.045659   -863.97769    1613.3722   -72696.691    1.8918427   0.71326159   0.16669423 
    7900   -905.56309    45.708041   -859.85505    1637.0963    -70193.16    1.8918427   0.27063203    0.2082324 
    8000   -911.31169    42.503322   -868.80836    1522.3148   -75314.576    1.8918427    1.4415511   0.18229233 
    8100   -908.17908    44.890247   -863.28883    1607.8058   -73286.736    1.8918427   0.42209003   0.19778375 
    8200   -908.17542    45.802722    -862.3727    1640.4874   -73525.758    1.8918427   0.05263445   0.15583321 
    8300   -906.36416    40.661822   -865.70234     1456.359   -72369.299    1.8918427   0.30412961   0.17491465 
    8400   -911.56859     41.66831   -869.90028    1492.4077    -75180.06    1.8918427  0.063579438   0.15739669 
    8500   -907.24173    44.556494   -862.68523     1595.852   -71908.637    1.8918427   0.15530663   0.16329832 
    8600   -907.20219    43.994428   -863.20776    1575.7209   -72497.186    1.8918427  0.057819659   0.16443112 
    8700   -912.94533    42.929637   -870.01569    1537.5839   -75832.687    1.8918427   0.21802032   0.18373785 
    8800   -906.89952    45.365121    -861.5344    1624.8141   -71184.601    1.8918427   0.11782794   0.17810535 
    8900   -907.62181    43.570398   -864.05142    1560.5336   -72148.504    1.8918427   0.32909277   0.16977833 
    9000   -911.77607    41.620391   -870.15568    1490.6915   -75524.924    1.8918427   0.64939721   0.14493467 
    9100    -908.0733    46.503507    -861.5698     1665.587   -73150.335    1.8918427   0.47901961   0.17731532 
    9200   -907.69746    46.445311   -861.25215    1663.5026   -73194.848    1.8918427   0.92344474    0.1896725 
    9300   -909.85927    41.577061    -868.2822    1489.1396   -75409.917    1.8918427    3.8727803   0.19089044 
    9400   -905.99379     48.26966   -857.72413    1728.8442   -69742.048    1.8918427    11.804352   0.19124305 
    9500   -909.24495    45.558499   -863.68645    1631.7402   -73755.711    1.8918427    14.648072   0.19954149 
    9600   -908.04749     43.53431   -864.51318    1559.2411   -73270.427    1.8918427    15.919807    0.2026005 
    9700   -905.71567     49.48278   -856.23289    1772.2937    -72999.21    1.8918427    14.195708   0.19658154 
    9800   -909.78659    46.783985    -863.0026    1675.6327   -75650.005    1.8918427    13.597908   0.18507211 
    9900   -904.57443    42.215103   -862.35932    1511.9919   -73878.569    1.8918427    11.323978   0.21361418 
   10000   -900.69978    48.381684   -852.31809    1732.8565   -67426.284    1.8918427    15.418104   0.24276844 
   10100   -905.80807    45.458682   -860.34939    1628.1651   -70533.808    1.8918427    19.594651   0.21095211 
   10200   -906.77694    43.201986   -863.57495    1547.3385   -74538.804    1.8918427     15.22772   0.21989859 
   10300   -904.57072    48.760835   -855.80989    1746.4363   -71127.906    1.8918427    20.814834   0.22551719 
   10400   -902.94282    41.907652   -861.03516    1500.9801   -71025.403    1.8918427    23.838195   0.22475169 
   10500   -908.86967    46.561356   -862.30831    1667.6589   -72594.525    1.8918427    14.929472   0.22331094 
   10600   -903.25943    46.189296   -857.07013    1654.3331   -69281.862    1.8918427    15.132814   0.21173541 
   10700   -898.87548    45.343971   -853.53151    1624.0566   -68534.301    1.8918427    16.016036   0.23027331 
   10800   -905.80541    43.589405   -862.21601    1561.2144   -72720.424    1.8918427    19.326667   0.21583705 
   10900   -903.36201    42.811698   -860.55031    1533.3598   -71941.267    1.8918427    20.070728   0.22091826 
   11000   -905.19818    50.224582    -854.9736    1798.8624   -69667.193    1.8918427    19.766939   0.21878224 
   11100   -907.50834    42.712815   -864.79553    1529.8181       -72713    1.8918427    10.597551   0.20603393 
   11200   -904.53498    43.209199   -861.32578    1547.5968   -70964.977    1.8918427    10.743261   0.18958803 
   11300   -906.33167    49.903231   -856.42843    1787.3528    -69150.02    1.8918427     9.874133    0.2308681 
   11400   -909.11348    42.971068   -866.14241    1539.0678   -73909.377    1.8918427    14.387948    0.2030706 
   11500     -904.686    44.827598    -859.8584     1605.562   -67124.287    1.8918427    18.449388   0.20034762 
   11600   -906.83503     44.60592   -862.22911    1597.6223    -72220.76    1.8918427    17.789396   0.18381348 
   11700   -905.53506    39.863223   -865.67184    1427.7561   -69963.058    1.8918427    7.9319802   0.20037367 
   11800   -903.97929    44.387829   -859.59146     1589.811   -68037.307    1.8918427    11.714132   0.22186241 
   11900   -912.51022    44.521624    -867.9886    1594.6031   -75948.542    1.8918427     12.77086   0.18065957 
   12000   -910.15153    44.425299   -865.72623    1591.1531   -75424.124    1.8918427    12.265545   0.18463774 
   12100   -906.41152    46.173344   -860.23818    1653.7617   -71685.659    1.8918427    11.528931   0.21592595 
   12200   -906.89635    41.958132   -864.93821    1502.7881   -73936.821    1.8918427    15.506098   0.19380774 
   12300   -909.74708    44.292793   -865.45429    1586.4072   -74451.385    1.8918427    11.693609   0.17974001 
   12400   -905.73111     45.37027   -860.36084    1624.9985   -72628.492    1.8918427    12.857542    0.2012836 
   12500   -906.86209    43.260821   -863.60127    1549.4457   -72829.765    1.8918427    13.545103   0.19355843 
   12600   -910.53968    39.147918   -871.39176    1402.1365   -75338.274    1.8918427    5.9117582   0.19667602 
   12700   -909.15925    45.426823   -863.73243    1627.0241   -73135.775    1.8918427    5.3968457   0.19686529 
   12800   -906.76933    45.512795   -861.25653    1630.1033   -72738.268    1.8918427    6.0837351   0.21736666 
   12900    -907.4337    42.006081   -865.42762    1504.5055   -71444.099    1.8918427    5.3077393    0.1866232 
   13000   -909.71204    43.873601   -865.83844    1571.3933   -76075.592    1.8918427    6.1284781   0.16930388 
   13100   -903.49891     44.21846   -859.28045    1583.7449   -68640.688    1.8918427    5.6673457   0.18484371 
   13200    -908.4736    44.009024   -864.46457    1576.2436   -72821.822    1.8918427    6.2438034    0.1893193 
   13300   -910.28289    40.424017   -869.85887    1447.8417   -75790.485    1.8918427    5.4790139    0.1858162 
   13400   -907.05017    43.755815   -863.29435    1567.1746   -69868.253    1.8918427    4.8443381    0.1708459 
   13500   -908.39427    47.007482   -861.38679    1683.6375   -72350.382    1.8918427    5.0007727   0.17527224 
   13600   -912.34386    42.683057    -869.6608    1528.7523   -76993.872    1.8918427    5.2392368   0.15763779 
   13700   -907.26093    44.831709   -862.42922    1605.7092   -72709.413    1.8918427    6.7496563   0.20170294 
   13800    -909.6971    46.700199    -862.9969    1672.6318   -73035.586    1.8918427    6.2230716   0.16900355 
   13900   -908.31958    41.864858   -866.45472    1499.4474   -73156.048    1.8918427    6.1505019   0.18333971 
   14000   -906.49582    45.046105   -861.44971    1613.3881   -72313.915    1.8918427    5.9602479   0.19243148 
   14100   -903.60598    42.771624   -860.83436    1531.9244   -68072.461    1.8918427    8.7620124    0.2067858 
   14200    -906.9478    40.009943   -866.93785     1433.011    -71974.75    1.8918427    7.2348443   0.18277418 
   14300   -908.24869    46.745148   -861.50354    1674.2417   -72425.971    1.8918427    5.0019008   0.17775493 
   14400   -905.36115    46.086509   -859.27464    1650.6516   -70786.866    1.8918427    5.4821654   0.17721965 
   14500   -914.15046    46.609037   -867.54142    1669.3667   -76722.438    1.8918427    5.2079372   0.16345405 
   14600   -908.94639    47.964605   -860.98179    1717.9182   -72565.491    1.8918427    5.5980318   0.18731168 
   14700   -906.72038    45.559882    -861.1605    1631.7898   -72658.417    1.8918427    6.0200754   0.21602674 
   14800    -909.7898    46.226403    -863.5634    1655.6621    -74368.49    1.8918427    8.0456767   0.18680092 
   14900   -910.84308    47.165245   -863.67783     1689.288   -74870.033    1.8918427    6.3997555   0.18765554 
   15000   -908.55922    50.744706   -857.81451    1817.4913   -73315.042    1.8918427    5.7931058   0.18174689 
   15100   -909.57391    43.931438   -865.64247    1573.4648     -74292.9    1.8918427    5.0838152   0.18574695 
   15200   -907.38124    43.619902   -863.76134    1562.3067   -72812.396    1.8918427    8.4851165   0.18100475 
   15300   -908.90402    47.650779   -861.25324    1706.6781   -72366.426    1.8918427    16.475261   0.19871818 
   15400   -908.43292    44.235097   -864.19783    1584.3408   -72336.165    1.8918427    12.271678   0.19824566 
   15500   -912.92336     42.15554   -870.76782    1509.8586   -77609.443    1.8918427    13.441683   0.20189486 
   15600   -909.46649    47.695324   -861.77116    1708.2735    -70967.65    1.8918427    16.159203   0.19202436 
   15700   -909.30025     47.10973   -862.19052    1687.2997   -72911.085    1.8918427    13.368228   0.19583404 
   15800   -911.45316    42.549623   -868.90353    1523.9732   -75565.551    1.8918427     14.35039   0.19600381 
   15900   -906.22206    47.409504   -858.81256    1698.0365   -69478.353    1.8918427    15.016977   0.20711277 
   16000   -908.79651    44.141345   -864.65517    1580.9829   -74314.386    1.8918427     11.87231   0.20210368 
   16100   -908.69007     43.42707     -865.263    1555.4002    -72431.34    1.8918427     15.11331   0.18004939 
   16200   -904.16955    46.467568   -857.70199    1664.2998   -65573.736    1.8918427    17.025631   0.17867013 
   16300   -910.95937    45.655207   -865.30416     1635.204   -73001.864    1.8918427    12.615791   0.19649768 
   16400   -908.41998    46.702161   -861.71782     1672.702   -72946.466    1.8918427    9.9222898   0.20199722 
   16500   -901.67537    44.830815   -856.84456    1605.6772   -65465.058    1.8918427    15.949726   0.21522494 
   16600   -907.18911    43.870373   -863.31874    1571.2777   -72003.908    1.8918427    12.971213   0.20219361 
   16700   -908.59131    43.701529   -864.88978    1565.2303   -72936.791    1.8918427    17.371972   0.21018541 
   16800    -906.2998    49.638207   -856.66159    1777.8606   -69686.727    1.8918427    17.722528   0.19821942 
   16900   -907.41324    42.244349   -865.16889    1513.0394    -71322.64    1.8918427    17.502737   0.18651089 
   17000   -904.84952    41.436014    -863.4135    1484.0877   -68403.309    1.8918427    16.500819   0.19300585 
   17100   -901.22729     47.01393   -854.21336    1683.8685   -67683.285    1.8918427    17.892334   0.22037085 
   17200   -906.40559     43.11051   -863.29508    1544.0621   -72336.961    1.8918427    24.596906   0.20768513 
   17300   -906.14448    43.169074    -862.9754    1546.1597   -73204.843    1.8918427    25.706253   0.21505716 
   17400   -905.57887    45.216858   -860.36202    1619.5039   -69640.009    1.8918427    21.686371   0.17646615 
   17500   -910.68802    44.349938   -866.33808    1588.4539   -75969.603    1.8918427    22.955961   0.16406523 
   17600   -908.35528    43.732317   -864.62297     1566.333   -72536.437    1.8918427    20.736821   0.16529235 
   17700   -905.55166    45.932544   -859.61912    1645.1372    -70309.03    1.8918427    21.031842   0.19201996 
   17800    -910.0506     44.15315   -865.89745    1581.4057   -73669.215    1.8918427    25.750116    0.1837182 
   17900   -906.79499     46.88579    -859.9092     1679.279   -71326.252    1.8918427    22.554665   0.18915391 
   18000   -906.70617    47.198027   -859.50814    1690.4622     -71990.7    1.8918427    27.789491   0.17557426 
   18100   -911.24819    46.008341   -865.23985    1647.8519   -75244.723    1.8918427    21.412625   0.17453458 
   18200   -904.79588    45.590822   -859.20506    1632.8979   -67626.307    1.8918427    20.259835   0.17434132 
   18300   -909.40308    49.870405   -859.53268    1786.1771   -73673.648    1.8918427    21.209631   0.17545141 
   18400   -903.56744    39.558229   -864.00921    1416.8323    -69066.63    1.8918427    20.007431   0.17466379 
   18500   -911.18297    46.434651   -864.74832    1663.1208   -76062.306    1.8918427    21.097728    0.2000797 
   18600   -904.15313    44.390027    -859.7631    1589.8898   -69426.855    1.8918427      22.4059   0.21495207 
   18700   -908.34977    43.064341   -865.28543    1542.4085   -73402.657    1.8918427    22.294485    0.1828553 
   18800   -909.48786    43.593343   -865.89451    1561.3555   -73187.885    1.8918427    24.698136   0.17070771 
   18900   -908.08604    45.776185   -862.30986     1639.537   -72098.929    1.8918427    18.522993   0.16606724 
   19000   -905.99344    42.470372   -863.52307    1521.1347   -68573.591    1.8918427    18.532274    0.1928639 
   19100   -912.09759    47.159038   -864.93855    1689.0657   -76797.719    1.8918427    14.279446   0.17989049 
   19200   -903.53481    44.168412    -859.3664    1581.9524   -67313.961    1.8918427      10.9308   0.18956567 
   19300   -904.60986    42.336072   -862.27379    1516.3246   -70132.369    1.8918427    10.547913   0.22101967 
   19400   -909.17784    42.800823   -866.37702    1532.9703    -74140.78    1.8918427    12.904262   0.22309208 
   19500   -904.95151    44.433934   -860.51758    1591.4624   -67788.083    1.8918427    17.850598   0.22304348 
   19600   -907.94725    45.634505   -862.31275    1634.4625   -69687.595    1.8918427    21.824778   0.18322804 
   19700   -907.92932    43.631615   -864.29771    1562.7262   -71855.678    1.8918427    23.332086   0.18217484 
   19800   -908.83399    39.746875   -869.08712    1423.5889   -72635.102    1.8918427    31.871439   0.19680528 
   19900    -906.8196    45.945798    -860.8738    1645.6119   -70009.768    1.8918427    21.429863   0.19559423 
   20000   -907.61744    45.040813   -862.57663    1613.1986   -73318.676    1.8918427    20.361594   0.19206411 
   20100   -910.18096     39.68822   -870.49274    1421.4881   -75288.943    1.8918427    23.366007   0.18137286 
   20200   -907.27442    43.676994   -863.59743    1564.3515   -72098.864    1.8918427    26.300577   0.19585209 
   20300   -907.33887    45.992551   -861.34632    1647.2864   -72601.441    1.8918427    25.167206   0.20545615 
   20400   -909.72187    46.380029   -863.34184    1661.1645   -74638.642    1.8918427    20.848402   0.21538219 
   20500   -908.43816    39.999751   -868.43841     1432.646   -75905.346    1.8918427    19.386583   0.19987611 
   20600   -905.83422    46.792801   -859.04142    1675.9485   -69421.963    1.8918427    22.953103   0.18505349 
   20700   -909.55523    44.323862   -865.23137      1587.52   -75929.436    1.8918427    19.991266   0.19284354 
   20800    -911.9253    47.738039   -864.18726    1709.8034   -74715.562    1.8918427    18.306244   0.16074523 
   20900   -908.95555     50.62375    -858.3318    1813.1591   -70325.869    1.8918427    19.918898   0.17606365 
   21000   -909.52147    43.508586   -866.01288    1558.3198   -74389.668    1.8918427    22.878649   0.17868009 
   21100   -903.63133    42.709138   -860.92219    1529.6864   -70257.448    1.8918427    24.478524    0.1846514 
   21200   -906.93496    47.869857    -859.0651    1714.5247   -69810.339    1.8918427    21.839165   0.16519714 
   21300   -907.28472    43.450232   -863.83449    1556.2297   -71624.805    1.8918427    19.918809   0.18584611 
   21400   -908.03006    42.917546   -865.11251    1537.1509   -72987.391    1.8918427    21.490303   0.19624985 
   21500   -907.90554    48.047246   -859.85829    1720.8781   -70323.752    1.8918427    23.218693   0.17736121 
   21600   -911.28953    46.819017   -864.47051    1676.8874   -74596.184    1.8918427    22.206656   0.14389285 
   21700   -907.67865     40.86336   -866.81529    1463.5774   -72478.882    1.8918427    26.049523   0.15915374 
   21800     -908.874    45.919479   -862.95452    1644.6692   -72029.637    1.8918427    22.301016   0.17203042 
   21900   -909.21129    45.906135   -863.30516    1644.1913   -74835.679    1.8918427     26.08074   0.18987481 
   22000   -912.18353    42.921368   -869.26216    1537.2877   -77330.102    1.8918427    23.699074   0.17820449 
   22100   -907.48898    44.690083    -862.7989    1600.6367   -70893.869    1.8918427    22.066736   0.19147054 
   22200    -906.4019    44.459785   -861.94211    1592.3883   -69453.053    1.8918427    18.243893    0.1816414 
   22300   -910.58667    40.093699   -870.49297    1436.0109   -77404.941    1.8918427     23.82407   0.18275181 
   22400   -910.76797    46.973153   -863.79482     1682.408   -74881.592    1.8918427     22.81259   0.20167206 
   22500   -908.40594    47.228531   -861.17741    1691.5547   -71431.318    1.8918427    30.173043   0.18291301 
   22600   -910.50074    43.312757   -867.18799    1551.3059   -75537.225    1.8918427    24.072947   0.19708925 
   22700   -906.31159    46.374438   -859.93715    1660.9642   -73061.668    1.8918427    23.617067   0.18942516 
   22800   -904.45545    42.767507   -861.68794     1531.777    -69455.56    1.8918427    29.275459   0.20457106 
   22900   -913.17596    48.111938   -865.06402    1723.1951     -76582.6    1.8918427    27.061261   0.19025893 
   23000   -904.52156    41.227315   -863.29425    1476.6129    -71576.86    1.8918427    22.401425   0.19500204 
   23100   -909.03751    49.064977   -859.97253    1757.3295   -72396.621    1.8918427     21.04637   0.17318785 
   23200   -903.56978    42.075669   -861.49411    1506.9979   -68755.644    1.8918427    38.544557   0.21169759 
Loop time of 11.8936 on 1 procs for 20000 steps with 217 atoms

Performance: 435.864 ns/day, 0.055 hours/ns, 1681.573 timesteps/s
100.0% CPU use with 1 MPI tasks x no OpenMP threads

MPI task timing breakdown:
Section |  min time  |  avg time  |  max time  |%varavg| %total
---------------------------------------------------------------
Pair    | 11.212     | 11.212     | 11.212     |   0.0 | 94.27
Neigh   | 0.44795    | 0.44795    | 0.44795    |   0.0 |  3.77
Comm    | 0.10436    | 0.10436    | 0.10436    |   0.0 |  0.88
Output  | 0.0075717  | 0.0075717  | 0.0075717  |   0.0 |  0.06
Modify  | 0.093643   | 0.093643   | 0.093643   |   0.0 |  0.79
Other   |            | 0.02856    |            |       |  0.24

Nlocal:    217 ave 217 max 217 min
Histogram: 1 0 0 0 0 0 0 0 0 0
Nghost:    897 ave 897 max 897 min
Histogram: 1 0 0 0 0 0 0 0 0 0
Neighs:    3624 ave 3624 max 3624 min
Histogram: 1 0 0 0 0 0 0 0 0 0
FullNghs:  7248 ave 7248 max 7248 min
Histogram: 1 0 0 0 0 0 0 0 0 0

Total # of neighbors = 7248
Ave neighs/atom = 33.4009
Neighbor list builds = 778
Dangerous builds = 11
Total wall time: 0:00:13
