LAMMPS (3 Mar 2020)

    # ---------- Initialize simulation ---------------------
    units metal
    atom_style atomic
    dimension  3
    boundary   p p p
    read_data /home/modeler/RemLabs/Lab4/Problem2A_size_7/temp_3800/lammps.data
  orthogonal box = (0 0 0) to (28.63 28.63 28.63)
  1 by 1 by 1 MPI processor grid
  reading atoms ...
  1372 atoms
  read_data CPU = 0.00176431 secs

    pair_style eam
    pair_coeff * * /usr/share/lammps-stable/potentials/Ag_u3.eam
Reading potential file /usr/share/lammps-stable/potentials/Ag_u3.eam with DATE: 2007-06-11

    velocity  all create 3800 87287 dist gaussian

    # ---------- Describe computed properties------------------
    compute msdall all msd
    thermo_style custom step pe ke etotal temp press density c_msdall[4]
    thermo 100

    # ---------- Specify ensemble  ---------------------
    #fix  1 all nve
    fix  1 all nvt temp 3800 3800 0.05

    # --------- Compute RDF ---------------
    compute rdfall all rdf 100 1 1
    fix 2 all ave/time 1 2500 2500 c_rdfall[*] file /home/modeler/RemLabs/Lab4/Problem2A_size_7/temp_3800/lammps.rdf mode vector

    # --------- Run -------------
    timestep 0.001
    run 10000
Neighbor list info ...
  update every 1 steps, delay 10 steps, check yes
  max neighbors/atom: 2000, page size: 100000
  master list distance cutoff = 7.55
  ghost atom cutoff = 7.55
  binsize = 3.775, bins = 8 8 8
  2 neighbor lists, perpetual/occasional/extra = 1 1 0
  (1) pair eam, perpetual
      attributes: half, newton on
      pair build: half/bin/atomonly/newton
      stencil: half/bin/3d/newton
      bin: standard
  (2) compute rdf, occasional, copy from (1)
      attributes: half, newton on
      pair build: copy
      stencil: none
      bin: none
Per MPI rank memory allocation (min/avg/max) = 3.83 | 3.83 | 3.83 Mbytes
Step PotEng KinEng TotEng Temp Press Density c_msdall[4] 
       0      -3910.2     673.4195   -3236.7805         3800    30650.666    10.472245            0 
     100   -3486.7524     367.6714    -3119.081    2074.7117     126203.5    10.472245   0.23883105 
     200   -3380.4589    503.16164   -2877.2972    2839.2618    158749.85    10.472245   0.39352302 
     300   -3232.2099    622.39328   -2609.8166     3512.067    197331.07    10.472245   0.59338987 
     400   -3133.8952    704.80922    -2429.086    3977.1272    224667.45    10.472245   0.85097507 
     500   -3114.2045    691.30032   -2422.9041    3900.8987    228157.66    10.472245    1.1428978 
     600   -3094.7455    663.48209   -2431.2634    3743.9247    232577.79    10.472245    1.4158627 
     700   -3079.9165    699.84636   -2380.0701    3949.1226    236775.81    10.472245    1.7456265 
     800   -3089.4122    664.63307   -2424.7791    3750.4195    233528.89    10.472245    2.1376323 
     900   -3083.7519     671.0791   -2412.6728    3786.7935    234307.25    10.472245    2.5831118 
    1000   -3073.0587    697.03009   -2376.0286    3933.2308    237210.98    10.472245    3.1402188 
    1100   -3072.3055    677.11021   -2395.1953    3820.8261    238443.97    10.472245    3.7323009 
    1200   -3072.5547    673.29252   -2399.2622    3799.2834    237476.39    10.472245     4.312003 
    1300   -3083.8653    665.52862   -2418.3367     3755.473    233911.73    10.472245    5.0012416 
    1400   -3063.8075    666.19075   -2397.6167    3759.2093    238633.41    10.472245    5.6610991 
    1500   -3046.7673    678.18708   -2368.5802    3826.9027    242535.53    10.472245    6.1579365 
    1600     -3036.05    637.85346   -2398.1965    3599.3064     242150.6    10.472245    6.6903414 
    1700   -3074.1277    696.72821   -2377.3995    3931.5274    238126.28    10.472245    7.1489494 
    1800   -3046.8575    657.53825   -2389.3193    3710.3846    241087.02    10.472245    7.7105582 
    1900    -3073.824     683.7521   -2390.0719    3858.3052    236539.41    10.472245    8.2305919 
    2000    -3095.862    674.29844   -2421.5636    3804.9597    231914.32    10.472245    8.7778938 
    2100   -3065.9272    680.19903   -2385.7281    3838.2558    239251.25    10.472245    9.3638442 
    2200   -3042.5562    691.06538   -2351.4909    3899.5729    245664.83    10.472245    9.9163304 
    2300   -3063.3908    665.71158   -2397.6792    3756.5054    239315.15    10.472245    10.457718 
    2400   -3063.9335    653.09341   -2410.8401    3685.3031    237137.41    10.472245    10.976913 
    2500   -3072.5667    692.98699   -2379.5798    3910.4162    239688.39    10.472245    11.560701 
    2600   -3076.1829    679.13536   -2397.0476    3832.2537    236117.56    10.472245     12.21574 
    2700    -3085.662    643.11734   -2442.5447    3629.0097       233472    10.472245    12.722073 
    2800   -3074.4422     662.8566   -2411.5856    3740.3952    235738.65    10.472245     13.20265 
    2900   -3074.5458    657.44467   -2417.1011    3709.8565    235228.25    10.472245    13.827808 
    3000   -3044.6185    676.03595   -2368.5825    3814.7642    243231.97    10.472245    14.484852 
    3100   -3041.1827    664.56438   -2376.6184    3750.0319    243283.28    10.472245    15.168237 
    3200   -3075.6833    678.64915   -2397.0341    3829.5101       237503    10.472245     15.77879 
    3300   -3079.1734    673.23665   -2405.9368    3798.9682    236561.21    10.472245     16.46392 
    3400   -3066.0966    685.25796   -2380.8386    3866.8026    240234.81    10.472245    17.149662 
    3500   -3074.9895    685.30019   -2389.6893    3867.0408     237084.1    10.472245    17.647123 
    3600   -3079.9599     649.8797   -2430.0802    3667.1686    234846.43    10.472245    17.981442 
    3700   -3051.8543    675.65908   -2376.1953    3812.6376    241395.16    10.472245    18.458181 
    3800   -3062.8114     687.7931   -2375.0183    3881.1079    239967.01    10.472245    18.830288 
    3900   -3080.6347    670.89554   -2409.7391    3785.7577    234770.63    10.472245    19.291545 
    4000   -3076.2072    699.17683   -2377.0304    3945.3445    236408.65    10.472245    19.772994 
    4100   -3053.8024    667.67938    -2386.123    3767.6094    241684.09    10.472245    20.209788 
    4200   -3077.1514    671.65749   -2405.4939    3790.0572     234694.9    10.472245    20.555939 
    4300    -3072.969    690.74918   -2382.2198    3897.7886     238596.7    10.472245    21.082298 
    4400   -3060.0617    672.48234   -2387.5794    3794.7117    239293.09    10.472245    21.706744 
    4500   -3088.5145    673.65298   -2414.8615    3801.3175    233030.37    10.472245    22.028744 
    4600   -3065.4105    670.35078   -2395.0597    3782.6837    237503.65    10.472245    22.509363 
    4700   -3067.6711    656.61771   -2411.0534    3705.1901    237464.71    10.472245    22.893255 
    4800   -3073.3291    707.50681   -2365.8223    3992.3493    238219.07    10.472245    23.497965 
    4900    -3056.469    666.52852   -2389.9405    3761.1153    240430.11    10.472245    23.976693 
    5000   -3072.8098    667.75412   -2405.0557    3768.0311    235665.36    10.472245    24.490823 
    5100   -3054.2847    693.20049   -2361.0842     3911.621    241634.21    10.472245    24.981138 
    5200   -3083.8242    690.72731   -2393.0969    3897.6652     235470.1    10.472245    25.592011 
    5300   -3079.2617    673.49443   -2405.7673    3800.4228    235939.53    10.472245     26.13802 
    5400   -3061.5461    693.65872   -2367.8874    3914.2067    242198.34    10.472245    26.766016 
    5500   -3056.5476    663.22379   -2393.3238    3742.4672    240113.14    10.472245    27.320899 
    5600   -3080.3988    679.88596   -2400.5128    3836.4892    237147.42    10.472245    28.071174 
    5700   -3075.5842    672.87057   -2402.7137    3796.9024    237456.48    10.472245    28.643495 
    5800   -3073.3083    674.06339   -2399.2449    3803.6333     236815.3    10.472245    29.110164 
    5900   -3088.3068    685.64487   -2402.6619    3868.9858    234125.72    10.472245    29.597785 
    6000   -3070.5221    674.59012   -2395.9319    3806.6056    238123.43    10.472245    30.116286 
    6100   -3075.4885    682.02827   -2393.4603    3848.5779    236322.69    10.472245    30.622001 
    6200   -3084.3778    676.73099   -2407.6468    3818.6862    234774.59    10.472245    31.101449 
    6300   -3062.4401    682.11926   -2380.3208    3849.0914    238850.86    10.472245    31.770035 
    6400   -3088.9769    684.78018   -2404.1967    3864.1065     234987.4    10.472245    32.305873 
    6500   -3092.5539    693.09862   -2399.4552    3911.0461    232877.62    10.472245    32.801105 
    6600   -3063.9981    685.59478   -2378.4033    3868.7032    240199.78    10.472245     33.45134 
    6700   -3047.4948    689.65528   -2357.8395    3891.6159    242225.37    10.472245    34.029472 
    6800   -3072.3316    672.24073   -2400.0909    3793.3484    237131.68    10.472245    34.697843 
    6900   -3050.1968    690.89073    -2359.306    3898.5874    242100.94    10.472245    35.267204 
    7000   -3051.0476    679.99925   -2371.0484    3837.1285    241444.41    10.472245    35.660624 
    7100   -3058.1787    665.75511   -2392.4236     3756.751     239150.7    10.472245    36.243971 
    7200   -3084.6214    663.21745    -2421.404    3742.4314    234728.13    10.472245    36.915414 
    7300   -3086.5447    666.64879   -2419.8959    3761.7939    233650.35    10.472245    37.413497 
    7400   -3060.7976    683.86383   -2376.9338    3858.9357    239657.59    10.472245    38.042033 
    7500   -3046.8425     694.1296   -2352.7129    3916.8638    242874.74    10.472245    38.693118 
    7600   -3052.5865    670.46009   -2382.1264    3783.3005    240935.51    10.472245    39.555766 
    7700    -3073.574    657.24343   -2416.3306     3708.721    234853.89    10.472245    39.928742 
    7800   -3052.6887    677.78629   -2374.9024    3824.6411    241932.01    10.472245     40.42704 
    7900   -3065.3624    692.17271   -2373.1897    3905.8214     239604.3    10.472245    40.689903 
    8000    -3087.801    690.40498   -2397.3961    3895.8464    234140.32    10.472245    41.181082 
    8100   -3079.7464    667.89872   -2411.8477    3768.8471    235409.86    10.472245    41.867388 
    8200   -3076.1516    720.30043   -2355.8512    4064.5417    238274.09    10.472245    42.470704 
    8300   -3065.9659    670.08923   -2395.8767    3781.2078    237239.38    10.472245    42.974984 
    8400   -3071.6011    669.31445   -2402.2867    3776.8359    236489.06    10.472245    43.308269 
    8500   -3045.0982    693.97271   -2351.1255    3915.9785    244288.01    10.472245    43.814526 
    8600   -3066.1241    670.05603   -2396.0681    3781.0205    238185.97    10.472245    44.193581 
    8700   -3071.0921    670.09084   -2401.0013    3781.2169    235980.81    10.472245     44.73523 
    8800   -3067.8717    698.62415   -2369.2476    3942.2258    238770.22    10.472245    45.079145 
    8900   -3062.4659    665.65797    -2396.808    3756.2029     238044.1    10.472245    45.580379 
    9000   -3093.1658    674.07305   -2419.0927    3803.6879     233060.4    10.472245    46.209056 
    9100   -3086.9949    699.32073   -2387.6741    3946.1565    234340.09    10.472245     46.74215 
    9200   -3066.8895    667.99052   -2398.8989    3769.3651    237264.84    10.472245     47.25639 
    9300   -3047.0489    705.90799   -2341.1409    3983.3274    244442.43    10.472245    48.045043 
    9400   -3072.5756    688.26081   -2384.3148    3883.7471    236351.05    10.472245    48.363547 
    9500   -3078.3993    674.66967   -2403.7297    3807.0545    236224.56    10.472245    48.784441 
    9600   -3055.2147    687.88652   -2367.3282    3881.6351    240385.74    10.472245    49.258817 
    9700   -3071.8319    663.31207   -2408.5199    3742.9653    237580.21    10.472245    50.000068 
    9800   -3066.1558    667.63379    -2398.522    3767.3521    238721.39    10.472245    50.589038 
    9900   -3054.5133    680.29889   -2374.2144    3838.8193    240506.01    10.472245    51.052659 
   10000   -3049.9761    699.93449   -2350.0416    3949.6199    243454.52    10.472245    51.531729 
Loop time of 37.3599 on 1 procs for 10000 steps with 1372 atoms

Performance: 23.126 ns/day, 1.038 hours/ns, 267.667 timesteps/s
100.0% CPU use with 1 MPI tasks x no OpenMP threads

MPI task timing breakdown:
Section |  min time  |  avg time  |  max time  |%varavg| %total
---------------------------------------------------------------
Pair    | 23.21      | 23.21      | 23.21      |   0.0 | 62.13
Neigh   | 0.62227    | 0.62227    | 0.62227    |   0.0 |  1.67
Comm    | 0.1959     | 0.1959     | 0.1959     |   0.0 |  0.52
Output  | 0.0049298  | 0.0049298  | 0.0049298  |   0.0 |  0.01
Modify  | 13.254     | 13.254     | 13.254     |   0.0 | 35.48
Other   |            | 0.07234    |            |       |  0.19

Nlocal:    1372 ave 1372 max 1372 min
Histogram: 1 0 0 0 0 0 0 0 0 0
Nghost:    3503 ave 3503 max 3503 min
Histogram: 1 0 0 0 0 0 0 0 0 0
Neighs:    71708 ave 71708 max 71708 min
Histogram: 1 0 0 0 0 0 0 0 0 0

Total # of neighbors = 71708
Ave neighs/atom = 52.2653
Neighbor list builds = 209
Dangerous builds = 0
    
Total wall time: 0:00:37
