LAMMPS (3 Mar 2020)

    # ---------- Initialize simulation ---------------------
    units metal
    atom_style atomic
    dimension  3
    boundary   p p p
    read_data /home/modeler/RemLabs/Lab4/Problem2A_size_7/temp_1650/lammps.data
  orthogonal box = (0 0 0) to (28.63 28.63 28.63)
  1 by 1 by 1 MPI processor grid
  reading atoms ...
  1372 atoms
  read_data CPU = 0.00186067 secs

    pair_style eam
    pair_coeff * * /usr/share/lammps-stable/potentials/Ag_u3.eam
Reading potential file /usr/share/lammps-stable/potentials/Ag_u3.eam with DATE: 2007-06-11

    velocity  all create 1650 87287 dist gaussian

    # ---------- Describe computed properties------------------
    compute msdall all msd
    thermo_style custom step pe ke etotal temp press density c_msdall[4]
    thermo 100

    # ---------- Specify ensemble  ---------------------
    #fix  1 all nve
    fix  1 all nvt temp 1650 1650 0.05

    # --------- Compute RDF ---------------
    compute rdfall all rdf 100 1 1
    fix 2 all ave/time 1 2500 2500 c_rdfall[*] file /home/modeler/RemLabs/Lab4/Problem2A_size_7/temp_1650/lammps.rdf mode vector

    # --------- Run -------------
    timestep 0.001
    run 10000
Neighbor list info ...
  update every 1 steps, delay 10 steps, check yes
  max neighbors/atom: 2000, page size: 100000
  master list distance cutoff = 7.55
  ghost atom cutoff = 7.55
  binsize = 3.775, bins = 8 8 8
  2 neighbor lists, perpetual/occasional/extra = 1 1 0
  (1) pair eam, perpetual
      attributes: half, newton on
      pair build: half/bin/atomonly/newton
      stencil: half/bin/3d/newton
      bin: standard
  (2) compute rdf, occasional, copy from (1)
      attributes: half, newton on
      pair build: copy
      stencil: none
      bin: none
Per MPI rank memory allocation (min/avg/max) = 3.83 | 3.83 | 3.83 Mbytes
Step PotEng KinEng TotEng Temp Press Density c_msdall[4] 
       0      -3910.2    292.40584   -3617.7942         1650    13308.809    10.472245            0 
     100   -3732.7738    162.65265   -3570.1211    917.82325    54815.903    10.472245  0.096747771 
     200    -3699.885    237.35767   -3462.5273    1339.3719    66777.463    10.472245   0.11949844 
     300   -3636.9842    288.73507   -3348.2492    1629.2864    85589.367    10.472245   0.15453843 
     400    -3592.943    307.71426   -3285.2288     1736.383    97699.292    10.472245   0.18315021 
     500   -3603.2777    290.99465   -3312.2831    1642.0369    94121.452    10.472245   0.18712958 
     600   -3631.0939     287.7298   -3343.3641    1623.6139    86934.637    10.472245   0.17051089 
     700   -3625.3888    298.89874     -3326.49    1686.6384    89050.385    10.472245   0.16036799 
     800   -3610.2036    292.48226   -3317.7213    1650.4312    92608.823    10.472245   0.15695284 
     900   -3619.3326    281.63504   -3337.6976    1589.2221    90309.937    10.472245   0.15647588 
    1000   -3614.3916    295.15116   -3319.2404    1665.4914     91737.09    10.472245   0.15451057 
    1100   -3608.7748    300.48886    -3308.286    1695.6112    93595.505    10.472245   0.15098942 
    1200   -3619.1872    283.58957   -3335.5976    1600.2512    90368.219    10.472245   0.14668611 
    1300    -3619.187    282.46313   -3336.7238    1593.8949    90181.505    10.472245   0.14861507 
    1400   -3609.5719    287.15834   -3322.4135    1620.3892    92291.508    10.472245   0.15977147 
    1500   -3609.8548    294.12378   -3315.7311    1659.6941    93168.566    10.472245   0.16491616 
    1600    -3618.366    292.94796   -3325.4181    1653.0591    90348.816    10.472245   0.16142198 
    1700   -3615.8618     285.8512   -3330.0106    1613.0132    90888.082    10.472245   0.15352504 
    1800   -3620.1917     295.2406   -3324.9511    1665.9961    90566.971    10.472245   0.14634673 
    1900   -3613.0165    282.59613   -3330.4204    1594.6453    91441.738    10.472245   0.14971557 
    2000    -3613.027    295.69858   -3317.3284    1668.5804    92582.543    10.472245   0.14571859 
    2100   -3618.3789    289.48928   -3328.8896    1633.5424    90161.465    10.472245   0.14423761 
    2200   -3623.9383    289.13674   -3334.8015     1631.553    89670.626    10.472245   0.14470637 
    2300   -3611.3137    288.87265    -3322.441    1630.0628     92138.38    10.472245   0.15433919 
    2400   -3612.7064     300.4995   -3312.2069    1695.6712     92549.01    10.472245   0.15742343 
    2500   -3613.0379    287.75499   -3325.2829     1623.756    91668.603    10.472245   0.16521034 
    2600    -3606.025    289.30654   -3316.7184    1632.5112    93394.304    10.472245   0.16455037 
    2700   -3615.4461    296.78137   -3318.6648    1674.6904    91472.862    10.472245   0.15651183 
    2800   -3613.4894    289.84819   -3323.6412    1635.5676    91219.927    10.472245   0.14931125 
    2900   -3621.9948    293.63147   -3328.3633    1656.9161    89422.836    10.472245   0.13747568 
    3000   -3626.0455    287.25801   -3338.7874    1620.9516    88612.423    10.472245   0.14194043 
    3100   -3620.2807    302.12608   -3318.1546    1704.8498    90257.786    10.472245   0.14553624 
    3200   -3618.2983    288.02513   -3330.2731    1625.2804    90314.996    10.472245   0.15534612 
    3300   -3615.3509     294.2306   -3321.1203    1660.2968    91585.098    10.472245   0.15862394 
    3400   -3613.5084    278.73522   -3334.7732    1572.8589    91323.486    10.472245   0.15856314 
    3500   -3624.0413    285.82108   -3338.2203    1612.8432    88396.568    10.472245   0.15121538 
    3600   -3618.0847    295.30298   -3322.7817    1666.3481    90793.692    10.472245   0.15413059 
    3700   -3620.9876    296.42345   -3324.5641    1672.6707    90117.219    10.472245   0.15072364 
    3800   -3628.0783    295.21195   -3332.8664    1665.8344    88516.837    10.472245   0.14904664 
    3900   -3605.0185    295.40392   -3309.6146    1666.9177    94322.835    10.472245   0.15059563 
    4000   -3614.6449    291.71904   -3322.9259    1646.1245    91449.553    10.472245   0.14560234 
    4100   -3620.8548    287.26759   -3333.5872    1621.0057    90273.115    10.472245   0.14498694 
    4200    -3613.473    295.61828   -3317.8547    1668.1273     92047.79    10.472245    0.1535875 
    4300   -3603.6164    295.76889   -3307.8475    1668.9772    94406.928    10.472245   0.16981636 
    4400   -3611.7358    281.82547   -3329.9103    1590.2967    91142.617    10.472245   0.17007874 
    4500   -3608.6924    283.11069   -3325.5817    1597.5489    91997.314    10.472245   0.16505792 
    4600   -3613.0808    303.51326   -3309.5675    1712.6774    92455.054    10.472245   0.15489136 
    4700   -3628.2382    294.46797   -3333.7702    1661.6363    88007.209    10.472245   0.15106074 
    4800     -3623.53    302.68704    -3320.843    1708.0152    89732.384    10.472245   0.15042178 
    4900   -3619.4535     301.5981   -3317.8554    1701.8705    90293.087    10.472245   0.14533621 
    5000   -3628.4371    292.38164   -3336.0555    1649.8635     88053.42    10.472245   0.14228945 
    5100   -3614.8292    288.21077   -3326.6185    1626.3279    91100.546    10.472245   0.14917025 
    5200   -3619.5774    300.37864   -3319.1987    1694.9893    90857.376    10.472245   0.15035657 
    5300   -3614.8411    286.33562   -3328.5055    1615.7467    91647.819    10.472245   0.15606956 
    5400   -3609.5612    285.96155   -3323.5997    1613.6359    92592.201    10.472245   0.15846009 
    5500   -3612.6256    294.99204   -3317.6336    1664.5935    92271.204    10.472245   0.15876729 
    5600   -3622.5625    304.40724   -3318.1553     1717.722    90018.422    10.472245   0.15514371 
    5700    -3625.151    292.48152   -3332.6695     1650.427    89253.252    10.472245   0.15639071 
    5800   -3624.0452    309.00755   -3315.0377    1743.6809    89676.121    10.472245   0.15915074 
    5900   -3608.1664    296.36116   -3311.8053    1672.3193    93576.635    10.472245   0.16415444 
    6000   -3622.7212    291.24291   -3331.4783    1643.4378    89616.594    10.472245    0.1541409 
    6100   -3618.4063    285.47002   -3332.9363    1610.8623    90038.053    10.472245   0.15075146 
    6200   -3615.5489    289.74851   -3325.8004    1635.0051    91262.357    10.472245   0.15066407 
    6300   -3611.0775    306.06243   -3305.0151     1727.062    93279.822    10.472245   0.15094716 
    6400   -3622.5101     299.2173   -3323.2928     1688.436    89840.051    10.472245   0.14896362 
    6500   -3626.1856    297.44521   -3328.7404    1678.4364    88943.396    10.472245   0.14211296 
    6600   -3621.4937    292.75525   -3328.7385    1651.9717    89506.777    10.472245   0.13940133 
    6700   -3624.1973    287.79385   -3336.4035    1623.9753    89393.133    10.472245   0.14087946 
    6800    -3608.483    286.16639   -3322.3167    1614.7918    93193.696    10.472245   0.14937519 
    6900   -3606.2555    295.76241   -3310.4931    1668.9406    94326.697    10.472245    0.1497023 
    7000    -3617.814     291.9917   -3325.8223    1647.6631    90792.365    10.472245   0.14625941 
    7100    -3624.252    298.86547   -3325.3865    1686.4507    89733.371    10.472245   0.14278676 
    7200   -3622.8876    287.94038   -3334.9472    1624.8021    89285.567    10.472245   0.14185056 
    7300   -3620.4378    292.85653   -3327.5813    1652.5432    90070.589    10.472245   0.13992658 
    7400   -3616.9743    302.96481   -3314.0095    1709.5826      91769.4    10.472245   0.14476417 
    7500     -3613.96    293.91944   -3320.0406     1658.541    92064.329    10.472245   0.15071722 
    7600   -3619.0599    281.52956   -3337.5303    1588.6269    90243.158    10.472245   0.14556196 
    7700   -3624.4718    294.13569   -3330.3361    1659.7613    89179.525    10.472245   0.14391436 
    7800   -3610.5994    301.64146   -3308.9579    1702.1152    92719.923    10.472245   0.15317461 
    7900   -3616.7577    305.12914   -3311.6285    1721.7956    91705.255    10.472245   0.14799699 
    8000   -3626.0587    291.95298   -3334.1057    1647.4446    88509.496    10.472245   0.13906929 
    8100     -3620.75    291.78003     -3328.97    1646.4687    90190.326    10.472245   0.13759266 
    8200   -3612.2227    301.18653   -3311.0361    1699.5481    92886.833    10.472245   0.14422117 
    8300   -3614.2725    293.12209   -3321.1504    1654.0417    91825.899    10.472245   0.14905737 
    8400   -3618.9978    291.17747   -3327.8203    1643.0685    90254.502    10.472245   0.14625301 
    8500   -3627.2793    296.56015   -3330.7191    1673.4421    89053.192    10.472245   0.14755248 
    8600   -3616.2065    294.68706   -3321.5195    1662.8726    91232.123    10.472245   0.15565427 
    8700   -3616.2491    292.40681   -3323.8423    1650.0055    91310.661    10.472245   0.15634427 
    8800   -3614.1493    273.39358   -3340.7557    1542.7168    91646.755    10.472245   0.15848218 
    8900   -3614.1333    285.56029    -3328.573    1611.3717    91296.315    10.472245   0.15726118 
    9000   -3611.1379    288.23319   -3322.9047    1626.4544    92324.307    10.472245    0.1646202 
    9100   -3613.8716    285.92141   -3327.9502    1613.4094    91308.397    10.472245   0.17058734 
    9200   -3616.6795     290.2284   -3326.4511     1637.713    91024.973    10.472245   0.16352192 
    9300   -3614.6541    293.78645   -3320.8676    1657.7906    91767.212    10.472245   0.15472066 
    9400   -3627.6957    286.03086   -3341.6649     1614.027    88155.441    10.472245   0.14819602 
    9500   -3612.9892    296.86345   -3316.1257    1675.1536    92484.737    10.472245   0.14807593 
    9600    -3621.815    292.74624   -3329.0688    1651.9209    89888.356    10.472245   0.15197435 
    9700   -3616.3825    288.73318   -3327.6494    1629.2758     91007.57    10.472245    0.1599485 
    9800   -3610.7859    296.24532   -3314.5405    1671.6656    92535.676    10.472245    0.1578556 
    9900   -3620.8215    286.94184   -3333.8797    1619.1675     89814.92    10.472245   0.15131711 
   10000   -3620.6152    287.68315    -3332.932    1623.3506    89693.847    10.472245   0.15018582 
Loop time of 38.1346 on 1 procs for 10000 steps with 1372 atoms

Performance: 22.657 ns/day, 1.059 hours/ns, 262.229 timesteps/s
100.0% CPU use with 1 MPI tasks x no OpenMP threads

MPI task timing breakdown:
Section |  min time  |  avg time  |  max time  |%varavg| %total
---------------------------------------------------------------
Pair    | 23.91      | 23.91      | 23.91      |   0.0 | 62.70
Neigh   | 0.38862    | 0.38862    | 0.38862    |   0.0 |  1.02
Comm    | 0.17691    | 0.17691    | 0.17691    |   0.0 |  0.46
Output  | 0.0049764  | 0.0049764  | 0.0049764  |   0.0 |  0.01
Modify  | 13.584     | 13.584     | 13.584     |   0.0 | 35.62
Other   |            | 0.06965    |            |       |  0.18

Nlocal:    1372 ave 1372 max 1372 min
Histogram: 1 0 0 0 0 0 0 0 0 0
Nghost:    3264 ave 3264 max 3264 min
Histogram: 1 0 0 0 0 0 0 0 0 0
Neighs:    70371 ave 70371 max 70371 min
Histogram: 1 0 0 0 0 0 0 0 0 0

Total # of neighbors = 70371
Ave neighs/atom = 51.2908
Neighbor list builds = 125
Dangerous builds = 0
    
Total wall time: 0:00:38
