LAMMPS (3 Mar 2020)
Reading data file ...
  orthogonal box = (0 0 0) to (16.36 16.36 16.36)
  1 by 1 by 1 MPI processor grid
  reading atoms ...
  256 atoms
  read_data CPU = 0.00116625 secs
Reading potential file /usr/share/lammps-stable/potentials/Ag_u3.eam with DATE: 2007-06-11
Neighbor list info ...
  update every 1 steps, delay 10 steps, check yes
  max neighbors/atom: 2000, page size: 100000
  master list distance cutoff = 7.55
  ghost atom cutoff = 7.55
  binsize = 3.775, bins = 5 5 5
  2 neighbor lists, perpetual/occasional/extra = 1 1 0
  (1) pair eam, perpetual
      attributes: half, newton on
      pair build: half/bin/atomonly/newton
      stencil: half/bin/3d/newton
      bin: standard
  (2) compute rdf, occasional, copy from (1)
      attributes: half, newton on
      pair build: copy
      stencil: none
      bin: none
Setting up Verlet run ...
  Unit style    : metal
  Current step  : 0
  Time step     : 0.005
Per MPI rank memory allocation (min/avg/max) = 3.744 | 3.744 | 3.744 Mbytes
Step PotEng KinEng TotEng Temp Press Density c_msdall[4] 
       0       -729.6    59.330407   -670.26959         1800    14472.541    10.472245            0 
     100   -699.07769    33.466722   -665.61097    1015.3327    19910.219    10.120863  0.081895433 
     200   -692.66351    32.140257   -660.52326     975.0896    14718.043    9.9592731   0.12462522 
     300   -690.95945    35.193468   -655.76598    1067.7197    7804.3176    9.8521271   0.14415105 
     400   -687.44483    36.723195   -650.72164    1114.1294    2729.7078    9.7463604   0.16965961 
     500    -683.1144    37.053028   -646.06137    1124.1361    996.78221    9.6471044   0.19043631 
     600   -680.91839    39.912501   -641.00589    1210.8884    2670.6176    9.6095278   0.21327574 
     700   -678.69343    42.531999   -636.16143    1290.3602    2187.7993    9.5571609   0.23751357 
     800    -675.6767    44.428181   -631.24852    1347.8877    4783.3139    9.5257981   0.25863102 
     900   -672.78743    46.593938   -626.19349    1413.5937    4581.8057    9.4837738   0.26222943 
    1000   -670.40101    49.181756   -621.21926    1492.1044    967.29365    9.3626655   0.31642247 
    1100   -663.57151    47.447636   -616.12387    1439.4937   -922.16541    9.2619081   0.33790424 
    1200   -656.66443    45.844335    -610.8201    1390.8518    2529.8712    9.1252584   0.49839796 
    1300   -652.70114    47.453222   -605.24792    1439.6631    2174.7573    9.0635386   0.58147945 
    1400   -652.13902    53.094542   -599.04448    1610.8127    3842.9603    9.0964052   0.54703499 
    1500   -645.61247    52.185662    -593.4268    1583.2386     2795.546    8.9144254   0.76443509 
    1600   -632.74717    47.081598   -585.66558    1428.3886   -1754.0346    8.5428431    1.5850619 
    1700   -626.70462     48.30673   -578.39789    1465.5573    468.52508    8.3932517    2.6637573 
    1800   -623.83865    51.518791   -572.31986    1563.0067     67.48477    8.3487895    4.4921546 
    1900   -623.29082    56.438688   -566.85214    1712.2694    5384.3752     8.430323     6.469167 
    2000   -616.31353    55.442979   -560.87055     1682.061    4945.2424    8.2721679    9.2335804 
    2100   -611.09914    55.586856   -555.51229     1686.426    780.49161    8.0794192    10.999794 
    2200   -608.82535    59.773193   -549.05215    1813.4335    11690.385    8.1216405    13.660191 
    2300   -603.91955    55.376455    -548.5431    1680.0427    4173.4086     7.884781    16.592847 
    2400    -605.7105    64.542879   -541.16762     1958.139   -1872.9639     7.960075    19.600118 
    2500   -603.87099    56.734053   -547.13694    1721.2303   -6325.0486    7.7620995    22.467176 
    2600   -608.83755    54.634006   -554.20355    1657.5179   -4429.2638    7.9693221    25.293342 
    2700   -607.22991    56.171423   -551.05848    1704.1609   -7727.6911    7.8847962    28.223097 
    2800   -602.55403    57.384696   -545.16934    1740.9699   -12947.262    7.6938951    31.232603 
    2900   -603.21395     57.31196   -545.90199    1738.7632   -3505.2535    7.8806959    31.225525 
    3000   -606.38917    53.127578   -553.26159     1611.815   -4171.2487    7.9447151    33.458249 
    3100   -612.00084    59.296657   -552.70419    1798.9761   -8093.0744    8.0089326    36.559853 
    3200   -611.11506     59.80579   -551.30927    1814.4224    2413.5912    7.9788027    40.080517 
    3300   -608.56692    63.531306   -545.03561    1927.4493    -6917.455    7.7722599     43.02713 
    3400   -610.66336    58.167489   -552.49587    1764.7188    2698.4825    8.0147825    45.194928 
    3500   -612.76638    56.901106   -555.86527    1726.2985   -595.40164    8.1332603    47.218757 
    3600   -607.54205    62.159546   -545.38251    1885.8321    6159.5536    8.0205079    50.291167 
    3700   -605.72739    62.339587   -543.38781    1891.2943    3753.3694    7.8434063    53.819936 
    3800   -613.33077    61.142444   -552.18832    1854.9746   -9431.7234    7.9419554    55.989989 
    3900   -609.45684       60.315   -549.14184    1829.8712   -6188.9927     7.802083    59.982436 
    4000    -600.8706    59.555834   -541.31476    1806.8392   -748.86421    7.7156824    64.139529 
    4100   -608.68973    63.649038    -545.0407    1931.0211     -2302.26    7.9242591    65.625783 
    4200   -607.24938    56.725945   -550.52343    1720.9843   -1508.6823      7.87677    68.852159 
    4300   -604.58092    57.782043   -546.79888    1753.0249   -7173.5951    7.8012594    71.772377 
    4400   -599.65573    63.750243   -535.90549    1934.0915   -220.26804    7.6998837    76.138545 
    4500   -607.63174    61.342169   -546.28957     1861.034   -816.91736    7.9239432    78.288565 
    4600   -611.82704    60.708731   -551.11831    1841.8164    -5615.915    7.9603559    82.694378 
    4700   -614.39777    61.658246   -552.73952    1870.6233   -1947.0988    8.0672476    85.465835 
    4800   -619.02667    54.667272    -564.3594    1658.5272    7349.1667    8.3833099    84.468148 
    4900   -616.78645    58.078583   -558.70786    1762.0214    -5083.434    8.1026106    89.938623 
    5000   -610.33123    58.152357   -552.17887    1764.2596    2740.5325    8.0051646    92.043019 
    5100   -613.75345     62.82523   -550.92822    1906.0279    4048.8836    8.1171029    92.657798 
    5200   -609.42127      56.0266   -553.39467    1699.7672    6143.0441    8.0590377    95.909838 
    5300   -605.94405    62.193375   -543.75068    1886.8584    5741.2854    7.9131023    98.845883 
    5400   -604.20663    56.765872   -547.44076    1722.1957    4223.3312    7.9259209    100.88211 
    5500   -603.44878    63.675032   -539.77374    1931.8098    9101.9771    7.9631648    104.14944 
    5600   -604.42513    59.187215   -545.23792    1795.6558    1583.3165    7.9360704    107.09274 
    5700   -609.07339    55.451732   -553.62166    1682.3266   -10419.219    7.8780679    108.37342 
    5800   -609.02472    56.615014   -552.40971    1717.6189   -6129.3083     7.852909    112.46708 
    5900   -603.12543    61.143158   -541.98228    1854.9963   -5674.1479    7.7686213     114.5869 
    6000    -606.4894    59.071792   -547.41761     1792.154    201.20648    7.9477491    113.50923 
    6100   -610.84682    60.580153   -550.26667    1837.9155   -938.54408    7.9987239    114.84514 
    6200   -616.58086    55.643866   -560.93699    1688.1556    7191.4082    8.2976973    114.60415 
    6300   -612.09243     60.45908   -551.63335    1834.2423   -1547.6966    8.0300037    118.81988 
    6400   -610.48492    60.931672   -549.55325    1848.5801    -392.1119    8.0349058    121.90327 
    6500   -611.17377    53.808502   -557.36527    1632.4733    5268.9361    8.1119233    124.47418 
    6600   -611.57999    60.990496    -550.5895    1850.3647    4771.8159    8.1152939    126.01482 
    6700   -615.70329    63.449821   -552.25347    1924.9772    -4330.865    8.1225721    131.31846 
    6800   -617.19888    60.334853   -556.86403    1830.4735   -900.85864    8.0636502    133.54713 
    6900   -610.41224    61.873024   -548.53922    1877.1394    12048.875    8.1149016    135.36948 
    7000   -613.47886    67.032071   -546.44679    2033.6575    1619.6002    8.0652911    135.45841 
    7100   -613.80017     58.34737    -555.4528    1770.1761    7198.1238    8.1830142    137.71817 
    7200   -614.18603    65.337472   -548.84856    1982.2458    1879.9293    8.1464334    140.76575 
    7300     -610.852    54.690792   -556.16121    1659.2407   -4168.7279    7.9084588    145.98348 
    7400   -612.25348    60.248877    -552.0046    1827.8651   -4746.9469      8.02723    147.03198 
    7500   -608.52433    61.331657   -547.19267    1860.7151    -1195.673    7.9884054    149.88257 
    7600   -601.12169    56.230945   -544.89074    1705.9667    404.90405    7.8498302     154.7634 
    7700   -606.11183    55.013011   -551.09882    1669.0164   -5592.4912    7.8754212    154.56907 
    7800   -613.82585    55.589299   -558.23655    1686.5001    -4234.953    8.0387605    153.19172 
    7900   -613.74609    56.699102   -557.04699      1720.17     5383.601    8.1727168     155.4273 
    8000   -607.62889    60.077351   -547.55154    1822.6612    378.35216    7.9917945    161.61993 
    8100   -608.21416    60.650887   -547.56328    1840.0615    1207.0894    7.9595743     162.2918 
    8200   -610.66879    53.808507   -556.86028    1632.4734    203.06013    8.0689185    164.52652 
    8300   -612.52572    54.471626    -558.0541    1652.5915    2024.7538    8.1312632     167.4086 
    8400   -608.86263    60.367607   -548.49502    1831.4672   -12327.516    7.8981698    173.19552 
    8500   -609.01915    55.526252    -553.4929    1684.5874   -5820.6232    7.9469511    173.97317 
    8600   -609.14661    61.427885   -547.71873    1863.6345    2757.0928     7.990082    176.99906 
    8700    -607.6794    60.183212   -547.49619    1825.8729   -2754.6278    7.9699733    181.59828 
    8800   -608.55148    57.999596   -550.55189    1759.6251    1256.6232    7.9706936    184.52745 
    8900   -609.05124    59.792582   -549.25866    1814.0218   -7406.6068    7.9087717    189.33513 
    9000   -612.62106    52.939105   -559.68196     1606.097   -6410.5849    7.9954909    189.36013 
    9100   -609.64169    58.666577   -550.97511    1779.8604   -4326.9801    7.9185454    190.92921 
    9200   -608.46846    61.105039   -547.36342    1853.8398    1985.6435    7.9712638    193.67443 
    9300   -604.54077     55.81833   -548.72244    1693.4486    1094.4867    7.7483951    199.18134 
    9400   -601.14208    61.812357   -539.32972    1875.2988    614.32582    7.7913045    200.37168 
    9500   -606.76918     59.31456   -547.45462    1799.5192   -7600.1848    7.8135702    201.12481 
    9600   -608.53461    58.567638   -549.96697    1776.8587   -6346.7996    7.9387767    202.14644 
    9700   -606.98504    61.702921   -545.28212    1871.9787    737.92978    7.9067491    204.57219 
    9800   -610.49068    54.555486   -555.93519    1655.1357    -5159.335    7.9200949    207.09169 
    9900   -609.49848    60.379673   -549.11881    1831.8332   -2948.6115    7.9952266    208.85124 
   10000   -613.07227    59.522272      -553.55    1805.8209   -3557.8162    8.0294274    209.94619 
Loop time of 6.03176 on 1 procs for 10000 steps with 256 atoms

Performance: 716.209 ns/day, 0.034 hours/ns, 1657.892 timesteps/s
100.2% CPU use with 1 MPI tasks x no OpenMP threads

MPI task timing breakdown:
Section |  min time  |  avg time  |  max time  |%varavg| %total
---------------------------------------------------------------
Pair    | 3.538      | 3.538      | 3.538      |   0.0 | 58.66
Neigh   | 0.3161     | 0.3161     | 0.3161     |   0.0 |  5.24
Comm    | 0.079445   | 0.079445   | 0.079445   |   0.0 |  1.32
Output  | 0.0029459  | 0.0029459  | 0.0029459  |   0.0 |  0.05
Modify  | 2.0801     | 2.0801     | 2.0801     |   0.0 | 34.49
Other   |            | 0.01514    |            |       |  0.25

Nlocal:    256 ave 256 max 256 min
Histogram: 1 0 0 0 0 0 0 0 0 0
Nghost:    1345 ave 1345 max 1345 min
Histogram: 1 0 0 0 0 0 0 0 0 0
Neighs:    10184 ave 10184 max 10184 min
Histogram: 1 0 0 0 0 0 0 0 0 0

Total # of neighbors = 10184
Ave neighs/atom = 39.7812
Neighbor list builds = 622
Dangerous builds = 0
Total wall time: 0:00:06
