LAMMPS (3 Mar 2020)

    # ---------- Initialize simulation ---------------------
    units metal
    atom_style atomic
    dimension  3
    boundary   p p p
    read_data /home/modeler/RemLabs/Lab4/Problem2A_size_4/temp_1460/lammps.data
  orthogonal box = (0 0 0) to (16.36 16.36 16.36)
  1 by 1 by 1 MPI processor grid
  reading atoms ...
  256 atoms
  read_data CPU = 0.00101085 secs

    pair_style eam
    pair_coeff * * /usr/share/lammps-stable/potentials/Ag_u3.eam
Reading potential file /usr/share/lammps-stable/potentials/Ag_u3.eam with DATE: 2007-06-11

    velocity  all create 1460 87287 dist gaussian

    # ---------- Describe computed properties------------------
    compute msdall all msd
    thermo_style custom step pe ke etotal temp press density c_msdall[4]
    thermo 100

    # ---------- Specify ensemble  ---------------------
    #fix  1 all nve
    fix  1 all nvt temp 1460 1460 0.05

    # --------- Compute RDF ---------------
    compute rdfall all rdf 100 1 1
    fix 2 all ave/time 1 2500 2500 c_rdfall[*] file /home/modeler/RemLabs/Lab4/Problem2A_size_4/temp_1460/lammps.rdf mode vector

    # --------- Run -------------
    timestep 0.001
    run 10000
Neighbor list info ...
  update every 1 steps, delay 10 steps, check yes
  max neighbors/atom: 2000, page size: 100000
  master list distance cutoff = 7.55
  ghost atom cutoff = 7.55
  binsize = 3.775, bins = 5 5 5
  2 neighbor lists, perpetual/occasional/extra = 1 1 0
  (1) pair eam, perpetual
      attributes: half, newton on
      pair build: half/bin/atomonly/newton
      stencil: half/bin/3d/newton
      bin: standard
  (2) compute rdf, occasional, copy from (1)
      attributes: half, newton on
      pair build: copy
      stencil: none
      bin: none
Per MPI rank memory allocation (min/avg/max) = 3.744 | 3.744 | 3.744 Mbytes
Step PotEng KinEng TotEng Temp Press Density c_msdall[4] 
       0       -729.6    48.123552   -681.47645         1460    11738.828    10.472245            0 
     100   -700.65145    29.867641   -670.78381    906.14168    48860.857    10.472245  0.085076046 
     200   -689.00215    42.780987   -646.22116    1297.9142    69152.817    10.472245   0.11434706 
     300   -676.04463    50.639063   -625.40556     1536.317    86959.867    10.472245   0.15243915 
     400   -672.86328    48.594869   -624.26841    1474.2991    91388.494    10.472245   0.14889235 
     500   -685.71688    47.094908   -638.62198    1428.7924     73874.09    10.472245   0.10837333 
     600   -687.01979    45.959207   -641.06058    1394.3369    72187.808    10.472245  0.097380755 
     700   -682.88303    52.944195   -629.93884    1606.2514    79550.249    10.472245   0.10887269 
     800     -679.335    45.908626   -633.42637    1392.8023    82293.952    10.472245   0.13259914 
     900   -684.40714      51.4402   -632.96694    1560.6224    76631.675    10.472245   0.13394859 
    1000    -680.3418     48.30736   -632.03444    1465.5765    82524.068    10.472245   0.13893298 
    1100   -680.81449    51.837308   -628.97718    1572.6701    82296.946    10.472245   0.11508264 
    1200    -681.2439    45.555408   -635.68849    1382.0862    80487.116    10.472245   0.11890112 
    1300   -679.34489    47.560769   -631.78412     1442.926    83631.178    10.472245   0.13045377 
    1400   -679.19747    48.315855   -630.88161    1465.8342    84015.799    10.472245   0.13430596 
    1500   -684.13427    49.948809   -634.18546    1515.3757    77831.203    10.472245   0.11565632 
    1600   -682.18938    43.912061   -638.27732    1332.2294    79066.615    10.472245   0.11843492 
    1700   -678.24556    46.977847   -631.26771    1425.2409    84572.681    10.472245   0.12640722 
    1800   -677.85387    49.507551   -628.34632    1501.9886    85315.208    10.472245   0.12687379 
    1900   -684.76191    48.625859   -636.13605    1475.2393    75745.719    10.472245   0.10699067 
    2000   -683.81375    45.508903   -638.30485    1380.6753    76719.347    10.472245   0.10354422 
    2100   -679.70099    48.835982     -630.865    1481.6141    83403.703    10.472245    0.1145953 
    2200   -679.59728    48.267046   -631.33024    1464.3534    83520.102    10.472245   0.12247882 
    2300   -685.46678    46.251791   -639.21499    1403.2135    74885.568    10.472245   0.11252202 
    2400   -677.14684    48.243532   -628.90331      1463.64    85790.236    10.472245   0.12341569 
    2500   -678.37554    46.641239    -631.7343    1415.0287     85030.67    10.472245   0.12398754 
    2600   -681.69161    47.807413    -633.8842    1450.4088    80454.401    10.472245   0.11407209 
    2700   -679.73009    40.718104   -639.01198    1235.3293    82173.173    10.472245   0.12183339 
    2800    -681.1622    48.495592    -632.6666    1471.2872    80918.602    10.472245   0.12035921 
    2900   -678.37274    47.054789   -631.31795    1427.5753    84198.325    10.472245   0.12622771 
    3000   -683.09496    53.603474   -629.49148     1626.253     80017.92    10.472245   0.12095002 
    3100   -682.86214    49.103588   -633.75855    1489.7329    78434.272    10.472245   0.12723175 
    3200   -681.04628    51.926466   -629.11981     1575.375    81397.386    10.472245   0.12244111 
    3300   -683.01782    48.740134   -634.27768    1478.7062    78909.633    10.472245   0.12162535 
    3400   -682.74007    48.348536   -634.39153    1466.8257    78985.987    10.472245   0.10761972 
    3500   -685.50338    47.866302   -637.63708    1452.1954    74931.096    10.472245   0.10490803 
    3600   -684.56236    48.985705   -635.57665    1486.1565    76699.379    10.472245   0.11887248 
    3700   -680.02343    49.421831    -630.6016    1499.3879    82319.884    10.472245   0.12298613 
    3800   -683.32423    47.698345   -635.62588    1447.0998    77782.447    10.472245    0.1078349 
    3900    -684.7604    45.098796    -639.6616    1368.2332    75258.785    10.472245   0.10303007 
    4000   -682.89933    48.561358   -634.33797    1473.2824    79011.291    10.472245   0.10409242 
    4100   -679.80931     45.13417   -634.67514    1369.3064    82121.279    10.472245   0.11403883 
    4200   -681.08023    49.828938   -631.25129     1511.739    81301.242    10.472245   0.11270336 
    4300   -685.59157     47.93279   -637.65878    1454.2125    76220.818    10.472245   0.10955708 
    4400   -681.78101     49.00377   -632.77724    1486.7046    80155.482    10.472245   0.11151178 
    4500   -684.43446    50.522172   -633.91229    1532.7707    77346.884    10.472245   0.10898687 
    4600   -682.28587    49.877401   -632.40847    1513.2093    79087.262    10.472245    0.1267342 
    4700   -679.95048    49.119392   -630.83109    1490.2124    83027.102    10.472245   0.13065324 
    4800   -683.14815    50.536277   -632.61187    1533.1986     79095.87    10.472245   0.11624321 
    4900   -684.91529    45.749641   -639.16565    1387.9789    75029.717    10.472245   0.10720292 
    5000   -684.21815    49.149109   -635.06904    1491.1139    77092.674    10.472245   0.11063145 
    5100   -680.09235    46.244543   -633.84781    1402.9935    81407.972    10.472245   0.11897273 
    5200   -679.65341    45.918604    -633.7348     1393.105    82082.351    10.472245   0.12648122 
    5300   -681.38353    48.565548   -632.81798    1473.4095    80558.347    10.472245    0.1238815 
    5400   -683.75758     50.37765   -633.37993    1528.3861    78190.524    10.472245   0.12307783 
    5500   -681.18764    48.014897   -633.17275    1456.7036    81310.437    10.472245   0.11794965 
    5600   -678.71138    41.151199   -637.56018    1248.4687    81950.868    10.472245   0.12806613 
    5700   -682.84184    48.977617   -633.86422    1485.9111    78627.089    10.472245   0.12166672 
    5800   -682.30495    49.396309   -632.90864    1498.6136     79669.42    10.472245   0.12638718 
    5900   -679.33177    51.167843   -628.16393    1552.3594    83822.943    10.472245   0.12614287 
    6000   -681.92436    47.440563    -634.4838    1439.2791    79520.482    10.472245   0.12668719 
    6100   -680.82732    48.068546   -632.75878    1458.3312    80961.602    10.472245   0.12443786 
    6200   -682.29278    45.396199   -636.89658     1377.256    79085.001    10.472245   0.12581647 
    6300   -684.47512    47.440161   -637.03496    1439.2669    76396.572    10.472245   0.10710503 
    6400   -682.03415    48.179464   -633.85469    1461.6963    79715.068    10.472245   0.11156593 
    6500   -682.61131    43.574679   -639.03663    1321.9937    77520.318    10.472245   0.12487106 
    6600   -682.35707    49.672863   -632.68421    1507.0039    79690.688    10.472245   0.12043558 
    6700   -680.17375    48.920891   -631.25285    1484.1901    83065.884    10.472245   0.11561766 
    6800   -685.44277    48.237691   -637.20508    1463.4628    74770.384    10.472245   0.10298063 
    6900   -682.85558    45.515092   -637.34049    1380.8631    77512.516    10.472245   0.10839619 
    7000   -681.53966     49.34795   -632.19171    1497.1465    80013.919    10.472245   0.11306063 
    7100   -684.17098    49.332571    -634.8384    1496.6799    77947.536    10.472245   0.11182364 
    7200   -685.73738    46.254796   -639.48258    1403.3046    73668.806    10.472245   0.11498446 
    7300    -680.3956    50.022395   -630.37321    1517.6082    81994.831    10.472245   0.11202285 
    7400   -683.00878    46.221759   -636.78702    1402.3023    78090.097    10.472245   0.11524469 
    7500   -681.46229    48.901417   -632.56087    1483.5993    81740.628    10.472245   0.11981394 
    7600    -678.2354    45.909098    -632.3263    1392.8166    84677.589    10.472245   0.13512894 
    7700   -681.60396    50.787389   -630.81657     1540.817    81365.581    10.472245   0.11389477 
    7800   -681.73191    43.329319   -638.40259    1314.5498    78448.295    10.472245   0.11451014 
    7900    -679.3868    46.992335   -632.39447    1425.6805    82674.378    10.472245   0.11576322 
    8000   -682.89451    48.152127   -634.74239    1460.8669    78011.014    10.472245   0.10643957 
    8100   -681.94257    48.175226   -633.76735    1461.5677    80078.201    10.472245   0.11354699 
    8200   -681.47265    47.606749    -633.8659    1444.3209     80507.34    10.472245   0.12198396 
    8300    -679.2727    50.432892   -628.83981    1530.0621    84497.055    10.472245   0.12218034 
    8400   -679.87039    44.916669   -634.95373    1362.7077    81555.116    10.472245   0.13053327 
    8500   -680.77684    48.082731   -632.69411    1458.7615    81248.659    10.472245   0.12838487 
    8600   -677.76078    51.745801   -626.01498    1569.8939    85906.988    10.472245   0.13814711 
    8700   -679.32444    49.198859   -630.12558    1492.6233      83997.9    10.472245   0.12906401 
    8800   -683.27921    47.099802    -636.1794    1428.9409    77866.617    10.472245   0.11214143 
    8900   -682.36286    48.929997   -633.43286    1484.4664    80021.346    10.472245   0.11324052 
    9000   -680.87961    50.676103    -630.2035    1537.4408    81875.546    10.472245   0.11955055 
    9100   -680.33275    45.279141   -635.05361    1373.7046    81307.007    10.472245   0.11929707 
    9200   -682.02923    42.567978   -639.46125    1291.4518    78695.932    10.472245   0.11357611 
    9300   -680.73372    47.711472   -633.02225    1447.4981    82143.852    10.472245   0.10585311 
    9400   -683.75686    49.246368   -634.51049    1494.0646    77808.793    10.472245   0.10127608 
    9500   -683.45511    46.754172   -636.70094     1418.455    77411.803    10.472245   0.11435558 
    9600   -676.72317    50.862256   -625.86091    1543.0884    87818.548    10.472245   0.14101492 
    9700   -680.83475    53.461407   -627.37334    1621.9429    83118.818    10.472245   0.12886711 
    9800   -683.82225    47.184727   -636.63752    1431.5174    76637.241    10.472245   0.10826613 
    9900   -685.26562    51.394585   -633.87104    1559.2385    76134.021    10.472245   0.10490019 
   10000   -683.28137    45.928626   -637.35275    1393.4091    77046.515    10.472245   0.13212593 
Loop time of 6.52756 on 1 procs for 10000 steps with 256 atoms

Performance: 132.362 ns/day, 0.181 hours/ns, 1531.965 timesteps/s
100.0% CPU use with 1 MPI tasks x no OpenMP threads

MPI task timing breakdown:
Section |  min time  |  avg time  |  max time  |%varavg| %total
---------------------------------------------------------------
Pair    | 4.1439     | 4.1439     | 4.1439     |   0.0 | 63.48
Neigh   | 0.035837   | 0.035837   | 0.035837   |   0.0 |  0.55
Comm    | 0.06381    | 0.06381    | 0.06381    |   0.0 |  0.98
Output  | 0.0027158  | 0.0027158  | 0.0027158  |   0.0 |  0.04
Modify  | 2.2649     | 2.2649     | 2.2649     |   0.0 | 34.70
Other   |            | 0.01639    |            |       |  0.25

Nlocal:    256 ave 256 max 256 min
Histogram: 1 0 0 0 0 0 0 0 0 0
Nghost:    1431 ave 1431 max 1431 min
Histogram: 1 0 0 0 0 0 0 0 0 0
Neighs:    13017 ave 13017 max 13017 min
Histogram: 1 0 0 0 0 0 0 0 0 0

Total # of neighbors = 13017
Ave neighs/atom = 50.8477
Neighbor list builds = 64
Dangerous builds = 0
    
Total wall time: 0:00:06
