Header of the LAMMPS data file 

9 atoms 
2 atom types

0.0 6.4012  xlo xhi
0.0 6.4012  ylo yhi
0.0 6.4012  zlo zhi

Masses 

1  6.94
2  28.085

Atoms # atomic 

1 2 0.00000 0.00000 0.00000 
2 2 0.00000 3.20060 3.20060 
3 2 3.20060 3.20060 0.00000 
4 2 3.20060 0.00000 3.20060 
5 2 4.80090 1.60030 4.80090 
6 2 1.60030 1.60030 1.60030 
7 2 1.60030 4.80090 4.80090 
8 2 4.80090 4.80090 1.60030 
9 1 3.20060 3.20060 3.20060 
