LAMMPS (3 Mar 2020)
Reading data file ...
  orthogonal box = (0 0 0) to (16.36 16.36 16.36)
  1 by 1 by 1 MPI processor grid
  reading atoms ...
  256 atoms
  read_data CPU = 0.00105937 secs
Reading potential file /usr/share/lammps-stable/potentials/Ag_u3.eam with DATE: 2007-06-11
Neighbor list info ...
  update every 1 steps, delay 10 steps, check yes
  max neighbors/atom: 2000, page size: 100000
  master list distance cutoff = 7.55
  ghost atom cutoff = 7.55
  binsize = 3.775, bins = 5 5 5
  2 neighbor lists, perpetual/occasional/extra = 1 1 0
  (1) pair eam, perpetual
      attributes: half, newton on
      pair build: half/bin/atomonly/newton
      stencil: half/bin/3d/newton
      bin: standard
  (2) compute rdf, occasional, copy from (1)
      attributes: half, newton on
      pair build: copy
      stencil: none
      bin: none
Setting up Verlet run ...
  Unit style    : metal
  Current step  : 0
  Time step     : 0.005
Per MPI rank memory allocation (min/avg/max) = 3.744 | 3.744 | 3.744 Mbytes
Step PotEng KinEng TotEng Temp Press Density c_msdall[4] 
       0       -729.6    34.939017   -694.66098         1060    8522.6945    10.472245            0 
     100   -709.20347    18.074527   -691.12895    548.35539   -13389.697    9.9707115  0.063396091 
     200   -708.13465    20.169556    -687.9651    611.91558    6104.9735    10.151855  0.063627123 
     300   -707.25554    22.383173   -684.87236    679.07358   -5006.5396    10.013186  0.070789954 
     400   -706.28788    24.381151   -681.90673    739.68939   -2495.4685    10.023519  0.073611618 
     500   -702.80551    23.801945   -679.00356     722.1171    2965.0883    10.022149  0.084530347 
     600   -700.60063    24.610885   -675.98974    746.65917   -4191.5523    9.9128886   0.10249935 
     700   -699.97342    26.878505   -673.09491    815.45554      5250.85    9.9941309  0.099556307 
     800   -698.34991    28.147493   -670.20241    853.95484   -5864.7216    9.8478012   0.10813813 
     900   -695.59276     28.24789   -667.34487    857.00074   -316.46507    9.8587247   0.11038896 
    1000   -696.07917    31.550315   -664.52886    957.19161    138.17515    9.8655994   0.11832177 
    1100   -693.04234    31.181296   -661.86105    945.99611    3330.5526     9.857428   0.13857435 
    1200   -690.86267    31.659321   -659.20335    960.49869   -11692.411    9.6518231   0.15244992 
    1300   -691.16602    34.549241   -656.61678    1048.1747    3630.1219    9.8148436   0.14656943 
    1400    -691.4009    37.823381   -653.57752    1147.5075    -2224.498    9.7480316   0.14257925 
    1500   -689.53178    37.135965   -652.39582    1126.6523     -6197.33    9.6663274   0.16434143 
    1600    -689.6694    33.338056   -656.33135    1011.4291    4485.2019    9.7856337   0.15613457 
    1700   -690.86667    34.319962   -656.54671    1041.2188   -5355.2423    9.7179118   0.14489403 
    1800   -688.21771    35.830598   -652.38712    1087.0493    649.97167    9.7274804   0.17242584 
    1900   -686.88349    35.243979   -651.63951    1069.2521    2105.2566    9.7196266   0.16191108 
    2000   -690.37779    32.425215   -657.95258    983.73483    998.56017    9.7690746   0.13052837 
    2100   -687.91352      34.5251   -653.38842    1047.4423    5472.0015    9.7677107   0.15865995 
    2200   -687.73472    37.143911   -650.59081    1126.8933   -1596.2361    9.6988415   0.16012718 
    2300    -689.7721    35.707326   -654.06477    1083.3094    1891.7737    9.7594266   0.14802394 
    2400   -690.41982    31.888596   -658.53123    967.45457   -8520.9918    9.6734501   0.15416789 
    2500   -687.32934    35.456826   -651.87252    1075.7096    4350.0561    9.7456045   0.15942155 
    2600   -687.81411    36.284811    -651.5293    1100.8295     7536.743    9.7883213    0.1547274 
    2700   -686.42785    31.344592   -655.08326    950.95025   -9823.2049    9.5879114   0.18485176 
    2800   -690.49925    35.729616   -654.76963    1083.9856    5851.7612    9.8125653   0.15336227 
    2900   -685.05612    35.621097   -649.43503    1080.6933    5560.7975    9.7233741   0.18073859 
    3000   -688.23856    34.569958    -653.6686    1048.8033   -7104.7286    9.6376046   0.16426859 
    3100   -691.86894    35.786055   -656.08289    1085.6979    3640.9433    9.8212302   0.13715774 
    3200   -685.45183    35.464686   -649.98714     1075.948   -360.70813    9.6767722   0.16324454 
    3300    -686.5218    34.053934   -652.46787    1033.1478   -4355.6978    9.6417674   0.17345351 
    3400   -689.20264     32.95977   -656.24287    999.95246   -115.94848    9.7414358   0.17015618 
    3500   -686.63278    36.009783   -650.62299    1092.4855    4209.4009    9.7359056   0.15581681 
    3600    -687.0883    34.626504    -652.4618    1050.5188    -3476.691    9.6706451   0.16939193 
    3700   -690.46904    34.519589   -655.94945    1047.2751   -912.07913    9.7510507   0.15722095 
    3800   -686.43431    36.024584   -650.40972    1092.9345    1218.4572    9.6896016   0.17078008 
    3900   -685.92493    35.178074   -650.74685    1067.2526   -11619.786    9.5542822    0.1906619 
    4000    -689.8311    33.693989   -656.13711    1022.2276    7966.6709    9.8403876   0.14034023 
    4100   -689.74914    37.363424   -652.38571     1133.553   -4156.7718    9.6988627   0.17299232 
    4200   -682.65426    32.307082   -650.34718    980.15084    4648.8138    9.6805412   0.17718393 
    4300   -689.73178    33.473924   -656.25785    1015.5512    876.07806    9.7450663   0.15606071 
    4400   -687.53074    34.582727   -652.94801    1049.1907   -1831.9665    9.6852895   0.14851675 
    4500   -687.01318    36.564539   -650.44864     1109.316   -2921.1277    9.6626608   0.17483634 
    4600   -689.43865    33.249917   -656.18873    1008.7551    2781.5386    9.7826511   0.16999621 
    4700   -689.04734    34.924585   -654.12276    1059.5622   -2405.9028    9.7072438   0.15735748 
    4800   -687.97505    37.591482   -650.38356     1140.472   -5645.5538    9.6532378   0.19268312 
    4900   -687.52612    32.066226   -655.45989    972.84362    999.82344    9.7251821   0.16835319 
    5000   -688.88283    34.242344   -654.64049    1038.8639    7731.3944    9.8145604   0.14627113 
    5100   -684.74157     34.62856   -650.11301    1050.5812   -1721.9154    9.6547493   0.20464432 
    5200   -687.78038    34.650525   -653.12985    1051.2476    -4349.242    9.6751625   0.17120342 
    5300   -690.52561     34.76957   -655.75604    1054.8592    6382.1244    9.8404489   0.13699754 
    5400   -686.80418    36.599652   -650.20452    1110.3813   -10123.047    9.5735544   0.17626496 
    5500   -688.56565    36.912735   -651.65291    1119.8798    2808.6987    9.7621028   0.14481506 
    5600   -689.66184    33.975319   -655.68652    1030.7628    3015.5584    9.7750744   0.13740481 
    5700   -686.81257    34.669256   -652.14332    1051.8158   -4820.9167    9.6323903   0.17712605 
    5800   -684.99484    36.674655   -648.32018    1112.6568    734.30637    9.6717845   0.19827401 
    5900   -688.32808    33.162302   -655.16578     1006.097    3820.8045    9.7594491   0.14232887 
    6000    -689.8739    34.678155   -655.19575    1052.0858   -5481.2524    9.6855494   0.15983542 
    6100   -684.81797    35.249161   -649.56881    1069.4093    5248.0574    9.7232601   0.16140157 
    6200   -688.77894    35.198798   -653.58014    1067.8814     2026.687    9.7523303   0.15051812 
    6300   -689.89223    33.561054   -656.33118    1018.1946   -3058.5495    9.7185029   0.14674661 
    6400   -685.80283    36.275772   -649.52706    1100.5552   -660.68836    9.6754398   0.17571833 
    6500   -690.73738    39.873351   -650.86403    1209.7007   -773.61193    9.7509199   0.15795141 
    6600   -689.18476    33.876109   -655.30865    1027.7529   -4107.8603    9.7076012   0.15955706 
    6700    -686.2551    35.032861   -651.22224    1062.8471   -6182.5695    9.6238342   0.20030888 
    6800   -685.81129    36.883516   -648.92778    1118.9933    12500.984     9.804428   0.16307972 
    6900   -688.09209    33.309065   -654.78303    1010.5496     -2890.59    9.6868223   0.15926982 
    7000   -686.86763    33.461497   -653.40614    1015.1741   -623.34823    9.6980904   0.15485786 
    7100   -684.20117    36.433865   -647.76731    1105.3516    2947.9448    9.6940813   0.18075042 
    7200    -687.4898    33.919679   -653.57012    1029.0747   -1117.7997    9.7035129   0.17641883 
    7300   -688.31559    33.521835   -654.79375    1017.0047   -712.61846    9.7158667   0.16043415 
    7400   -685.51689    36.106451   -649.41044    1095.4183   -2559.0402    9.6427353   0.18090038 
    7500   -686.86786    35.795211   -651.07265    1085.9757    1221.6708    9.7224721   0.17567324 
    7600   -689.71791     34.92349   -654.79442    1059.5289    108.70941    9.7502525   0.16007171 
    7700   -687.93916    35.759774   -652.17939    1084.9006   -2576.2663    9.6895383   0.16560717 
    7800   -686.01721    37.030329   -648.98688    1123.4474    7129.4757    9.7562407   0.16319057 
    7900   -685.07564    35.348836   -649.72681    1072.4333   -5612.5623    9.6030442    0.1975247 
    8000   -685.50735    31.097017   -654.41033    943.43918   -9588.5613     9.577968   0.20723282 
    8100   -688.90263    36.176171   -652.72646    1097.5335    5239.6131    9.7855652   0.17936066 
    8200   -685.34515    36.383011   -648.96214    1103.8087    153.79595    9.6668873   0.17983053 
    8300   -686.93186    36.313839   -650.61802    1101.7101   -6677.6146    9.6157248   0.18568244 
    8400   -688.78566    33.438127   -655.34753    1014.4651    4034.7034    9.7767546   0.16029048 
    8500   -688.42458    35.362885   -653.06169    1072.8595    3076.0535    9.7602912   0.14594233 
    8600   -686.04837    33.778662   -652.26971    1024.7965   -4281.8678    9.6313867    0.1613657 
    8700   -690.34333    31.793762   -658.54957    964.57743    1455.8015    9.7802835   0.14263385 
    8800   -691.18478    35.524822   -655.65995    1077.7725    1835.2686    9.7900014   0.13756244 
    8900   -687.61163    34.880056   -652.73157    1058.2112   -1753.6549    9.6954333   0.16104927 
    9000   -687.76949    34.452341   -653.31715     1045.235   -4022.1595    9.6649522   0.16433272 
    9100   -685.25066     35.18412   -650.06654    1067.4361    10120.466      9.77691   0.16581889 
    9200   -681.94726    35.026349   -646.92091    1062.6495    452.47116    9.6320653   0.20621102 
    9300   -685.72936    34.355515   -651.37385    1042.2974   -7855.7221    9.5964268   0.20923559 
    9400   -688.75521    35.691321   -653.06389    1082.8238    10135.526    9.8358044   0.15462022 
    9500   -689.49561    32.526346   -656.96926    986.80299   -3575.3367    9.7052809   0.16842114 
    9600   -689.59218    31.584677    -658.0075    958.23408   -6748.0693    9.6875644   0.18102347 
    9700   -687.28551    34.601131   -652.68438     1049.749    8091.0953     9.795556   0.17097096 
    9800   -687.30045    34.493446   -652.80701     1046.482   -8675.9088    9.6178922   0.17790054 
    9900   -686.88196    33.332895   -653.54906    1011.2725    4867.5329    9.7557833   0.14914026 
   10000   -693.06595    33.730272   -659.33567    1023.3284   -903.57713     9.793669   0.13109455 
   10100   -688.37173    35.047661   -653.32407    1063.2961   -4317.8221    9.6790503   0.16205805 
   10200   -687.55964    35.667808   -651.89183    1082.1105    7343.4832    9.7865727   0.14431792 
   10300   -690.66831    35.844396   -654.82391    1087.4679   -4733.1554    9.7051654   0.14968984 
   10400   -692.82855    34.993469   -657.83508     1061.652    3651.7387      9.83556   0.12948776 
   10500   -685.95122    35.011257   -650.93997    1062.1917    2903.1208     9.719944   0.17450774 
   10600   -685.69021    33.719623   -651.97059    1023.0053   -8278.7981     9.585479   0.18288571 
   10700   -691.32639    37.442468   -653.88393    1135.9511    3474.6365     9.798246   0.13586098 
   10800   -691.84886    35.614611   -656.23425    1080.4965   -2590.6024    9.7452301   0.14427131 
   10900   -684.29989    35.343125   -648.95677    1072.2601   -4116.0542    9.6122754   0.18851479 
   11000   -686.30744    36.077976   -650.22946    1094.5544   -2334.4864     9.656019   0.16752619 
   11100    -690.1952    37.340011   -652.85519    1132.8427    3898.9294    9.7884032   0.13664121 
   11200    -691.4722    36.550054   -654.92214    1108.8766   -5728.1439    9.6990511   0.14931266 
   11300   -684.16923    35.549964   -648.61927    1078.5353   -3789.4835    9.6058064   0.17981678 
   11400   -688.04746    37.725636   -650.32182    1144.5421    1512.1847    9.7248332    0.1668769 
   11500   -687.23351    32.036381   -655.19713    971.93814   -2769.4228    9.6797785   0.18978912 
   11600   -689.22457    37.670839   -651.55373    1142.8796   -5235.0255    9.6711622   0.17597479 
   11700    -686.4491    37.964707   -648.48439    1151.7951   -1739.9661    9.6637716   0.17355287 
   11800   -687.95933    32.706354   -655.25298    992.26418   -1507.6435    9.7003214   0.15731157 
   11900   -689.19616    35.585976   -653.61019    1079.6278   -2879.7218    9.7022138   0.15602881 
   12000   -685.83902    37.552824    -648.2862    1139.2992    6088.3886    9.7475447   0.15879483 
   12100   -687.44467    34.918616   -652.52606     1059.381     4063.185    9.7524475   0.15672521 
   12200   -690.56409    34.910536   -655.65356    1059.1359   -4096.0515    9.7279936   0.15127747 
   12300   -686.46347    36.000727   -650.46274    1092.2108    10632.094    9.8039583   0.16031256 
   12400   -685.03208    33.244382    -651.7877    1008.5872   -8597.6045    9.5786383   0.20405604 
   12500    -688.1925       30.918    -657.2745    938.00805   -2385.2279    9.7020935   0.17597771 
   12600   -688.17167    36.158202   -652.01347    1096.9883    6434.9967     9.785452   0.16604595 
   12700   -686.17768    34.788682     -651.389     1055.439   -7356.1688    9.6099595   0.18970438 
   12800   -689.38072    32.623039   -656.75768    989.73653    1550.2473     9.764521   0.15657142 
   12900   -685.38017    33.335058   -652.04511    1011.3382    4643.6514    9.7246365   0.16863569 
   13000   -687.92864     36.34413   -651.58451    1102.6291   -3044.0428    9.6832744   0.16249183 
   13100   -688.98382    33.501904   -655.48191       1016.4    864.07323     9.751617   0.15301673 
   13200    -685.1946    33.018832   -652.17576    1001.7443   -4031.9794    9.6343899   0.18229931 
   13300   -683.66334    34.135617   -649.52773     1035.626    5620.1746    9.7058056   0.17319369 
   13400   -689.50202    36.085097   -653.41693    1094.7704    6959.0724    9.8134278   0.15135714 
   13500   -687.62167    32.127506   -655.49416    974.70277   -4761.3765    9.6577681   0.19456693 
   13600   -684.26234    35.607246    -648.6551    1080.2731   -1549.9328    9.6445132   0.18730971 
   13700   -686.07963     35.18876   -650.89087    1067.5768   -1285.3021    9.6760658   0.18088978 
   13800   -688.45912    33.533634   -654.92549    1017.3627   -3357.1401    9.6819028   0.15587132 
   13900   -688.13491    34.956413    -653.1785    1060.5278     5431.549    9.7625812   0.15942571 
   14000   -689.85993    41.412365   -648.44756    1256.3922     4150.087    9.7752421   0.14394154 
   14100   -689.76338    36.747584   -653.01579    1114.8694    -14459.61    9.5902056   0.16635139 
   14200   -690.60595    36.528383   -654.07757    1108.2191    5985.9066    9.8278958   0.14801642 
   14300   -681.58458    32.633978    -648.9506    990.06841   -1391.2694    9.5965955   0.22068174 
   14400   -686.18261     35.82878   -650.35383    1086.9941   -3746.6375    9.6407929   0.18988646 
   14500   -690.83145    37.036643   -653.79481     1123.639    -760.4267    9.7632161   0.16515785 
   14600   -689.31781    36.890585   -652.42723    1119.2078    139.94106    9.7319638   0.14786662 
   14700   -685.68757    37.918448   -647.76913    1150.3917   -2612.9047      9.63992    0.1766251 
   14800   -687.55086    39.355922   -648.19494    1194.0026     2140.865    9.7211812   0.16044924 
   14900   -686.92134    34.284542    -652.6368    1040.1442   -8118.2141    9.6111328   0.17546232 
   15000   -690.49905     37.14563   -653.35342    1126.9455    346.67908    9.7625412   0.15211047 
   15100   -689.83605    34.595613   -655.24044    1049.5816    1305.7059    9.7663418   0.16067757 
   15200   -692.16333    31.078186   -661.08515    942.86788   -4756.4412    9.7466082   0.15060993 
   15300   -688.85961      34.5999   -654.25971    1049.7117    2161.6485    9.7621313   0.18077998 
   15400   -689.36146    36.613895   -652.74756    1110.8134   -2396.9293    9.7246224   0.17395764 
   15500    -685.7365    35.133572   -650.60293    1065.9025    6732.8938    9.7408842   0.17048398 
   15600   -688.29268    32.684713   -655.60797    991.60762   -586.59581    9.7175517   0.15673926 
   15700   -688.64352    32.269397   -656.37413    979.00752    2635.8688    9.7687792   0.14835329 
   15800   -689.77583     38.04593    -651.7299    1154.2593    1979.6706    9.7592029   0.14349913 
   15900   -687.77521    35.876709    -651.8985    1088.4482   -1102.6173    9.7011224   0.14964313 
   16000   -692.00456     33.72067   -658.28389    1023.0371    275.13149    9.7925859   0.14260564 
   16100   -688.62927    35.163573    -653.4657    1066.8127   -354.83491    9.7216455   0.16816762 
   16200   -687.91637    35.456661   -652.45971    1075.7046    535.77826    9.7123764   0.16410232 
   16300   -688.37603    33.112335    -655.2637    1004.5811    1109.3996    9.7356293   0.15376463 
   16400    -690.8021    30.957399    -659.8447    939.20337   -6132.9302    9.7060726   0.14619221 
   16500    -688.8105    35.003275   -653.80723    1061.9495     4974.167    9.8023149   0.16719016 
   16600    -687.5962    34.606983   -652.98921    1049.9266    1679.5691    9.7327509   0.15615673 
   16700   -687.89826    35.313408   -652.58485    1071.3585   -6978.4662    9.6363378   0.15132222 
   16800   -689.89171    38.199915    -651.6918     1158.931    10309.508    9.8531524   0.12786628 
   16900   -684.27535    38.631292   -645.64406    1172.0184   -1103.2528    9.6245397   0.18613924 
   17000    -685.4518    35.653585   -649.79821     1081.679   -9740.0066    9.5674895   0.19729786 
   17100   -690.05716    37.127304   -652.92986    1126.3895    63.738557    9.7507892   0.16135579 
   17200    -688.1907    35.290781   -652.89992     1070.672    451.92571    9.7277177   0.16695343 
   17300   -684.15483    34.755201   -649.39963    1054.4233    4569.3768    9.7048929   0.18627256 
   17400    -683.9929    39.124469   -644.86843    1186.9806   -11294.513    9.5115219   0.22124521 
   17500   -688.87644    36.410884   -652.46556    1104.6543    6976.4038    9.7985456   0.15153077 
   17600   -687.05188    34.518038   -652.53385    1047.2281   -3928.3804    9.6602201   0.17773637 
   17700   -689.13716    34.914866   -654.22229    1059.2673    -3763.311     9.701373   0.17196236 
   17800   -689.39341    32.761199   -656.63221    993.92808    11441.866    9.8770794   0.14323779 
   17900   -693.60906    31.663598   -661.94546    960.62846   -5420.6683    9.7638625   0.14348539 
   18000   -689.58608    34.330173   -655.25591    1041.5285   -3145.2429    9.7117593   0.15306688 
   18100   -689.37636    36.066828   -653.30953    1094.2162    6848.5586    9.8232376   0.14429828 
   18200   -687.76425    36.379755   -651.38449    1103.7099   -5391.8292    9.6596084   0.16793568 
   18300   -686.20301     34.74206   -651.46095    1054.0246    2978.2762    9.7235714   0.18405757 
   18400   -688.94163    30.620148   -658.32148    928.97168    18.588068     9.746684   0.16802993 
   18500   -690.04592    35.615209   -654.43071    1080.5147    4258.8224    9.8053523   0.15522879 
   18600   -688.80687    36.763243   -652.04362    1115.3444   -4642.9469    9.6842089   0.15965066 
   18700   -685.76259    31.847524   -653.91507    966.20849     2399.241    9.7076727   0.17103749 
   18800    -691.6658    32.556604   -659.10919    987.72098    2176.1596    9.8174008   0.14250128 
   18900   -687.11812     34.17476   -652.94336    1036.8135   -3009.0839     9.683158   0.17824589 
   19000   -688.25785    36.526298   -651.73155    1108.1558    4586.7307    9.7637975   0.15186383 
   19100   -689.17594    35.659192   -653.51675    1081.8491    4109.7312    9.7858165   0.14864136 
   19200   -690.29404    31.889356   -658.40468    967.47763   -7033.9651      9.68644   0.15886872 
   19300   -687.82899    35.319583    -652.5094    1071.5458   -2129.5052    9.6865103   0.16135147 
   19400   -687.57876    35.115839   -652.46292    1065.3645   -786.58912    9.6978213   0.19620498 
   19500   -689.03631    33.250891   -655.78542    1008.7847    -3856.556    9.7035591   0.17827209 
   19600   -692.34833    32.940244   -659.40809    999.36008    6352.7721    9.8706402   0.13949144 
   19700   -689.32912    36.117475   -653.21165    1095.7527   -8730.0262     9.638645   0.18349983 
   19800   -689.62766     36.98399   -652.64367    1122.0415    -2286.903    9.7295094   0.17650636 
   19900   -690.61724    35.731035    -654.8862    1084.0287    764.73331    9.7774944   0.14962464 
   20000   -693.50917    33.247899   -660.26127    1008.6939   -5793.3765    9.7495682    0.1370001 
   20100   -690.04979     36.53204   -653.51775      1108.33    2109.4208    9.7940303   0.15092981 
   20200   -688.38427    36.039799   -652.34447    1093.3961    632.64792    9.7336737   0.13783656 
   20300   -687.92788    33.173825   -654.75406    1006.4466   -5475.4125    9.6572331   0.14811623 
   20400   -692.09929    33.238674   -658.86061     1008.414    6226.1993    9.8593777   0.13194007 
   20500    -688.9786    36.878971   -652.09963    1118.8554   -3315.3586    9.6967665   0.15767374 
   20600   -689.58852    37.292694   -652.29582    1131.4072   -1949.0646    9.7180655     0.166371 
   20700   -688.92963    32.894076   -656.03556     997.9594    4634.2929    9.7876506   0.15693785 
   20800   -684.64681    33.483224   -651.16359    1015.8333   -36.968069    9.6567378   0.18769434 
   20900   -686.60629    37.484536   -649.12175    1137.2274   -4017.6264    9.6491586   0.19847387 
   21000   -691.73765    38.174985   -653.56267    1158.1747     4717.393    9.8320423   0.14415345 
   21100    -686.9418    31.757261   -655.18453    963.47004   -7479.2949    9.6267247   0.18655862 
   21200   -687.10892    37.865069   -649.24385    1148.7722   -9033.4694    9.5935041   0.18643934 
   21300   -688.09842    35.784881   -652.31354    1085.6623    7852.3645    9.8010544   0.15200334 
   21400   -690.10608    32.783651   -657.32243    994.60926   -2702.7764    9.7240065    0.1522726 
   21500   -686.37027    34.478701   -651.89157    1046.0347   -3930.9811    9.6436404   0.17707237 
   21600   -687.56166    37.127631   -650.43403    1126.3994    4294.1828    9.7498877   0.15625562 
   21700    -688.6446    32.982819   -655.66178    1000.6517    6444.1726    9.8094096   0.15263641 
   21800   -687.62825    35.636141   -651.99211    1081.1498   -11017.918    9.5855761   0.18203383 
   21900   -686.99384    36.708779   -650.28506     1113.692     1160.795    9.7077791   0.18131714 
   22000   -690.36579    35.199354   -655.16644    1067.8982    3387.3096    9.7916604   0.15286173 
   22100   -689.52252    35.473995   -654.04852    1076.2305   -10420.551    9.6344227   0.16979141 
   22200   -686.51002    36.844649   -649.66537    1117.8142     4874.063    9.7368177    0.1793898 
   22300   -688.21873    33.617578   -654.60116    1019.9094    66.688326    9.7306953   0.16137894 
   22400   -688.48646    32.790473   -655.69599    994.81624    1401.1328    9.7531563   0.16109715 
   22500   -686.53506    37.152704   -649.38236    1127.1601   -414.57686     9.682302   0.17710472 
   22600   -687.15987    34.185341   -652.97453    1037.1345    3543.2085    9.7355699   0.14900336 
   22700    -688.9929    33.737195    -655.2557    1023.5384     122.4102    9.7383339   0.15512689 
   22800    -683.9768    34.528282   -649.44851    1047.5389   -952.74307    9.6315853   0.17803011 
   22900   -686.86145     34.56676   -652.29469    1048.7062   -2876.0438    9.6675577   0.17287293 
   23000   -688.59552    32.652559   -655.94296     990.6321    1940.0399    9.7566237   0.14941212 
   23100   -685.35225    35.039786   -650.31247    1063.0572   -487.45987    9.6682602   0.17995373 
   23200   -685.56458    33.862911   -651.70167    1027.3525   -1340.6203    9.6711418   0.19194282 
   23300    -691.8973    35.341242   -656.55605    1072.2029    253.95173    9.7840093   0.14657744 
   23400   -685.41791    33.545853   -651.87206    1017.7334   -594.88252    9.6738487   0.17818371 
   23500    -687.4578    36.681297   -650.77651    1112.8583   -4354.3176    9.6692904   0.15881427 
   23600   -690.26918    35.066622   -655.20256    1063.8713    8345.1366    9.8538274   0.14479231 
   23700    -686.1512    34.552099    -651.5991    1048.2614   -5553.8528    9.6275539   0.19481558 
   23800   -685.35588    35.776835   -649.57904    1085.4182   -2326.8543    9.6564051   0.18654847 
   23900   -690.16854    34.862462   -655.30608    1057.6774    7255.2961    9.8368725    0.1471528 
   24000    -686.7101    33.723178   -652.98692    1023.1132   -2757.6476    9.6732431   0.20258432 
   24100    -687.4849    37.637473   -649.84742    1141.8673   -6476.5953    9.6349216   0.18204498 
   24200   -688.61614    32.921538    -655.6946    998.79257    5309.6137    9.7955146   0.15787806 
   24300   -688.52709    35.687145   -652.83994    1082.6971   -253.28096    9.7215292   0.16654588 
   24400   -685.52763    36.036268   -649.49136     1093.289    -2282.659    9.6519812   0.18159517 
   24500    -687.5941    32.194464   -655.39964    976.73416    7922.4607    9.7939142   0.17634161 
   24600   -687.94423    33.780596   -654.16364    1024.8552   -2749.8914    9.6931505   0.18668796 
   24700   -687.77241    38.532307    -649.2401    1169.0153   -4170.6866    9.6524892   0.16818269 
   24800   -686.94391    32.471624   -654.47229     985.1428    3979.8995     9.755719   0.16662988 
   24900   -690.00978    35.470602   -654.53918    1076.1275   -10141.941    9.6438962    0.1655402 
   25000   -684.62426     36.31591   -648.30835     1101.773     7812.728    9.7457438   0.19254698 
   25100   -687.61752    34.453846   -653.16367    1045.2806    3291.8927    9.7410857    0.1602411 
   25200   -690.16146    35.665092   -654.49637    1082.0281    3198.2146    9.7826139   0.14695832 
   25300   -687.24402    36.828511   -650.41551    1117.3245   -10347.665    9.5957387   0.19661701 
   25400    -686.3155    37.829282   -648.48622    1147.6865     -3617.49    9.6384712   0.18812708 
   25500   -688.30578    33.704607   -654.60118    1022.5497   -566.13431     9.719461   0.17104829 
   25600   -687.12907    34.352658   -652.77641    1042.2107   -2126.6653    9.6848937   0.16277887 
   25700   -687.35356    40.679358    -646.6742    1234.1538   -1024.2757    9.6833543   0.17661558 
   25800   -686.17247    33.971655   -652.20081    1030.6516    6900.9958    9.7661462    0.1856943 
   25900   -684.71081    30.865895   -653.84492    936.42727   -7119.9791    9.6015708    0.2096314 
   26000   -687.25928    34.850696   -652.40858    1057.3205    5776.4297    9.7761324   0.17273518 
   26100   -683.14991    36.770215   -646.37969    1115.5559    3857.8641    9.6777975   0.19036926 
   26200    -688.6429    35.117217   -653.52568    1065.4063   -10972.277    9.6176119   0.17860483 
   26300   -689.13558    35.518655   -653.61693    1077.5854    4002.3424    9.7779812   0.15634823 
   26400   -685.58891    34.402285   -651.18662    1043.7163    6743.9197    9.7546525   0.16365799 
   26500   -686.68987    39.608133   -647.08174    1201.6543   -71.392718    9.6848078   0.18189931 
   26600   -684.45763      37.9803   -646.47733    1152.2682   -6785.2258    9.5797778   0.21049139 
   26700    -685.5494    33.201227   -652.34818    1007.2779   -1701.0697     9.660716   0.19171031 
   26800   -689.90916    38.106907   -651.80225    1156.1093     8719.747    9.8306851    0.1429451 
   26900   -688.43027     34.19008   -654.24019    1037.2783   -4429.6037    9.6974321   0.17180603 
   27000   -690.43485    31.068332   -659.36652    942.56894   -5782.7227     9.706291    0.1479378 
   27100   -689.65148    37.509051   -652.14243    1137.9712      4804.87     9.786304   0.14383659 
   27200   -688.11116    35.335256    -652.7759    1072.0213    1399.3394    9.7424813   0.15426225 
   27300   -686.58825    32.705742   -653.88251    992.24562   -8447.9922    9.6078959   0.18587208 
   27400   -687.72196    36.396738   -651.32523    1104.2252    6037.3792    9.7788934   0.14887412 
   27500   -685.21111    38.423527   -646.78758    1165.7151    983.59224    9.6747375   0.16785587 
   27600   -687.67371    35.739026   -651.93468    1084.2711   -2913.1531    9.6812946   0.18083717 
   27700   -688.23948    34.092876    -654.1466    1034.3293     3859.576    9.7643947   0.16058099 
   27800   -689.70098    36.476669   -653.22431    1106.6502   -1447.6742    9.7269298   0.15851256 
   27900   -683.17397    35.587518   -647.58645    1079.6746    353.51314    9.6420712   0.20415042 
   28000   -686.20062    32.915678   -653.28494    998.61476     2099.079     9.707809    0.1722462 
   28100   -686.90993    33.094007   -653.81592     1004.025    4894.7776    9.7591701   0.15069429 
   28200   -685.52747    34.216477   -651.31099    1038.0792   -3264.0504     9.637493    0.1614543 
   28300   -684.64599    37.605338   -647.04065    1140.8924   -1579.1201    9.6412778     0.170523 
   28400   -685.41746    32.746371   -652.67109    993.47823    9358.0266    9.7900621   0.14585597 
   28500    -689.2331    35.135211   -654.09789    1065.9522     -7711.47    9.6576972   0.16010138 
   28600   -687.87083    37.296862   -650.57397    1131.5337    2028.5219    9.7501914   0.15814636 
   28700    -685.2631    37.769961   -647.49314    1145.8868   -2038.9307     9.645735   0.20834565 
   28800   -687.07302    33.018036   -654.05498    1001.7202   -5143.7573    9.6603833    0.1926726 
   28900   -688.26868    35.550931   -652.71775    1078.5646    5628.4803    9.7797011   0.17013734 
   29000   -685.07489    36.392805   -648.68209    1104.1059   -1971.7409    9.6335867   0.18310072 
   29100     -688.978    34.860813   -654.11719    1057.6274   -3314.9854    9.6988138   0.15441165 
   29200   -687.46084    32.936061   -654.52478    999.23316    6683.7063    9.7886419   0.17257448 
   29300   -687.79578    36.707589   -651.08819     1113.656   -5248.8874    9.6615723   0.17604218 
   29400   -687.63938    34.287969   -653.35141    1040.2481     7141.417    9.7986846   0.15433823 
   29500   -689.39967    32.363248   -657.03643    981.85484   -6843.8381    9.6800535   0.16818821 
   29600   -689.27214    36.655258   -652.61688    1112.0683    5144.2729     9.793007   0.15493684 
   29700   -689.69084    38.153718   -651.53712    1157.5295   -75.197334    9.7396654   0.16106711 
   29800   -691.31961    33.585063   -657.73455    1018.9229   -2584.8247     9.740046   0.14112788 
   29900   -691.35868    38.143516   -653.21516    1157.2199   -112.24776    9.7675746   0.14917047 
   30000   -686.20224    34.958399   -651.24384     1060.588    2188.1503     9.711682    0.1689935 
   30100   -687.09027    31.399318   -655.69095    952.61057   -971.90775    9.6936258   0.15927424 
   30200   -689.08341    33.423615   -655.65979    1014.0249    1404.5607    9.7568767   0.16147021 
   30300   -687.85151     37.33662   -650.51489    1132.7398    2644.0866    9.7445902   0.16170008 
   30400    -688.3912    34.103212   -654.28799    1034.6429   -3552.1072    9.6846151   0.16163519 
   30500   -690.63303    34.471025     -656.162    1045.8018   -4882.6496     9.712395   0.14824599 
   30600   -684.16865    35.622132   -648.54651    1080.7247    2184.3497    9.6790824   0.19300072 
   30700   -688.21045    36.203164   -652.00728    1098.3524   -1165.8509    9.7041861   0.16256401 
   30800   -689.53769    34.585187    -654.9525    1049.2653    642.16904    9.7543197   0.16321127 
   30900   -684.40234    34.036063   -650.36628    1032.6057   -3585.4684    9.6127298   0.17316095 
   31000   -685.49435    36.480066   -649.01428    1106.7532     1441.848     9.693318   0.20854266 
   31100   -689.25589    34.220437   -655.03545    1038.1993    4608.6082    9.7835845   0.15479599 
   31200   -687.11735    33.449068   -653.66828    1014.7971   -468.70107    9.6878137   0.16166485 
   31300   -683.47969    35.261208   -648.21848    1069.7748   -1998.1941    9.6203291   0.19391591 
   31400   -687.72761    36.499704   -651.22791     1107.349    11370.621    9.8345727   0.14936843 
   31500   -685.46603    31.123424   -654.34261    944.24033     -2701.62     9.642962   0.19832288 
   31600   -687.54641    35.610828   -651.93558    1080.3818    1222.5515    9.7227742   0.15849846 
   31700   -686.90891    36.414967   -650.49395    1104.7782    4606.3439    9.7410514   0.15712934 
   31800   -690.65029    32.902351   -657.74794    998.21044   -6771.0524    9.7007037   0.14502871 
   31900   -689.00125    33.458796   -655.54245    1015.0922    2065.7408    9.7492285   0.14363332 
   32000   -688.01336    35.498023   -652.51534    1076.9594   -43.963147    9.7128621   0.16036577 
   32100    -686.9159    34.632822   -652.28308    1050.7105    3642.4824    9.7457282   0.15934538 
   32200   -692.25002    34.050835   -658.19919    1033.0538    4113.6044    9.8499957   0.12844535 
   32300   -686.44796    33.578876   -652.86909    1018.7352   -3647.4989    9.6591761    0.1739188 
   32400   -688.54323     36.94229   -651.60094    1120.7764   -2815.3257    9.6857458   0.14956342 
   32500   -693.31292    38.406905   -654.90602    1165.2108    7034.7269    9.8702013   0.11195214 
   32600   -689.99185    34.516835   -655.47501    1047.1916    -2888.497    9.7127845   0.15293045 
   32700   -685.38042    35.661924   -649.71849     1081.932   -10860.032    9.5506459   0.20936717 
   32800   -690.81947    37.837081   -652.98239    1147.9231    2123.4501    9.7811073   0.15355365 
   32900   -689.07692    34.584524    -654.4924    1049.2452   -2227.2389    9.7127459   0.15718531 
   33000   -686.55873    38.133159   -648.42557    1156.9057    206.27593    9.6795097   0.17957343 
   33100   -687.46958     33.99324   -653.47634    1031.3065    2671.4686    9.7464858   0.16000964 
   33200   -688.24559    33.691582   -654.55401    1022.1546    541.70433      9.72985   0.15580992 
   33300   -686.83619    37.379188     -649.457    1134.0313   -2028.3954    9.6817465    0.1637321 
   33400   -689.88262    36.517521    -653.3651    1107.8896    3753.7598    9.7823236   0.13967445 
   33500   -690.43007    34.938681   -655.49139    1059.9898   -6006.8125    9.6982354   0.15837969 
   33600   -686.22097     35.13152   -651.08945    1065.8403    2235.9145    9.7075407   0.16021253 
   33700   -686.87026    35.112055    -651.7582    1065.2497    4778.6147    9.7551897   0.16842382 
   33800   -689.35026     32.69868   -656.65158    992.03135   -4719.5808    9.6924315   0.18540759 
   33900   -684.91866    32.446237   -652.47243    984.37261    4168.4078    9.7197276   0.18151953 
   34000   -685.51624    33.658315   -651.85793    1021.1453    689.29578    9.6945871   0.18452527 
   34100   -693.54282    35.348931   -658.19389    1072.4362   -7525.7263    9.7323942   0.14798498 
   34200   -687.06074    33.479856   -653.58088    1015.7311    1819.3117    9.7117493   0.16886805 
   34300   -688.58747    37.384436   -651.20304    1134.1905   -278.58245     9.725509   0.15964548 
   34400   -690.54461    36.100345   -654.44427     1095.233   -1975.8198    9.7376074   0.13569903 
   34500   -691.09198    33.240267   -657.85171    1008.4623   -2800.3099    9.7355229   0.13068843 
   34600   -687.02119    35.241186      -651.78    1069.1674    7834.9096    9.7847199   0.15772876 
   34700    -688.0622    36.602421   -651.45978    1110.4653    -6332.542    9.6440825   0.17619359 
   34800   -686.73122    30.934184   -655.79704    938.49905   -2229.9402    9.6687907   0.18247475 
   34900   -689.66177    33.528215   -656.13355    1017.1983    7461.7165    9.8237457   0.14399288 
   35000   -687.15259    36.455557   -650.69703    1106.0097   -1608.6429    9.6725549   0.17156572 
   35100    -687.9063    33.032084   -654.87422    1002.1464    3382.0661    9.7550436   0.15603386 
   35200   -688.52138    32.705121   -655.81626    992.22676   -789.05144    9.7235824   0.16359274 
   35300   -685.50934    35.507869   -650.00147    1077.2582    3799.8753    9.7179158   0.19534504 
   35400   -685.93481    32.120695   -653.81411    974.49611   -6517.0714    9.6231388   0.18442953 
   35500   -691.08679     34.81422   -656.27257    1056.2138    325.44692    9.7700437   0.14517107 
   35600   -685.31887    35.633609   -649.68526    1081.0729     3331.202    9.6991403   0.18680147 
   35700   -687.37424    35.252631   -652.12161    1069.5146   -3807.0531    9.6608385   0.18536128 
   35800   -688.65218    33.008646   -655.64354    1001.4353    4485.0616    9.7815676   0.14986812 
   35900   -687.03822    36.371173   -650.66705    1103.4496   -1769.4287    9.6790376   0.16884808 
   36000    -686.6495    35.918021   -650.73148    1089.7016   -2561.4152    9.6636571   0.17061763 
   36100   -687.93216    33.935605   -653.99656    1029.5579    5409.7889    9.7900525   0.16639989 
   36200   -687.82636    35.602304   -652.22406    1080.1232   -4092.4128    9.6673113   0.15453873 
   36300   -684.23905      38.3613   -645.87775    1163.8272    10432.072    9.7479585   0.17588419 
   36400   -688.16983    35.558205   -652.61163    1078.7853   -9385.1686    9.6131439   0.17685229 
   36500   -689.86883    36.599107   -653.26972    1110.3648   -1129.3073    9.7272214   0.16349236 
   36600   -687.81669    36.473797   -651.34289     1106.563    74.059934    9.7028162   0.16610823 
   36700   -684.41609    36.006619   -648.40947    1092.3895   -1238.3832    9.6374322   0.18694915 
   36800   -683.25501    38.261562   -644.99345    1160.8013    856.62957    9.6469854     0.193116 
   36900    -686.7127    36.579148   -650.13355    1109.7592    3053.9332    9.7230751   0.16581059 
   37000   -690.02027      37.8587   -652.16157     1148.579   -3515.4927    9.7139101   0.15326263 
   37100   -688.75137    34.012416   -654.73895    1031.8883    3523.5095    9.7806468   0.16447382 
   37200   -684.33528    35.220242   -649.11504     1068.532   -8269.1967    9.5553063   0.20759254 
   37300    -684.3486    35.048281   -649.30032    1063.3149   -35.600674    9.6686174   0.19649846 
   37400   -687.31474    33.622724   -653.69202    1020.0655    11419.307    9.8327388   0.15343026 
   37500   -687.28776     34.50065   -652.78711    1046.7006   -10306.432     9.595045   0.18086785 
   37600    -686.0227    38.634303    -647.3884    1172.1097    2354.6481    9.6974854   0.16757218 
   37700   -688.41094    34.679616   -653.73132    1052.1301    6634.7969    9.7940594   0.14071742 
   37800   -689.67858    35.278882   -654.39969     1070.311   -3504.3263    9.7008494   0.14456108 
   37900   -688.60359    38.117191    -650.4864    1156.4213   -621.67593    9.7105175   0.15278848 
   38000   -686.91699    37.268168   -649.64882    1130.6631     217.0161    9.6962398   0.17300581 
   38100   -688.74599    33.207815   -655.53817    1007.4778    2614.4802     9.762825    0.1503406 
   38200    -686.7955    34.530765   -652.26473    1047.6142    2789.0433    9.7207487   0.18188892 
   38300   -683.90626     33.42589   -650.48037    1014.0939   -10644.699    9.5172532   0.21899882 
   38400     -690.484    34.519885   -655.96412    1047.2841   -5156.9713    9.7004778    0.1677412 
   38500    -689.7139    36.622731   -653.09117    1111.0815    4044.4406    9.7865587   0.14555664 
   38600   -685.30793    35.032398   -650.27553     1062.833   -3193.9007    9.6426868   0.18687416 
   38700   -690.05857    34.465062   -655.59351    1045.6209   -2529.0491    9.7266364   0.15707602 
   38800   -691.29792    35.497351   -655.80057     1076.939    2294.7588    9.7961355    0.1596571 
   38900   -686.09378    36.166105   -649.92767    1097.2281   -327.43686    9.6743406   0.19448439 
   39000   -686.53416    33.270468   -653.26369    1009.3786   -3386.9095    9.6600048   0.17471971 
   39100   -689.80277    34.123732   -655.67904    1035.2654    -7641.635    9.6684667    0.1614986 
   39200   -688.07284    38.856448    -649.2164    1178.8493    7373.3404    9.7812704   0.15796313 
   39300   -686.02268    34.949603   -651.07307    1060.3212   -5435.9077     9.616109   0.17765439 
   39400   -687.09563    32.627057   -654.46857    989.85843   -611.24454    9.7006475   0.18902154 
   39500   -688.44523    36.938283   -651.50695    1120.6549    108.26045    9.7364719   0.16552169 
   39600   -686.28391    35.065056   -651.21885    1063.8238   -1147.2252    9.6695794   0.16894218 
   39700   -691.74384    33.611136    -658.1327     1019.714   -6633.3219    9.7148257    0.1351579 
   39800   -689.72419     35.70947   -654.01472    1083.3744    6289.5076    9.8033234   0.13993678 
   39900   -688.52203    37.546305   -650.97572    1139.1014   -4049.0018    9.6707517   0.15523083 
   40000   -687.45879    35.070563   -652.38823    1063.9909   -2649.4897    9.6793824   0.17223874 
   40100   -692.79475    34.880668   -657.91408    1058.2298   -554.61833    9.7950845   0.14715511 
   40200   -687.49094    34.345503   -653.14544    1041.9936   -45.698595    9.7079658   0.16838982 
   40300   -686.05818    34.211687   -651.84649    1037.9338   -5029.5213    9.6416231   0.18078875 
   40400   -688.39121     32.46296   -655.92825    984.87996    11541.193     9.851374   0.15760416 
   40500   -688.69809    31.301533   -657.39656    949.64391   -10520.856     9.627671    0.1771691 
   40600   -690.76091    38.420168   -652.34074    1165.6132   -263.02667    9.7502184   0.16217956 
   40700   -685.97983    32.635377   -653.34445    990.11085    3612.3655    9.7377001   0.18587129 
   40800   -686.72619    34.317031   -652.40915    1041.1298   -6039.1407    9.6451956   0.17130437 
   40900   -684.69142    39.922844   -644.76858    1211.2022    3077.0897     9.692775   0.17553063 
   41000   -688.83555    37.676795   -651.15876    1143.0603   -939.62032    9.7206589   0.15577195 
   41100   -687.76294    34.942143   -652.82079    1060.0948   -3855.1877    9.6772385   0.18949156 
   41200   -688.13878    35.715999   -652.42278    1083.5725    1126.9926    9.7313895   0.15670608 
   41300   -690.41466    31.892605   -658.52205    967.57619    4181.3737    9.8032323   0.13549582 
   41400   -689.14292    33.357876   -655.78505    1012.0304    1446.1267    9.7416631   0.14419235 
   41500   -689.13006    36.439827   -652.69023    1105.5324   -560.10943     9.724155   0.15032494 
   41600   -687.45587    35.129667    -652.3262     1065.784   -1810.9112    9.6942892   0.16309458 
   41700   -691.94169    33.966023   -657.97566    1030.4807   -3441.2758    9.7339714    0.1719385 
   41800   -685.87103    29.932947   -655.93808    908.12298    4982.9324    9.7470192   0.18888945 
   41900   -689.33806    36.643749   -652.69431    1111.7191     6613.581    9.8087453   0.16148294 
   42000   -685.45057      32.9579   -652.49267    999.89573   -4993.6402    9.6094447   0.17981707 
   42100   -691.57983    33.150764   -658.42907    1005.7469   -1437.3621    9.7550121   0.13476278 
   42200   -690.75565    35.050577   -655.70507    1063.3846    6372.9509    9.8277819   0.12545327 
   42300   -685.59754    33.076815   -652.52072    1003.5034   -3652.6571    9.6258824   0.15857277 
   42400   -685.99557    33.851137   -652.14444    1026.9953    3853.1104      9.73306   0.16219629 
   42500   -693.32961    35.100843   -658.22877    1064.9096    1723.5284    9.8295777   0.13112529 
   42600   -686.40789    32.551686    -653.8562    987.57177   -4369.5928    9.6506585   0.19057163 
   42700   -685.63358    34.244051   -651.38953    1038.9157   -1554.7561    9.6665238   0.19133568 
   42800    -689.3779    33.640022   -655.73788    1020.5903    5586.3629    9.8075157   0.16008282 
   42900   -691.02125    35.024413   -655.99683    1062.5908    2557.4229    9.7976873   0.15957068 
   43000   -685.92131     35.23055   -650.69076    1068.8447    580.61872    9.6940109   0.17460148 
   43100   -688.58042    35.469887   -653.11054    1076.1058   -2172.5892     9.698582   0.16632924 
   43200    -688.5495    32.313005   -656.23649    980.33052    5085.2075    9.7896029   0.14757574 
   43300    -686.4646    36.106004    -650.3586    1095.4047   -2488.0556    9.6642986   0.16389347 
   43400   -686.79582    35.401531   -651.39428     1074.032   -7944.3919    9.6004444   0.17362778 
   43500   -689.53791    34.029648   -655.50826     1032.411    7622.4844    9.8303946   0.13746007 
   43600   -687.38939    33.144794    -654.2446    1005.5658   -1752.7234    9.6937634    0.1623623 
   43700   -684.85395    35.545624   -649.30833    1078.4036   -937.34818    9.6487466   0.18684491 
   43800   -687.97065    34.675598   -653.29505    1052.0083    498.62088      9.72708   0.17799325 
   43900   -689.27457    33.288132   -655.98644    1009.9145    33.394963    9.7374849   0.16610884 
   44000   -685.53321    35.741729   -649.79148    1084.3531   -264.29789    9.6687698   0.19430594 
   44100   -686.44435    36.751397   -649.69295     1114.985   -4907.6466    9.6300145   0.19599855 
   44200   -690.04441    36.361353   -653.68305    1103.1517     885.0937    9.7505896   0.14234034 
   44300   -687.42935    31.482715   -655.94663    955.14072    8753.6392    9.8136296   0.15414213 
   44400   -685.67005    36.496907   -649.17314    1107.2642   -10837.908     9.557415   0.18102309 
   44500   -687.27132    34.829892   -652.44142    1056.6893    3273.5624    9.7479513    0.1425677 
   44600   -690.06665    34.920288   -655.14637    1059.4318    2316.9071    9.7759973   0.13317524 
   44700   -685.19124     35.49651   -649.69473    1076.9135   -5701.5142    9.6153469   0.18760986 
   44800   -686.09233    35.824728   -650.26761    1086.8712    4168.4841    9.7274906   0.19588439 
   44900   -690.56768    35.737309   -654.83037     1084.219   -2062.9776    9.7436989   0.16545685 
   45000   -689.49758    36.150735   -653.34685    1096.7618    377.36836    9.7338435   0.15801986 
   45100   -683.49094    35.679779   -647.81116    1082.4736   -2744.1276    9.6011591   0.18662379 
   45200   -687.53414    34.092389   -653.44175    1034.3145   -1251.7392     9.697916    0.1623611 
   45300   -689.00419    35.363064   -653.64113     1072.865    6642.6521    9.8125064   0.16441227 
   45400   -683.42992    34.569667   -648.86025    1048.7944   -8759.1177    9.5449887   0.20925676 
   45500   -687.86031    34.057494   -653.80282    1033.2558     4006.451     9.761228   0.15493542 
   45600   -689.15042    34.058873   -655.09154    1033.2977    4255.4908    9.7877534   0.14084233 
   45700   -686.88204    37.066393   -649.81565    1124.5416   -5653.6996    9.6337945   0.18055823 
   45800   -686.41423    34.101544   -652.31268    1034.5922   -2158.6843      9.66437     0.204892 
   45900   -687.82341     32.02973   -655.79368    971.73637   -984.17956    9.7089241   0.20227338 
   46000   -686.20598    35.589491   -650.61649    1079.7345    1389.1935    9.7050696   0.18597061 
   46100   -687.65116    35.286468   -652.36469    1070.5412    8001.6352    9.8010854    0.1717017 
   46200   -687.99193    31.765943   -656.22599    963.73345    -9546.585    9.6275986   0.18207536 
   46300    -686.4841    35.346131   -651.13796    1072.3512    5084.0967    9.7582996   0.16569369 
   46400   -686.68047    34.432458   -652.24801    1044.6317    185.72558    9.7046673   0.17376044 
   46500    -691.2213    33.165581   -658.05571    1006.1965   -4450.8855    9.7263818   0.14998391 
   46600   -686.92077    34.427522   -652.49325     1044.482    2233.8739     9.722649   0.15423667 
   46700   -685.72367    34.069918   -651.65375    1033.6328   -1104.0927    9.6653414   0.19844889 
   46800   -688.86148    34.263542   -654.59794    1039.5071    8534.6524     9.829571   0.17222589 
   46900   -687.23698    31.538382    -655.6986    956.82957     -13045.9    9.5766219   0.18192114 
   47000   -686.10417    35.143281   -650.96089    1066.1971    10512.082    9.7975685   0.16999539 
   47100   -689.51083     37.22011   -652.29072    1129.2051   -694.38415    9.7344024   0.16147528 
   47200    -688.5585    31.919704    -656.6388    968.39833   -2958.2238     9.704959   0.17610941 
   47300   -690.04012     38.97657   -651.06355    1182.4936   -2177.8168    9.7124211   0.15446037 
   47400    -687.9483    37.250553   -650.69775    1130.1287    5378.3095    9.7704602    0.1444026 
   47500   -691.42712    35.063308   -656.36381    1063.7708   -4342.5412    9.7277015   0.14069228 
   47600   -686.34135    32.122208   -654.21914    974.54203    6130.2475    9.7580296   0.17319949 
   47700   -684.69827    33.860724   -650.83754    1027.2861    -9779.227    9.5623314    0.1900954 
   47800   -688.84482    36.175068   -652.66975       1097.5    10461.129    9.8504835   0.15340428 
   47900   -691.50172    34.161827   -657.33989    1036.4212   -1764.5691    9.7519164   0.14109566 
   48000   -690.13265    34.996373   -655.13627    1061.7401    -5530.108    9.6936597   0.15885679 
   48100   -685.92111      34.2417   -651.67941    1038.8444     353.2039    9.6914347   0.17461077 
   48200   -688.80837    34.600025   -654.20834    1049.7155    2887.2338    9.7678449   0.14794727 
   48300   -692.50427    35.732049   -656.77222    1084.0594   -318.74488    9.7932879   0.14339661 
   48400   -684.64963    35.156193   -649.49343    1066.5888   -3530.4922    9.6211217    0.1961338 
   48500   -687.92812    36.480152   -651.44797    1106.7558    5622.0285    9.7689251   0.15986566 
   48600   -689.83079    34.537015   -655.29378    1047.8038    2873.4635    9.7841591   0.14855916 
   48700   -687.52497    35.798999   -651.72597    1086.0906   -8184.9861    9.6083888   0.17084373 
   48800   -688.03366    38.949333   -649.08433    1181.6673    11435.066    9.8234583   0.14798121 
   48900   -686.93424    32.527672   -654.40656    986.84322    2675.3133    9.7326803   0.16986031 
   49000    -685.5486    33.247315   -652.30128    1008.6762   -2736.1529    9.6444471   0.16030082 
   49100    -685.4589    37.924415   -647.53448    1150.5727    6391.8125    9.7218884   0.16300922 
   49200   -688.77291    34.084239   -654.68867    1034.0673   -7203.0839    9.6540856   0.17413087 
   49300   -689.75974    36.107969   -653.65177    1095.4643     384.1899    9.7392298   0.15476677 
   49400   -686.89883    35.341344   -651.55748     1072.206    672.56891    9.7157225   0.16595345 
   49500   -686.38794     33.07453   -653.31341    1003.4341    -923.0274    9.6852388   0.18586737 
   49600    -689.7548    31.934619   -657.82018    968.85085    336.56662    9.7610261    0.1507245 
   49700   -688.87683    34.926703   -653.95013    1059.6264    3685.5849    9.7738325   0.15574135 
   49800   -686.72974    35.971671   -650.75806    1091.3292    2232.5324    9.7124061   0.16241997 
   49900   -687.88446    32.241784   -655.64268    978.16978    1110.9942    9.7293872   0.15004576 
   50000   -691.38935    34.876272   -656.51308    1058.0964     5948.652    9.8470686   0.15351337 
   50100   -687.55971    35.527397   -652.03231    1077.8506   -5569.4408     9.655388   0.19284006 
   50200   -687.11541    34.134771   -652.98064    1035.6003    -9762.345    9.5885258   0.17398605 
   50300   -689.36368    32.549877   -656.81381    987.51688     6003.651    9.8131811   0.15424413 
   50400   -687.78257    35.156646   -652.62592    1066.6025    1298.8387    9.7228671   0.16671861 
   50500   -687.68862    36.840247   -650.84837    1117.6806   -6040.8412    9.6481579   0.16840435 
   50600   -687.05074    33.667481   -653.38326    1021.4234    10904.534    9.8229662   0.13882435 
   50700   -689.22845    33.252009   -655.97644    1008.8186    4345.3724    9.7951232   0.14408056 
   50800   -683.89743    34.944824   -648.95261    1060.1762   -6219.5052    9.5691276    0.2195578 
   50900   -686.31872    34.466215   -651.85251    1045.6559    7461.2191    9.7790739   0.17895674 
   51000   -685.46877    30.843443   -654.62533    935.74611    4625.5606    9.7404577    0.1722799 
   51100   -683.76075    32.364946   -651.39581    981.90635   -13578.961    9.4963963   0.20307078 
   51200   -684.91925    36.388502   -648.53075    1103.9753    8708.6926    9.7512477   0.16550145 
   51300   -689.10901     35.20781    -653.9012    1068.1548    1195.4493    9.7506268   0.16859461 
   51400   -686.86926    33.459926   -653.40933    1015.1265   -3340.1185    9.6715899   0.17328001 
   51500   -683.86261    35.120342   -648.74226    1065.5011    124.51181    9.6521686   0.18588149 
   51600   -687.34636    32.770506   -654.57585    994.21046    6321.9775    9.7776311   0.15881359 
   51700   -688.94282    34.113888   -654.82893    1034.9668    5396.9323    9.7985731   0.14343524 
   51800    -686.0075    34.229167   -651.77833    1038.4642    -4638.037    9.6327629   0.17713055 
   51900     -684.841    35.109615   -649.73138    1065.1757    1381.9648    9.6753163   0.17527312 
   52000   -692.21998    35.351978     -656.868    1072.5287     1821.657    9.8056689   0.13501859 
   52100   -686.32526    32.537144   -653.78812    987.13057   -9273.4474    9.5963751   0.19462279 
   52200   -686.36123    35.498461   -650.86277    1076.9727    7939.4081    9.7823178   0.18515763 
   52300   -688.46654    34.235886   -654.23066     1038.668    228.02175    9.7335051   0.15497158 
   52400   -689.83322     33.17769   -656.65553    1006.5638    100.07723    9.7536145     0.138655 
   52500   -690.70066    38.577083   -652.12358    1170.3737   -375.89016    9.7541416   0.15539787 
   52600   -688.03647     36.64256   -651.39391    1111.6831     1431.383     9.725266   0.16432425 
   52700   -689.66405    32.122156   -657.54189    974.54044   -2581.2766    9.7269773   0.16096388 
   52800    -688.1386     34.56843   -653.57017    1048.7569    307.04839    9.7160664   0.16582445 
   52900   -684.63259    34.414403   -650.21819     1044.084    4244.4436    9.7053529   0.18591141 
   53000   -690.03177    36.257936   -653.77383    1100.0141   -4796.5491    9.7013586   0.16584281 
   53100   -689.33934    31.788947   -657.55039    964.43135    1992.3199    9.7604726   0.16285389 
   53200   -686.53428    35.797112   -650.73717    1086.0334   -2490.3612    9.6729195   0.18189641 
   53300   -687.72144    35.538301   -652.18314    1078.1814    1335.7378    9.7249651   0.15348715 
   53400   -688.78244     32.27313   -656.50931    979.12078   -8971.2778    9.6402364   0.17011836 
   53500   -687.30852    36.130059   -651.17846    1096.1345    4666.1455    9.7511366   0.17953004 
   53600   -686.36098     36.55661   -649.80437    1109.0755    -2542.644      9.65219   0.18664469 
   53700    -687.1399    32.766754   -654.37315    994.09663    1581.5288    9.7187525   0.18054269 
   53800   -685.71585    32.260105   -653.45574    978.72563    4608.2898    9.7358752   0.16773963 
   53900   -684.38452    36.090976   -648.29354    1094.9488    1785.9019    9.6681269   0.17084018 
   54000   -687.77006    33.868393   -653.90167    1027.5188    4276.9109    9.7668199   0.15577426 
   54100   -687.60443    32.587973   -655.01646    988.67268   -2214.6032    9.6827661   0.17498455 
   54200   -684.90552    35.887972   -649.01755    1088.7899   -4243.9352     9.625781   0.19542823 
   54300    -690.1207     38.17572   -651.94498    1158.1969    11422.021     9.871948   0.14285232 
   54400   -687.87746    33.107381   -654.77008    1004.4308    801.59279    9.7291349   0.16012119 
   54500   -685.23782    33.471386   -651.76644    1015.4742   -9390.3583    9.5785707   0.20322306 
   54600    -684.8951    35.628002   -649.26709    1080.9028    2632.0543    9.7028444   0.17131441 
   54700   -690.54769    34.497349   -656.05034    1046.6004    940.00089    9.7745353   0.13945064 
   54800   -687.91627    34.210846   -653.70542    1037.9083   -2406.0129    9.6943009   0.17110438 
   54900   -686.38464    36.090974   -650.29367    1094.9487    1016.2365    9.6905806   0.18179594 
   55000   -685.79543    34.565215   -651.23022    1048.6594     6179.015    9.7565297   0.15860867 
   55100    -686.9467    31.380679   -655.56602    952.04509   -7219.7643      9.61221   0.17705768 
   55200   -688.60382    35.292958   -653.31086    1070.7381    6344.4848    9.7878105   0.15439225 
   55300   -686.05751    35.980986   -650.07652    1091.6119   -763.69834    9.6779985   0.18684351 
   55400   -685.49528    35.828391   -649.66689    1086.9823   -4479.1102    9.6195294   0.18996858 
   55500   -688.32416    32.919164     -655.405    998.72054    8209.6783    9.8192668   0.14982014 
   55600   -688.50569    35.503003   -653.00269    1077.1105   -9288.8557    9.6273647   0.18006001 
   55700   -686.53034    35.584265   -650.94608    1079.5759   -842.97458    9.6781856   0.16427553 
   55800   -690.51883    33.296269   -657.22256    1010.1614    966.54286    9.7696723   0.14605841 
   55900   -688.01608    34.413014   -653.60307    1044.0418   -1591.8633    9.7016063   0.15674977 
   56000   -686.63426    36.367713   -650.26655    1103.3446   -6504.3632    9.6147658   0.18060565 
   56100   -691.08548    35.118911   -655.96657    1065.4577    8836.3956    9.8625543    0.1596547 
   56200    -687.6494    32.412865   -655.23654    983.36015   -11965.528    9.5861648   0.19767721 
   56300   -686.16059    35.373101   -650.78749    1073.1695     3612.052    9.7187126   0.18138534 
   56400   -688.70172    34.779504   -653.92222    1055.1606     7006.286    9.8116345   0.15710935 
   56500   -690.33727    34.118129   -656.21914    1035.0954   -5068.1967    9.7052348   0.15101954 
   56600   -688.55373     38.91049   -649.64324    1180.4888    847.64099    9.7278972   0.16584481 
   56700   -689.67468    37.170231   -652.50445    1127.6919    452.90744    9.7444218   0.14040549 
   56800   -689.55178    34.220102   -655.33168    1038.1891    2539.5854    9.7820673   0.15934009 
   56900   -683.13884    33.090021   -650.04882    1003.9041   -356.04099    9.6304621   0.21068622 
   57000   -688.02182    36.125175   -651.89664    1095.9863   -1981.0113    9.6932366   0.18700669 
   57100   -692.07266    35.932256   -656.14041    1090.1334    5468.8743    9.8535693   0.14182847 
   57200   -690.49521    38.973096   -651.52212    1182.3882   -6735.8994    9.6717347   0.15655693 
   57300   -686.83944    36.886998   -649.95244     1119.099    -234.1105    9.6893911   0.16677321 
   57400    -690.8176    34.102911   -656.71469    1034.6337   -3329.3107    9.7203036   0.13251332 
   57500   -690.01582    36.019587   -653.99623    1092.7829    902.98195    9.7615858   0.14960511 
   57600   -687.70974    37.085343    -650.6244    1125.1165    1306.7537    9.7256223   0.15456528 
   57700   -690.88219    33.926719   -656.95547    1029.2883   -7769.3436    9.6878414   0.18086031 
   57800   -688.51033    34.719822   -653.79051    1053.3499   -1308.8332    9.7225467   0.17523222 
   57900   -686.71966    36.467524   -650.25214    1106.3727   -3853.3119    9.6401179   0.18281447 
   58000   -690.24679    35.981499   -654.26529    1091.6274    5315.9114     9.812525   0.15108755 
   58100   -690.05153    34.068756   -655.98277    1033.5975   -1829.6227    9.7308224   0.15571343 
   58200   -687.26234    36.300697   -650.96165    1101.3114   -3878.5891    9.6621769   0.17488996 
   58300   -687.11797    35.638389   -651.47958     1081.218    10258.153    9.8155609   0.16005399 
   58400   -688.56582    31.968448   -656.59737    969.87715   -10928.693    9.6152084   0.17366403 
   58500   -688.08583    36.502913   -651.58291    1107.4464    3179.8683    9.7496649   0.14395791 
   58600   -686.83387    37.237278   -649.59659     1129.726    910.52863    9.7114003   0.16429251 
   58700   -687.30407    30.689286   -656.61478     931.0692    3510.1373     9.762838   0.15836778 
   58800   -687.00647    32.992557   -654.01391    1000.9472   -3056.7374    9.6653872   0.16051461 
   58900   -687.18345    37.260994   -649.92246    1130.4455    3923.6592    9.7369128   0.16587762 
   59000   -689.20406    33.789861    -655.4142    1025.1362    7343.4534    9.8202702   0.14493711 
   59100   -688.36827    33.125755   -655.24252    1004.9882   -1682.7144    9.7185528    0.1482975 
   59200   -684.73142    34.849876   -649.88154    1057.2956    3103.6854    9.6926305   0.17377365 
   59300   -688.10681    34.958597   -653.14821     1060.594   -5891.4618    9.6633902   0.18361652 
   59400   -691.10899    35.253557   -655.85543    1069.5427    17320.015    9.9589261   0.15009623 
   59500    -685.7639    34.724968   -651.03893     1053.506   -9638.7378    9.5690785   0.19293201 
   59600   -687.51944    34.873953   -652.64549     1058.026   -4617.6338    9.6619875   0.16443107 
   59700   -691.33079    34.841952   -656.48883    1057.0552    3579.7224    9.8081667   0.13521984 
   59800    -684.2973    33.611394   -650.68591    1019.7218   -213.39583    9.6512409   0.17209016 
   59900   -686.61048    34.499803   -652.11068    1046.6749   -1299.3437    9.6744292   0.17989287 
   60000   -688.98079    32.887961   -656.09283    997.77388   -3057.3448    9.7070017   0.17241803 
   60100   -687.29846    36.466244   -650.83221    1106.3339    5295.5552    9.7560723   0.17914826 
   60200   -685.93223    36.766056   -649.16618    1115.4298   -5587.6749     9.616628   0.18273753 
   60300   -692.07967    37.430175    -654.6495    1135.5782    7910.7928    9.8701247   0.13317767 
   60400   -688.08258    35.555168   -652.52741    1078.6931   -6544.1587    9.6512181    0.1722945 
   60500   -683.13723    33.775783   -649.36145    1024.7091   -72.520424    9.6374775   0.19610245 
   60600   -689.89389    34.498028   -655.39586     1046.621    896.57358    9.7507455   0.14894931 
   60700   -689.70717    34.840623   -654.86655    1057.0148    73.055034    9.7465755   0.15037246 
   60800   -684.21412    34.621141   -649.59297    1050.3561   -2226.9323    9.6306446   0.18049725 
   60900   -686.54173    32.446987   -654.09474    984.39536    5735.3726    9.7656334   0.16317487 
   61000   -692.91898     38.82382   -654.09515    1177.8594    3707.4092    9.8382566   0.12830773 
   61100   -686.39968    37.600282    -648.7994     1140.739   -7397.2542    9.5974971   0.18061364 
   61200   -687.14192    33.474098   -653.66782    1015.5565    2043.3465    9.7272936   0.16652188 
   61300   -691.43775     37.37173   -654.06602     1133.805    3577.5205    9.7911546   0.15169172 
   61400   -684.99296    35.344621   -649.64834    1072.3054   -6972.5423    9.5951621   0.20457897 
   61500   -687.69804    33.723285   -653.97475    1023.1164     171.5378    9.7198953   0.16755612 
   61600   -691.04677    35.686296   -655.36048    1082.6714    -865.5648    9.7527614    0.1505017 
   61700   -686.46117    35.877168     -650.584    1088.4622   -1721.0668    9.6679252   0.15713519 
   61800   -689.72829    35.288484    -654.4398    1070.6023   -4634.7295    9.6974023   0.14541162 
   61900   -691.99427    36.213814   -655.78045    1098.6755    8472.1854    9.8697521   0.12297771 
   62000   -685.30006    35.378834   -649.92122    1073.3434   -16272.187    9.5005279   0.19576402 
   62100   -686.65935     33.96807   -652.69128    1030.5429    1327.4573    9.7077839   0.18115038 
   62200   -689.77724    34.444091   -655.33314    1044.9846   -1662.1866    9.7275769   0.17708043 
   62300   -685.59753    35.245487   -650.35205    1069.2979    2.3425069    9.6822526   0.19810457 
   62400   -685.96707     36.23104   -649.73603    1099.1981   -309.30091    9.6782091   0.18532923 
   62500   -689.08284    35.617613   -653.46522    1080.5876   -5215.8901    9.6816521   0.15328305 
   62600   -688.10134    33.035778   -655.06556    1002.2584    3330.4526     9.766521    0.1397027 
   62700   -683.42891    35.102822   -648.32609    1064.9696    7203.9996    9.7191573   0.19040439 
   62800    -686.4827    36.679622   -649.80308    1112.8075   -13872.967     9.547621    0.1991576 
   62900   -688.92217    35.121696   -653.80048    1065.5422    6610.5003    9.7959217   0.16244346 
   63000   -688.50321    36.038487   -652.46473    1093.3564   -990.57918    9.7093636   0.18050951 
   63100   -683.22464    35.835573   -647.38906    1087.2002   -547.80152    9.6285738   0.21396116 
   63200   -687.68053    35.011286   -652.66924    1062.1925    1538.7855    9.7197824     0.170375 
   63300   -690.67898    36.389832   -654.28915    1104.0157   -1549.2174    9.7380651   0.16114994 
   63400   -686.15122    34.483555   -651.66766    1046.1819    3521.3959    9.7252089   0.16631054 
   63500   -684.19935    35.939792   -648.25956    1090.3621    1662.9315    9.6652417   0.17944853 
   63600   -688.15025    35.365954    -652.7843    1072.9527   -6153.8935    9.6482187   0.18097109 
   63700   -687.84748    34.202522   -653.64495    1037.6558   -5975.7555    9.6515888   0.18974229 
   63800   -685.87393     38.07343    -647.8005    1155.0936    3205.5681    9.7027208   0.18848356 
   63900   -683.20623    34.767385   -648.43884    1054.7929    1031.3349    9.6435668     0.188282 
   64000   -686.60823    32.985067   -653.62316    1000.7199    6939.7643    9.7690869   0.15473506 
   64100   -687.87343    34.950303   -652.92313    1060.3424    2572.2596    9.7342044   0.16415933 
   64200   -686.52221    38.930781   -647.59143    1181.1044    -4499.485     9.630008   0.19470347 
   64300   -688.32688    34.664258   -653.66262    1051.6642    5250.3978    9.7878474   0.16394314 
   64400   -688.01318       33.506   -654.50718    1016.5243   -2709.4083    9.6971003   0.16140366 
   64500   -686.11057    35.360136   -650.75043    1072.7762    558.96449    9.6941545   0.17208573 
   64600   -688.12852    37.422438   -650.70609    1135.3434   -3310.2466    9.6712781   0.18828092 
   64700   -690.61148    34.303258   -656.30823     1040.712   -760.97773    9.7621492   0.15329719 
   64800   -688.21988    36.186094   -652.03379    1097.8345    942.68768    9.7313422    0.1559055 
   64900   -686.42874    36.776582   -649.65216    1115.7491    1315.1182    9.6959367   0.17200283 
   65000   -691.24619    35.159093    -656.0871    1066.6768   -1767.8555    9.7519697   0.13768007 
   65100   -688.33346    32.819109   -655.51435    995.68501   -1502.0036    9.7126914   0.16908648 
   65200    -689.5963    38.554281   -651.04202    1169.6819    1100.4278     9.748277   0.15845367 
   65300   -688.73086    34.844907   -653.88596    1057.1448    9583.5993    9.8284975   0.15925985 
   65400   -688.52404    31.895964   -656.62807    967.67811    -9841.109    9.6241161   0.17797296 
   65500   -686.86605    36.694186   -650.17186    1113.2493   -1916.3625      9.67275   0.17279273 
   65600   -688.31902    36.194143   -652.12488    1098.0787    2626.6551    9.7583245   0.15199141 
   65700   -691.13004    34.601431   -656.52861    1049.7581   -1325.7045    9.7567064   0.13702593 
   65800   -686.03433    35.296189   -650.73814    1070.8361   -6702.4897    9.6138044    0.1811338 
   65900   -686.10718    34.847671   -651.25951    1057.2287    6561.8942    9.7732244   0.20977529 
   66000   -689.54476    33.285875   -656.25888     1009.846   -9192.7953    9.6493893   0.17075044 
   66100   -686.96546    31.365249   -655.60021    951.57696    4196.9491    9.7589494   0.19325695 
   66200   -686.44555    35.545858   -650.89969    1078.4107     2853.653    9.7227737   0.17522803 
   66300   -688.33516    34.646329   -653.68883    1051.1203    2585.6336    9.7544043    0.1712494 
   66400   -691.20863    33.071706   -658.13692    1003.3484   -941.25582    9.7720214   0.14060222 
   66500    -689.9745    32.604891   -657.36961    989.18594   -2184.4362    9.7380433   0.15801408 
   66600   -687.89309    35.182863   -652.71022    1067.3979    394.03459    9.7193298   0.15488506 
   66700   -687.57679    34.521077   -653.05571    1047.3203    593.97549    9.7252474   0.14789489 
   66800   -688.53341    32.028673   -656.50474    971.70429    1426.7222    9.7443112   0.16033489 
   66900   -693.51929    33.661465   -659.85782    1021.2409   -6772.1949    9.7415059   0.15028332 
   67000   -689.29533    36.547785   -652.74755    1108.8077    2552.1624    9.7674675   0.16565582 
   67100   -688.07999    35.516987   -652.56301    1077.5348    -3741.318    9.6825701   0.19272066 
   67200   -688.56529    34.731257   -653.83404    1053.6969   -2845.3745    9.6919397   0.18476258 
   67300    -693.0668     33.73274   -659.33406    1023.4033     7105.835    9.8794414   0.13205545 
   67400   -689.73413    35.713721   -654.02041    1083.5034   -3729.4428    9.7116438   0.15172385 
   67500   -686.79183    33.954226   -652.83761    1030.1229   -2196.2891    9.6728782   0.14818052 
   67600   -688.78388    34.583586    -654.2003    1049.2167    5989.0034    9.7882688   0.14651419 
   67700   -684.08482    36.203183   -647.88164     1098.353   -4617.0544    9.5984526    0.1744003 
   67800   -685.33722    34.867929   -650.46929    1057.8433    3606.8722    9.7031039   0.16443791 
   67900   -687.65036    33.380583   -654.26978    1012.7193    3406.4424    9.7493717   0.16468664 
   68000     -688.437    36.441174   -651.99583    1105.5733   -3452.0376    9.6826605   0.17135291 
   68100   -685.52769    38.539131   -646.98856    1169.2223   -364.42456    9.6588055   0.19998267 
   68200   -689.07211    34.731005   -654.34111    1053.6892   -890.97554    9.7150497   0.15165095 
   68300   -690.44539    36.608774   -653.83661     1110.658   -5129.6711    9.6876472   0.15286426 
   68400   -687.99414    35.741968   -652.25217    1084.3604    7231.4896    9.8008997   0.14342708 
   68500   -684.74646    38.585268   -646.16119    1170.6221   -324.72941    9.6536225   0.17358396 
   68600   -687.11812    36.171093   -650.94703    1097.3794   -1819.8218    9.6790732   0.15828627 
   68700    -688.3823     35.11319   -653.26911    1065.2842    8500.3563    9.8090984    0.1545235 
   68800   -686.17196    33.972236   -652.19972    1030.6692   -9976.3753    9.5826456    0.1891164 
   68900   -683.47938    34.799532   -648.67985    1055.7682   -4578.9299    9.5778444   0.22692372 
   69000   -684.77412     36.98839   -647.78573     1122.175    9509.2524    9.7588079   0.18718799 
   69100   -686.45009    33.929711   -652.52038    1029.3791   -4853.9353     9.639608   0.17967581 
   69200   -690.55724    36.713317   -653.84392    1113.8297   -7575.0248    9.6705644   0.15922544 
   69300   -685.79614    34.231863   -651.56428    1038.5459    5108.6473    9.7494919   0.16370738 
   69400   -685.66703    38.380296   -647.28673    1164.4035   -2126.7134    9.6512111   0.17802333 
   69500   -688.55838       35.504   -653.05438    1077.1408   -2952.6908    9.6959404   0.17820072 
   69600   -688.56077    34.613446   -653.94732    1050.1226    2224.4385    9.7502883   0.15173952 
   69700   -690.67189    36.985849   -653.68604     1122.098   -6420.4153    9.6941478   0.14740781 
   69800     -685.264    38.233067   -647.03094    1159.9368    3135.4754    9.6968777   0.18703234 
   69900   -686.76295    34.869818   -651.89313    1057.9006   -2605.3865    9.6649757   0.17747178 
   70000   -687.64656    34.740216   -652.90634    1053.9687   -11134.474    9.5901498   0.20165575 
   70100   -686.51666     38.52303   -647.99363    1168.7338    12350.806    9.8214479    0.1543681 
   70200   -685.48582    32.327444   -653.15837     980.7686   -4263.4315    9.6406796   0.18821206 
   70300   -689.87078    34.568803   -655.30198    1048.7682   -1212.2247    9.7374507    0.1552086 
   70400   -687.23807    36.617683   -650.62038    1110.9283    7328.9903    9.7844832   0.16225232 
   70500   -687.17227    37.477215   -649.69506    1137.0053   -8518.2542       9.6048   0.18006988 
   70600   -690.65424    34.157384   -656.49685    1036.2864    4851.6836    9.8213552   0.14316123 
   70700   -689.28976    36.346048   -652.94371    1102.6873   -1833.0082    9.7202886   0.15610172 
   70800   -686.05956    34.753261    -651.3063    1054.3644    1177.7755    9.6891406   0.17437162 
   70900   -689.87779     32.48812   -657.38967    985.64326    2403.4064     9.780067   0.15784645 
   71000   -688.60908    33.146533   -655.46255    1005.6186    607.63777    9.7395617   0.15088615 
   71100   -685.53765    34.455386   -651.08226    1045.3273   -824.67271    9.6653057   0.17187506 
   71200   -688.90518    34.716404   -654.18878    1053.2462   -2980.6189    9.6998236     0.163173 
   71300   -689.96874    34.497597   -655.47114    1046.6079    8432.5454    9.8418376   0.13572017 
   71400    -685.6022     35.25949   -650.34271    1069.7227   -794.23817    9.6638466   0.18651126 
   71500   -686.12344    32.609634   -653.51381    989.32984   -6289.0876    9.6330594   0.20680953 
   71600   -687.60964    32.902227   -654.70741    998.20668      10338.2    9.8370597   0.15521405 
   71700   -685.46338    37.543624   -647.91976    1139.0201   -1330.4067    9.6397342   0.17565382 
   71800   -688.11347    36.203463      -651.91    1098.3615   -5487.3603    9.6531842   0.16428411 
   71900   -689.82885    33.828258   -656.00059    1026.3012    4238.8232    9.7964446   0.14418025 
   72000   -689.53831    38.450014    -651.0883    1166.5186   -5591.7839    9.6726433   0.17857267 
   72100   -688.07799    37.365349   -650.71264    1133.6115   -5927.8748    9.6510959   0.15888675 
   72200   -688.96876    33.221457    -655.7473    1007.8917    7117.0277    9.8180097   0.14139719 
   72300   -688.69254    37.396255   -651.29629    1134.5491   -4.2583415     9.718272   0.16937113 
   72400   -686.73897    35.829918   -650.90905    1087.0286   -878.38319    9.6813662   0.18116998 
   72500    -691.6431    35.071424   -656.57168     1064.017    2254.2808    9.7955736   0.14761068 
   72600   -686.55277    34.135867    -652.4169    1035.6336   -5889.7207    9.6287696   0.17321513 
   72700   -686.61336    35.261964    -651.3514    1069.7977   -3344.4073    9.6532072   0.18071934 
   72800   -688.68318    32.460515   -656.22267    984.80578     9072.084    9.8371159   0.13049533 
   72900   -688.27381    32.994963   -655.27885    1001.0202   -736.91694    9.7235313   0.17193092 
   73000   -685.62395     34.46274   -651.16121    1045.5504   -6362.4662    9.6084688   0.17789464 
   73100   -688.06959    34.217458   -653.85213    1038.1089    1980.2415    9.7474568   0.17127343 
   73200   -688.14561    31.381357   -656.76425    952.06566    1076.7745    9.7391859   0.14975332 
   73300   -685.06048     34.10434   -650.95614    1034.6771   -5097.4129    9.6179702    0.1923999 
   73400   -686.85865     36.74398   -650.11467      1114.76    582.04073    9.7030683   0.16397478 
   73500   -690.15092    37.503287   -652.64763    1137.7963    7730.4944    9.8396002   0.14486739 
   73600   -689.75635    33.945671   -655.81068    1029.8633   -6954.9337    9.6737391   0.17493996 
   73700   -686.37206    34.912013   -651.46005    1059.1807     2340.302    9.7269182   0.16194205 
   73800    -684.3917    34.382086   -650.00962    1043.1035    8724.2924    9.7560222   0.17129116 
   73900   -688.11498    33.698289   -654.41669    1022.3581   -5768.1969    9.6640015    0.1651858 
   74000   -690.21542    34.657994   -655.55743    1051.4742    5343.9353    9.8114848   0.14380856 
   74100   -686.36015    37.360562   -648.99959    1133.4662   -1551.8947    9.6741217   0.18086823 
   74200   -687.33035    35.053354   -652.27699    1063.4688   -810.71711    9.6969599   0.17097012 
   74300   -688.68975    32.387107   -656.30265    982.57868   -1296.4387    9.7170679   0.17437631 
   74400   -686.30887    35.829734   -650.47913    1087.0231    801.13537      9.70373   0.17513251 
   74500   -683.96315    33.676872   -650.28628    1021.7083    6520.7703    9.7364622   0.19269802 
   74600   -688.44644    32.026475   -656.41997    971.63761   -1306.5112    9.7244254   0.16739125 
   74700   -685.98692    33.436857   -652.55006    1014.4266    4965.2196    9.7333781   0.16538369 
   74800   -687.88733    36.738806   -651.14852     1114.603   -815.92359    9.7018666   0.17285062 
   74900   -689.53313    33.285833    -656.2473    1009.8447   -6030.8174    9.6800665   0.16910924 
   75000   -689.05286    36.428919   -652.62394    1105.2015    692.52737    9.7418223   0.16420328 
   75100   -686.87683     37.48938   -649.38745    1137.3744   -4624.5739    9.6437755   0.16591227 
   75200    -691.1841    36.503924   -654.68018    1107.4771    4203.3308    9.8125692   0.16123932 
   75300       -685.7    34.056171   -651.64383    1033.2157   -3165.3745    9.6487407   0.19769867 
   75400    -683.6916    34.172779   -649.51882    1036.7534   -3657.9831    9.6026598   0.19898948 
   75500   -690.36477     34.37501   -655.98976    1042.8888    4283.9313    9.8094659   0.14456706 
   75600   -688.03737    34.440728   -653.59664    1044.8826   -4137.8206    9.6796173   0.18531271 
   75700   -686.73308    36.677616   -650.05547    1112.7466   -6781.4508    9.6142761   0.18829885 
   75800   -690.35414    35.254688   -655.09945     1069.577    389.88063    9.7574667   0.15808376 
   75900   -687.27449    32.538703   -654.73579    987.17789    3937.0278    9.7570365    0.1728419 
   76000   -687.15524    37.456104   -649.69914    1136.3648    -2439.804    9.6776841   0.16590737 
   76100   -690.16787      36.3565   -653.81137    1103.0044    4108.0023    9.7885783   0.13842375 
   76200   -689.03453    32.236279   -656.79826    978.00278   -3612.7728    9.7087837   0.14738719 
   76300     -686.211    36.107816   -650.10318    1095.4597    7171.9747    9.7650737   0.18782962 
   76400   -685.90246    33.339881   -652.56258    1011.4845   -2071.5971    9.6567823   0.19059118 
   76500   -690.24601     35.06725   -655.17876    1063.8904    949.69341    9.7642354   0.15069081 
   76600   -685.94709    36.772288    -649.1748    1115.6188    507.58893    9.6905732   0.17127452 
   76700   -683.58502    33.322736   -650.26228    1010.9643    892.07914     9.656133   0.18677353 
   76800    -688.9692    33.895559   -655.07364     1028.343    788.37078    9.7423227   0.13451531 
   76900   -688.39119    34.071668   -654.31953    1033.6859    3441.8424    9.7652298   0.14832394 
   77000   -685.75962    36.646826   -649.11279    1111.8125   -8607.5906    9.5824563    0.1939508 
   77100   -689.66344    35.379006   -654.28443    1073.3486    6568.2514    9.8227077   0.15241509 
   77200   -689.31536    34.864556    -654.4508    1057.7409    1499.1579    9.7529022   0.15541975 
   77300    -683.5572      35.1962     -648.361    1067.8025   -10723.159    9.5159871   0.21789922 
   77400   -686.98749    35.201064   -651.78643    1067.9501    5969.3952    9.7613774   0.18243797 
   77500   -690.66218    36.069742   -654.59244    1094.3046   -3364.7155    9.7270617   0.15472188 
   77600   -688.82099     33.77224   -655.04875    1024.6016    522.16769    9.7381175   0.14594405 
   77700   -686.71862    38.204152   -648.51447    1159.0595    7679.2762    9.7672595   0.17067832 
   77800   -688.01289    34.814515   -653.19838    1056.2228    -3815.277    9.6788379   0.16515471 
   77900   -687.60453    31.936805   -655.66773    968.91717   -3124.7241    9.6835942    0.1723619 
   78000   -686.55427    36.902744   -649.65153    1119.5767    4175.2664     9.730441   0.17082195 
[...]
  481400   -688.14898    33.559546   -654.58943    1018.1488   -5561.6067    9.6614069   0.17323218 
  481500   -686.93106    34.973182   -651.95788    1061.0365    378.31707    9.7100314   0.17948991 
  481600   -688.71488    33.714065   -655.00081    1022.8367     3416.138     9.767225   0.15478197 
  481700   -689.16153    31.137245   -658.02429    944.65965   -3506.9444     9.704845   0.16124333 
  481800   -687.19607    35.211661    -651.9844    1068.2716    2180.6023    9.7252573   0.16341498 
  481900   -689.22502    36.581157   -652.64387    1109.8202   -519.09648    9.7275941    0.1485858 
  482000   -690.44801    33.502438   -656.94557    1016.4162   -221.75599    9.7673644   0.15168672 
  482100   -687.31598    35.694592   -651.62138    1082.9231   -5420.7062    9.6568878   0.18711358 
  482200   -688.54068    37.755243   -650.78543    1145.4403   -7834.1469    9.6327467   0.17796708 
  482300   -689.62641    36.090447   -653.53597    1094.9327    7978.9424    9.8386021   0.16626353 
  482400   -686.51765    35.389139   -651.12851    1073.6561   -7597.9842    9.6216893   0.18244403 
  482500   -685.40876    38.603865   -646.80489    1171.1863   -1022.1438    9.6514294   0.18379291 
  482600   -690.31794    37.751322   -652.56662    1145.3213     1558.921    9.7715864   0.16402919 
  482700    -687.7949    34.512286   -653.28261    1047.0536   -3648.0959    9.6776303   0.17191608 
  482800   -685.48217    34.103425   -651.37875    1034.6493     2088.953    9.7051239   0.16234043 
  482900   -683.57119    37.432977   -646.13821    1135.6632    2848.7973    9.6700193   0.18923155 
  483000   -687.11711    34.511025   -652.60609    1047.0153   -775.06667    9.7080315   0.17729076 
  483100   -688.00176    35.286834   -652.71493    1070.5523    1891.0795    9.7377826   0.16843428 
  483200   -687.09104    36.833097   -650.25795    1117.4637    1859.5748    9.7212598   0.16799276 
  483300    -679.4532    35.264344   -644.18886      1069.87    2719.6399    9.6121053    0.2151407 
  483400    -684.8364    35.910372   -648.92603    1089.4695    892.81371    9.6687748    0.1806914 
  483500   -686.74026     34.67557   -652.06469    1052.0074    2832.9971    9.7337062   0.15960612 
  483600   -687.75825    35.176739   -652.58151    1067.2121    3641.0128    9.7587549   0.16283251 
  483700   -688.15507    36.068616   -652.08645    1094.2704   -2165.2402     9.691315   0.16868072 
  483800    -691.6672    32.448652   -659.21855    984.44587   -4068.2536    9.7469663   0.15320911 
  483900   -689.77837    34.751817   -655.02656    1054.3206    8083.3439    9.8339965    0.1392253 
  484000   -685.51291    32.833462   -652.67945    996.12047   -2709.2677    9.6374486   0.18068495 
  484100   -686.33866    33.697305   -652.64135    1022.3282    -2182.946    9.6683826   0.17782766 
  484200   -692.86302    34.542779   -658.32024    1047.9787    3503.2667    9.8457864   0.12936838 
  484300   -688.63185    34.873645   -653.75821    1058.0167      87.9407    9.7257404   0.15120531 
  484400   -687.46634    34.783427   -652.68292    1055.2796    1109.2629     9.701251   0.16927481 
  484500   -686.75345    32.283582   -654.46987    979.43789   -524.92256    9.7010555   0.19266999 
  484600   -689.50369    31.600006   -657.90368    958.69916   -6683.9775    9.6876201   0.16557723 
  484700   -695.21559      35.9987   -659.21689    1092.1493    4599.3686    9.8861526   0.12916966 
  484800   -689.74462    35.148239   -654.59638    1066.3475   -968.54143    9.7409677   0.14934413 
  484900   -688.12012    34.748206   -653.37191    1054.2111   -3396.8255    9.6785895   0.16466441 
  485000   -689.15267    38.836579   -650.31609    1178.2465   -559.91172     9.721673   0.17516576 
  485100   -684.67708    40.373548   -644.30353    1224.8759   -5859.3568     9.591889   0.19484787 
  485200   -688.55931     38.03597   -650.52334    1153.9571    7021.7694    9.7887566   0.15894569 
  485300   -689.88366    36.906029   -652.97763    1119.6763   -5171.9544    9.6811678   0.15381907 
  485400   -687.30248    34.586163   -652.71632    1049.2949   -1794.8316    9.6835613   0.16808102 
  485500   -686.63623    38.175254   -648.46098    1158.1828      2176.22    9.7078077   0.17593136 
  485600    -685.7657    37.573514   -648.19219    1139.9269    11794.243    9.8162083   0.17971354 
  485700   -685.56657    32.273702   -653.29287    979.13813   -9387.9919    9.5759528   0.19273725 
  485800   -688.05428    34.761191   -653.29309     1054.605    449.80632    9.7351024   0.16052899 
  485900   -688.72521    37.224845   -651.50036    1129.3488    4323.2108    9.7753425   0.14730943 
  486000   -682.58788    38.380947   -644.20694    1164.4232   -12599.637    9.4870986    0.2284963 
  486100   -685.95585    35.381175   -650.57468    1073.4144    7539.2168     9.762937   0.17518875 
  486200    -688.6086    35.721217   -652.88738    1083.7308    -4497.341    9.6773454   0.16291946 
  486300   -688.46861    33.771552   -654.69705    1024.5808   -4654.1707    9.6824352   0.17681392 
  486400   -686.54364    33.571874   -652.97177    1018.5228    8522.2887    9.7764969   0.15748496 
  486500    -684.1717    34.745472   -649.42623    1054.1281   -1195.7874    9.6389924   0.18329088 
  486600   -686.93264    33.165101   -653.76754    1006.1819    5100.5682    9.7678065   0.15595224 
  486700   -686.37472    31.841601   -654.53312     966.0288   -5632.7328    9.6399313    0.1774949 
  486800   -684.39852    36.206936   -648.19158    1098.4669    2325.1519    9.6832176   0.18346892 
  486900   -689.85236      36.6914   -653.16096    1113.1648    4488.8308     9.798392   0.15179823 
  487000   -689.27516     35.38635   -653.88881    1073.5714   -7983.5486    9.6598213   0.15412553 
  487100   -685.52412    37.150228   -648.37389     1127.085    2611.6876    9.7027032   0.18451888 
  487200    -684.5559    33.831864   -650.72404    1026.4105    668.87206    9.6670472   0.19315475 
  487300   -688.40294    33.448766   -654.95417    1014.7879   -5079.9628    9.6779481   0.17236717 
  487400    -688.1462    35.755531   -652.39067    1084.7719    10607.479    9.8407718   0.14439512 
  487500   -684.74468    37.244187    -647.5005    1129.9356    821.43575     9.677766   0.17059306 
  487600   -688.17733    33.913734   -654.26359    1028.8944   -792.05342    9.7180008   0.16995841 
  487700   -687.87341    34.154977   -653.71843    1036.2133    2908.6456    9.7634218   0.15838983 
  487800   -684.63279    35.762176   -648.87062    1084.9735   -4726.2481    9.6170657   0.21157755 
  487900    -687.6998    37.873562   -649.82624    1149.0299    453.50437    9.7114796   0.17808549 
  488000   -689.55263    35.916088   -653.63654    1089.6429   -10677.602    9.6302817    0.1771321 
  488100   -690.20116    37.392705   -652.80846    1134.4414    6782.7862    9.8220946   0.14486824 
  488200   -684.51458    36.009762   -648.50482    1092.4849    -2390.955    9.6351484   0.17450651 
  488300   -684.12552    36.128662   -647.99686    1096.0921   -2136.8157    9.6062515    0.1981122 
  488400   -686.91362    33.438007   -653.47561    1014.4615    -3752.577    9.6639738   0.17900094 
  488500   -689.28757    36.049974    -653.2376    1093.7048    2400.3701    9.7628213   0.15131002 
  488600   -686.66654    36.940182   -649.72636    1120.7125   -2818.9482    9.6582556   0.17955683 
  488700   -684.74001    38.566446   -646.17357     1170.051   -1605.3442    9.6433915   0.18294183 
  488800   -689.61613    37.473491   -652.14264    1136.8923    4470.9905    9.7860367   0.15926908 
  488900   -687.63844    34.407478   -653.23096    1043.8739   -8666.8288     9.613111     0.185697 
  489000   -685.54671    33.878157   -651.66855     1027.815    606.77578    9.6811254   0.17899814 
  489100   -682.87951    36.826208   -646.05331    1117.2547    5779.6495    9.6843805    0.1904754 
  489200   -688.06431    34.470751   -653.59356    1045.7935    -3511.139    9.6804477   0.15998107 
  489300   -688.50017     34.67725   -653.82292    1052.0584   -519.51782    9.7225671   0.15423495 
  489400   -687.49681     36.07542   -651.42139    1094.4768    1611.3107    9.7300311   0.15778687 
  489500   -681.82648    37.087881    -644.7386    1125.1935   -3169.2677    9.5752547   0.21887013 
  489600   -687.21286    38.042719   -649.17014    1154.1619   -1346.9844      9.68076   0.17820366 
  489700   -688.90317    36.426621   -652.47655    1105.1318    3299.8218     9.771436   0.15745144 
  489800   -686.03964    33.262745   -652.77689    1009.1443    1524.7675     9.709249   0.15789857 
  489900    -690.2253    35.407589   -654.81771    1074.2158   -7557.7189    9.6669707   0.16016328 
  490000   -696.19123    35.337247   -660.85398    1072.0817    9778.3353    9.9620679   0.10446602 
  490100   -688.13552    32.206927    -655.9286    977.11227   -6367.5209    9.6592462   0.17903899 
  490200   -686.77145    33.275311   -653.49614    1009.5255   -5080.2938    9.6439374    0.1982407 
  490300   -687.24251    34.996498   -652.24602    1061.7439    3873.6901    9.7418918   0.16873426 
  490400   -688.57454    32.808809   -655.76574    995.37251   -568.10446     9.728898   0.16685063 
  490500   -690.36973    32.832471   -657.53726    996.09038   -238.70369    9.7534694   0.15924508 
  490600   -687.56256     34.64877   -652.91379    1051.1943    4938.1012    9.7779652   0.17759729 
  490700   -687.30526    35.907437   -651.39782    1089.3805   -7444.9921    9.6292092   0.17651089 
  490800   -683.83331    30.912373   -652.92094    937.83736   -790.10526    9.6297843   0.18728917 
  490900   -691.61707    33.759473    -657.8576    1024.2143    -6683.989    9.7141522   0.15038641 
  491000   -689.50175    37.412041   -652.08971     1135.028    7495.1864    9.8153788   0.14838074 
  491100   -687.59266    35.491512   -652.10115    1076.7619    -2763.376    9.6727569   0.16881717 
  491200   -689.29983    32.006216   -657.29361    971.02298    2243.4308    9.7611225   0.16138469 
  491300   -683.36162    31.578826   -651.78279    958.05659    163.97318    9.6617471   0.19243824 
  491400   -686.00754     35.07739   -650.93015     1064.198    3235.0175    9.7133195   0.18908967 
  491500   -689.76944    33.331635    -656.4378    1011.2343   -5864.7839    9.6959709   0.16717424 
  491600   -687.24914    34.553071   -652.69607     1048.291    4926.9662    9.7692354   0.17727169 
  491700   -685.07627    35.794546   -649.28172    1085.9555    1907.6532    9.6906509   0.16740583 
  491800   -688.18322    32.892842   -655.29038    997.92196   -1851.5269    9.6906059   0.16578071 
  491900   -687.70957    33.553601   -654.15597    1017.9684   -1593.0732    9.6905433   0.18596921 
  492000   -682.90898    34.275567   -648.63342    1039.8719    5568.5333    9.6903944   0.19738873 
  492100   -688.90528    35.348457   -653.55682    1072.4218    2478.3368    9.7631378   0.17128706 
  492200   -689.49967    34.242088   -655.25758    1038.8562   -3367.0515    9.7082585   0.16723174 
  492300   -684.49924    34.311447   -650.18779    1040.9604   -11396.975    9.5437482   0.19696091 
  492400   -687.02701    34.961759   -652.06525    1060.6899      8172.97    9.7915152   0.18212307 
  492500   -690.00422    34.280338   -655.72388    1040.0166   -3126.6573    9.7124042   0.17084806 
  492600   -684.82109    34.580762   -650.24033    1049.1311    -225.7728    9.6684426    0.1607223 
  492700   -688.34177    35.776662   -652.56511     1085.413    647.93892    9.7330476    0.1509128 
  492800   -691.37783    35.097379   -656.28045    1064.8045    6930.2001    9.8502482   0.12652643 
  492900   -688.43875    37.795848    -650.6429    1146.6722    -8690.011    9.6211007   0.16270463 
  493000   -687.73405    36.637251    -651.0968     1111.522    3861.6555    9.7485239   0.16132971 
  493100   -690.57884    33.931156   -656.64768    1029.4229   -1722.8347    9.7532062   0.16586425 
  493200   -687.00497    34.151065    -652.8539    1036.0947    2189.3345    9.7288799   0.17999143 
  493300   -685.34829    34.769752   -650.57854    1054.8647   -4556.3213    9.6304283   0.20302113 
  493400   -690.40359    34.827905   -655.57568     1056.629    -6450.084    9.6868549     0.162406 
  493500   -686.39344    33.683166   -652.71028    1021.8993     8899.754    9.7932351   0.18110354 
  493600   -684.29845     34.05835    -650.2401    1033.2818    2787.5561    9.6769378   0.19116388 
  493700   -687.93102    32.333868   -655.59715    980.96347   -9324.3846     9.629064   0.18078296 
  493800   -691.46187    38.126663    -653.3352    1156.7086    1579.9901    9.7802287   0.14618213 
  493900   -685.77346    36.896871   -648.87658    1119.3985    9562.4913    9.7769142   0.16617045 
  494000   -686.18448    31.638023   -654.54645    959.85254   -219.91574    9.6919913   0.18743637 
  494100   -690.49068    35.262513   -655.22817    1069.8144    -1331.597    9.7369897   0.15799095 
  494200   -686.37249    37.425197    -648.9473    1135.4272   -5098.5774    9.6301782    0.2029541 
  494300    -687.7711    36.107297    -651.6638    1095.4439   -6937.7091    9.6368337   0.16670944 
  494400   -690.72875    35.711123   -655.01763    1083.4246    10699.274    9.8765732   0.13657557 
  494500   -688.44423    37.269474   -651.17476    1130.7028   -2898.8612    9.6851234   0.16610744 
  494600   -685.43378    35.564296   -649.86948    1078.9701   -4363.8935    9.6215109   0.19406499 
  494700   -689.48274    32.855052   -656.62768    996.77547   -203.75179    9.7468447   0.15470824 
  494800   -688.02878    34.676056   -653.35273    1052.0221    2602.0573    9.7475401   0.15069511 
  494900   -686.46284    36.210051   -650.25279    1098.5613    741.70798    9.6882773   0.16611313 
  495000   -688.95821    32.741894   -656.21632    993.34241   -8636.2953    9.6413667   0.16423041 
  495100    -689.7504    35.219437   -654.53096    1068.5076    8304.3684    9.8396039   0.13112363 
  495200   -686.91224    37.208269   -649.70398    1128.8459    1735.0498     9.715712   0.15779241 
  495300   -688.44831    34.678368   -653.76995    1052.0923   -10464.127    9.6164696   0.18317817 
  495400   -691.75295    35.909084   -655.84387    1089.4305    7674.8865    9.8672608   0.13721472 
  495500   -684.27554    33.676374   -650.59917    1021.6932   -8216.1415    9.5679967   0.21606691 
  495600   -683.67996    33.215158    -650.4648    1007.7006   -1161.5824    9.6347208    0.2143409 
  495700    -686.9628    33.588677   -653.37413    1019.0326    1713.6704    9.7140303   0.17937336 
  495800   -689.31872    34.493425    -654.8253    1046.4814   -2810.3464    9.7103453    0.1510437 
  495900    -687.2069    38.279662   -648.92723    1161.3504    3547.8332    9.7298561   0.15100103 
  496000   -686.16086    36.323937   -649.83693    1102.0165   -3043.1308    9.6480461   0.17133408 
  496100   -687.11154    32.100556   -655.01098    973.88513    5628.5407    9.7749702   0.15575042 
  496200   -690.37444    37.895368   -652.47907    1149.6915   -3188.1385    9.7247838   0.15081042 
  496300   -685.58141    37.558943   -648.02247    1139.4848   -293.91679    9.6722446    0.1858144 
  496400   -689.42614    35.008126   -654.41801    1062.0967   -7784.4105    9.6679087   0.17812066 
  496500   -689.25179    36.204974   -653.04682    1098.4073    12688.898    9.8720356   0.15513056 
  496600   -685.34825    36.687522   -648.66073    1113.0472   -8572.2115    9.5732502   0.21137321 
  496700   -687.85959    34.265195    -653.5944    1039.5572   -1936.3757    9.7006604   0.17059944 
  496800   -691.15237    36.380817   -654.77155    1103.7422    4103.2762    9.8107076   0.15283767 
  496900   -687.37722    36.333332   -651.04389    1102.3015   -7165.7995    9.6352156   0.16732994 
  497000   -685.95078    36.048894   -649.90189    1093.6721    2477.4578    9.7052795   0.17891025 
  497100   -690.07034    35.953905   -654.11644    1090.7903   -2168.0187    9.7273283   0.15202615 
  497200   -691.17254     35.41894    -655.7536    1074.5602   -1532.4044    9.7482765   0.13338013 
  497300   -690.24804     36.40773   -653.84031    1104.5586   -3149.8928    9.7264276    0.1407414 
  497400   -686.94828    35.371791   -651.57649    1073.1297     2262.246    9.7194599    0.1712977 
  497500    -685.3544     37.38994   -647.96446    1134.3575   -5054.7631    9.6115833   0.18719077 
  497600   -691.24042    36.314096   -654.92633    1101.7179    -2516.167     9.738566   0.13781796 
  497700    -690.3078    36.912978   -653.39482    1119.8872   -3504.7531    9.7179686    0.1537385 
  497800   -684.61213    35.562661   -649.04947    1078.9205    4087.4023    9.7039762   0.18331595 
  497900   -687.26588    34.485202   -652.78067    1046.2319   -1485.5684     9.685994    0.1886989 
  498000   -686.64831     31.91286   -654.73545     968.1907    11465.983    9.8341218     0.151724 
  498100   -687.80647    36.592608   -651.21386    1110.1676   -11612.239    9.5877204   0.16306174 
  498200   -688.52573    37.606953   -650.91878    1140.9414    6602.2162    9.7981667   0.15615743 
  498300   -689.86143    32.932013   -656.92942    999.11034    4296.7432    9.7979901   0.13776145 
  498400   -688.74889    35.539668   -653.20922    1078.2229   -27.916982    9.7159619   0.16113665 
  498500   -686.25701    34.600716    -651.6563    1049.7364    6590.4061    9.7664086   0.17220551 
  498600   -688.75245    33.267538   -655.48491    1009.2897   -2085.9631      9.71145    0.1757619 
  498700   -690.75492    31.885539   -658.86938    967.36183    1371.3891    9.7840088   0.15940605 
  498800   -686.65769    32.948403   -653.70929    999.60761    7022.6742     9.785354   0.15503852 
  498900   -688.26739    36.412942   -651.85444    1104.7168   -4583.8938     9.669567   0.18966457 
  499000    -686.7207    36.191597    -650.5291    1098.0015    111.18267    9.7039731   0.17372061 
  499100   -690.95865    33.977678   -656.98098    1030.8343    6556.0016    9.8474512   0.14376547 
  499200   -686.11708    32.914158   -653.20293    998.56866     375.2811    9.7015076   0.16670134 
  499300   -685.35746    33.615295   -651.74216    1019.8401    2906.3388    9.7113781   0.18500682 
  499400   -689.84848    33.152932   -656.69555    1005.8127   -3164.7704    9.7112908   0.15915761 
  499500   -690.60606    34.288152    -656.3179    1040.2537    2892.7589    9.7926064   0.14076777 
  499600   -688.71744    37.309099   -651.40835    1131.9049    3917.4948    9.7642888    0.1558281 
  499700   -686.66243    33.197673   -653.46476    1007.1701    1618.0064     9.717708   0.18184194 
  499800   -690.32607    32.694834   -657.63123    991.91469   -4721.4705    9.7073066    0.1572359 
  499900   -687.36843    36.176746   -651.19169    1097.5509    6006.4458    9.7677999   0.15929387 
  500000   -687.03869    36.083155   -650.95553    1094.7115   -6992.6936    9.6224851   0.16992896 
Loop time of 358.025 on 1 procs for 500000 steps with 256 atoms

Performance: 603.311 ns/day, 0.040 hours/ns, 1396.552 timesteps/s
100.0% CPU use with 1 MPI tasks x no OpenMP threads

MPI task timing breakdown:
Section |  min time  |  avg time  |  max time  |%varavg| %total
---------------------------------------------------------------
Pair    | 216.62     | 216.62     | 216.62     |   0.0 | 60.50
Neigh   | 12.104     | 12.104     | 12.104     |   0.0 |  3.38
Comm    | 3.7706     | 3.7706     | 3.7706     |   0.0 |  1.05
Output  | 0.15091    | 0.15091    | 0.15091    |   0.0 |  0.04
Modify  | 124.53     | 124.53     | 124.53     |   0.0 | 34.78
Other   |            | 0.8539     |            |       |  0.24

Nlocal:    256 ave 256 max 256 min
Histogram: 1 0 0 0 0 0 0 0 0 0
Nghost:    1431 ave 1431 max 1431 min
Histogram: 1 0 0 0 0 0 0 0 0 0
Neighs:    11813 ave 11813 max 11813 min
Histogram: 1 0 0 0 0 0 0 0 0 0

Total # of neighbors = 11813
Ave neighs/atom = 46.1445
Neighbor list builds = 21995
Dangerous builds = 0
Total wall time: 0:05:58
