LAMMPS (3 Mar 2020)
Reading data file ...
  orthogonal box = (0 0 0) to (16.36 16.36 16.36)
  1 by 1 by 1 MPI processor grid
  reading atoms ...
  256 atoms
  read_data CPU = 0.001033 secs
Reading potential file /usr/share/lammps-stable/potentials/Ag_u3.eam with DATE: 2007-06-11
Neighbor list info ...
  update every 1 steps, delay 10 steps, check yes
  max neighbors/atom: 2000, page size: 100000
  master list distance cutoff = 7.55
  ghost atom cutoff = 7.55
  binsize = 3.775, bins = 5 5 5
  2 neighbor lists, perpetual/occasional/extra = 1 1 0
  (1) pair eam, perpetual
      attributes: half, newton on
      pair build: half/bin/atomonly/newton
      stencil: half/bin/3d/newton
      bin: standard
  (2) compute rdf, occasional, copy from (1)
      attributes: half, newton on
      pair build: copy
      stencil: none
      bin: none
Setting up Verlet run ...
  Unit style    : metal
  Current step  : 0
  Time step     : 0.005
Per MPI rank memory allocation (min/avg/max) = 3.744 | 3.744 | 3.744 Mbytes
Step PotEng KinEng TotEng Temp Press Density c_msdall[4] 
       0       -729.6    72.514941   -657.08506         2200    17688.674    10.472245            0 
     100   -681.53916    47.526419   -634.01274    1441.8838     79607.41    10.472245    0.1108152 
     200   -662.34495    64.286681   -598.05827    1950.3663    110476.17    10.472245   0.20087175 
     300   -652.86575    81.738728   -571.12702    2479.8366    127417.57    10.472245   0.21725558 
     400   -652.62612    71.037024   -581.58909    2155.1621    123579.07    10.472245   0.26056114 
     500   -659.51405    75.248141   -584.26591    2282.9214    115613.66    10.472245   0.18805911 
     600   -655.10877    74.861651   -580.24712    2271.1958    121201.33    10.472245   0.21393678 
     700   -654.84617    70.853375    -583.9928    2149.5904    122400.06    10.472245   0.19726467 
     800   -659.04365    72.570381   -586.47327     2201.682    115181.21    10.472245   0.18651128 
     900   -654.42079    73.710437   -580.71036    2236.2696    122805.09    10.472245   0.26212793 
    1000   -643.47495    69.499328   -573.97563    2108.5106    137650.96    10.472245   0.25444293 
    1100   -654.92558     67.71992   -587.20566    2054.5259    120571.98    10.472245   0.20587846 
    1200   -648.76465     67.22601   -581.53864    2039.5414    127938.26    10.472245   0.22195352 
    1300   -651.50684    78.633977   -572.87286    2385.6428     126979.5    10.472245   0.22569249 
    1400   -660.06548    73.417037   -586.64844    2227.3683    115215.86    10.472245   0.18948172 
    1500    -655.2329    71.106259   -584.12664    2157.2626    121448.44    10.472245   0.20344176 
    1600    -650.7104    76.051433   -574.65897    2307.2921    128263.72    10.472245   0.24135133 
    1700   -659.60385    72.456089   -587.14776    2198.2145    114722.75    10.472245   0.20067859 
    1800   -656.56067    70.160195   -586.40047    2128.5603    118789.83    10.472245   0.19837349 
    1900    -649.2312    71.397181   -577.83402    2166.0888    127767.83    10.472245   0.21615922 
    2000   -658.10422    74.523668   -583.58055    2260.9419    117229.24    10.472245   0.23198863 
    2100   -659.91076    72.054976   -587.85578    2186.0453    113104.71    10.472245   0.21812126 
    2200   -653.25484    71.528743   -581.72609    2170.0801    123039.31    10.472245   0.20378246 
    2300   -651.15293     72.96058   -578.19235      2213.52    126654.01    10.472245    0.2012412 
    2400   -651.21802    60.127008   -591.09101    1824.1678    124040.67    10.472245   0.21476862 
    2500   -655.63388    73.201676   -582.43221    2220.8345    119196.13    10.472245   0.22217194 
    2600   -655.65877    75.595429   -580.06334    2293.4576    120469.01    10.472245   0.20579622 
    2700   -659.47651    77.067995   -582.40852    2338.1332    117865.17    10.472245   0.20226993 
    2800   -654.43115    75.503652    -578.9275    2290.6732    123166.02    10.472245   0.18492257 
    2900   -641.52064    72.036499   -569.48414    2185.4847    138883.84    10.472245   0.39977172 
    3000   -654.50259    77.062399   -577.44019    2337.9634    121948.57    10.472245   0.22582066 
    3100   -658.24512    72.708055   -585.53706    2205.8588    117412.97    10.472245   0.22033831 
    3200   -651.84267    71.708316   -580.13436    2175.5281    126343.38    10.472245   0.20678587 
    3300   -648.21704     73.29869   -574.91835    2223.7778     130662.8    10.472245   0.25525354 
    3400   -655.18849    67.059641   -588.12884     2034.494    120131.91    10.472245   0.24230849 
    3500   -653.71042    73.595296   -580.11512    2232.7764    123749.51    10.472245   0.21121435 
    3600   -658.04886    76.441997   -581.60686    2319.1413     118606.1    10.472245   0.21526755 
    3700   -652.23573    71.208807   -581.02692    2160.3737     125362.7    10.472245   0.25551741 
    3800   -648.19606    71.789065   -576.40699    2177.9779    129166.91    10.472245    0.2603092 
    3900   -655.71739    67.558313   -588.15908    2049.6229    120730.35    10.472245   0.22314988 
    4000   -657.09875    78.210838   -578.88791    2372.8054     119309.6    10.472245   0.18121532 
    4100   -653.82191    74.993234   -578.82868    2275.1879     122017.4    10.472245   0.25648579 
    4200   -659.82439    68.889265   -590.93512    2090.0022     113939.6    10.472245   0.21242996 
    4300   -652.82188     74.62294   -578.19894    2263.9537    124980.54    10.472245   0.23955902 
    4400    -648.4822    71.270766   -577.21144    2162.2535    128607.24    10.472245   0.23982929 
    4500   -658.54412    69.361297   -589.18282    2104.3229    115961.85    10.472245   0.20354504 
    4600   -652.51897    69.291176    -583.2278    2102.1955     123617.1    10.472245   0.23952551 
    4700   -651.60107    73.536048   -578.06502    2230.9789    126207.13    10.472245   0.23792278 
    4800   -653.32964    66.073563   -587.25608    2004.5778    121339.24    10.472245   0.22878013 
    4900   -651.04422    74.685799   -576.35842    2265.8607    126655.96    10.472245   0.21345859 
    5000   -650.39033    72.000577   -578.38976    2184.3949    128302.86    10.472245   0.25445195 
    5100   -656.07948    69.515646   -586.56383    2109.0057    120629.46    10.472245   0.23023714 
    5200    -655.4996     73.09069    -582.4089    2217.4674    120515.42    10.472245   0.21216202 
    5300   -659.61663    74.875918   -584.74071    2271.6287    116559.16    10.472245   0.18480981 
    5400   -663.16495    68.523318   -594.64164    2078.8998    109273.75    10.472245   0.16313491 
    5500   -658.17491    75.379738   -582.79517    2286.9139    118045.48    10.472245   0.19248083 
    5600   -656.19148    73.578887   -582.61259    2232.2786    119897.43    10.472245   0.21612475 
    5700    -656.8951    69.675698    -587.2194    2113.8614    119868.49    10.472245   0.17667616 
    5800   -653.07687    70.204715   -582.87215     2129.911    124088.25    10.472245   0.21173662 
    5900   -649.84052    73.269702   -576.57082    2222.8984       128969    10.472245   0.26097138 
    6000   -660.08398    68.623977      -591.46    2081.9537    115741.15    10.472245   0.17556118 
    6100   -650.78036    65.913233   -584.86712    1999.7136    126641.33    10.472245   0.20561482 
    6200   -652.37362    71.695741   -580.67788    2175.1466    124959.03    10.472245   0.25114016 
    6300   -655.12443    75.298601   -579.82583    2284.4523    122206.82    10.472245   0.18469537 
    6400   -658.93755    65.822517   -593.11503    1996.9614    115543.96    10.472245   0.21116561 
    6500   -658.06986    75.960494   -582.10937    2304.5331    119791.42    10.472245   0.18730289 
    6600   -654.95005    72.309153    -582.6409    2193.7567     122775.4    10.472245   0.19825854 
    6700   -662.26958    66.050228   -596.21935    2003.8698    109569.98    10.472245   0.18037422 
    6800   -660.57439    74.991687    -585.5827    2275.1409    114918.91    10.472245   0.20552213 
    6900   -654.33305    73.004169   -581.32888    2214.8425    122989.71    10.472245   0.19928246 
    7000   -661.62995    76.028818   -585.60113     2306.606     113461.6    10.472245   0.20158478 
    7100   -657.33034    70.167306   -587.16303    2128.7761     116509.9    10.472245   0.25246254 
    7200   -653.93913    75.899154   -578.03997    2302.6722    122479.97    10.472245   0.21220689 
    7300   -657.12455    69.985061   -587.13949     2123.247    118340.83    10.472245   0.18997961 
    7400   -653.35624    73.285082   -580.07115     2223.365    123727.99    10.472245   0.20250915 
    7500   -649.87002    70.219031   -579.65099    2130.3454    128006.28    10.472245   0.24213747 
    7600   -656.48289    66.727056   -589.75584    2024.4038    118897.77    10.472245   0.20181936 
    7700   -651.72918    74.911463   -576.81772     2272.707     125703.1    10.472245   0.20234886 
    7800   -652.54716    73.378576   -579.16858    2226.2015    125870.32    10.472245   0.21652118 
    7900   -657.98364     68.35609   -589.62755    2073.8264    115784.98    10.472245    0.2306237 
    8000   -655.44004    71.791603   -583.64844    2178.0549    120820.37    10.472245   0.21952998 
    8100   -652.98811    73.122012    -579.8661    2218.4177    123992.95    10.472245   0.22445418 
    8200   -662.82148     71.27697   -591.54451    2162.4417    112076.85    10.472245   0.17511681 
    8300   -652.60785    71.075943    -581.5319    2156.3429    124944.83    10.472245   0.21825756 
    8400   -649.13582     66.90392    -582.2319    2029.7696    128107.44    10.472245   0.24913992 
    8500   -658.26523    67.801753   -590.46348    2057.0086     115462.4    10.472245   0.19274399 
    8600   -658.82334    68.998813   -589.82453    2093.3257    114468.02    10.472245   0.16975186 
    8700   -653.37144    71.490531   -581.88091    2168.9208    124092.39    10.472245   0.19395428 
    8800   -659.66577    77.672953   -581.99282    2356.4867    116686.72    10.472245    0.1982254 
    8900   -654.89382    72.745577   -582.14824    2206.9971    122011.58    10.472245   0.23893099 
    9000   -654.11822    66.497108   -587.62111    2017.4275    121590.28    10.472245   0.22856807 
    9100   -649.71069    69.363779   -580.34691    2104.3982    126456.08    10.472245   0.23655994 
    9200    -652.7575    74.856257   -577.90124    2271.0322    125584.45    10.472245   0.24626887 
    9300   -663.80005    74.535623   -589.26443    2261.3046    110796.48    10.472245   0.16651847 
    9400   -656.55425    74.586025   -581.96823    2262.8337     121878.7    10.472245   0.20199132 
    9500   -650.45334    74.403968   -576.04937    2257.3104    128531.57    10.472245   0.24615889 
    9600   -651.58913    70.155991   -581.43314    2128.4328    124442.19    10.472245   0.22765741 
    9700   -664.93025    79.057717   -585.87254    2398.4985    109174.82    10.472245   0.17907625 
    9800   -651.88214    78.481394   -573.40075    2381.0137    128630.97    10.472245   0.23013328 
    9900   -653.13111    70.783687   -582.34742    2147.4762    124595.93    10.472245   0.19891283 
   10000    -659.1046    76.508273   -582.59632     2321.152    117159.93    10.472245   0.17572604 
   10100   -655.96201    66.990421   -588.97159    2032.3939     118547.6    10.472245   0.19093402 
   10200   -655.99149    67.903246   -588.08825    2060.0877    119865.72    10.472245   0.22017121 
   10300   -655.45632    75.460139   -579.99618    2289.3531    120680.72    10.472245   0.20652597 
   10400   -660.81156    74.002004   -586.80956    2245.1153    113958.79    10.472245   0.17938656 
   10500   -662.63791     70.37243   -592.26548    2134.9993    110393.67    10.472245   0.18769918 
   10600   -651.47783    72.479285   -578.99855    2198.9183    127259.37    10.472245   0.22909207 
   10700   -660.92384    75.464161   -585.45968    2289.4751    114218.88    10.472245   0.17049216 
   10800   -658.80819    68.923072   -589.88512    2091.0278    116496.15    10.472245   0.18953935 
   10900   -656.05138    73.996857   -582.05453    2244.9592    123099.73    10.472245   0.18152242 
   11000   -657.76754    79.756586   -578.01096    2419.7012    119707.12    10.472245   0.22669524 
   11100   -653.45948    80.391153   -573.06832     2438.953    124585.29    10.472245   0.29205794 
   11200   -657.76273     71.25049   -586.51224    2161.6383    118330.88    10.472245   0.18914728 
   11300   -657.04879     72.59582   -584.45297    2202.4537    119090.92    10.472245   0.19791199 
   11400   -648.92143    80.807628    -568.1138    2451.5883    130762.12    10.472245   0.23748286 
   11500   -651.73769    71.376906   -580.36078    2165.4736    123922.12    10.472245   0.23831594 
   11600   -651.99071     66.24427   -585.74644    2009.7568    124726.39    10.472245    0.2224576 
   11700   -654.90975    75.854353    -579.0554     2301.313    123453.87    10.472245   0.23081089 
   11800   -648.08581    75.314998   -572.77082    2284.9497    131105.03    10.472245   0.24722464 
   11900   -660.32012    73.604818    -586.7153    2233.0653    115191.82    10.472245   0.18893566 
   12000   -659.26266    80.193151   -579.06951    2432.9459    118580.38    10.472245   0.22171263 
   12100   -646.16367    68.812288   -577.35138    2087.6668    133831.74    10.472245   0.25068824 
   12200   -659.44851     71.41951     -588.029    2166.7662    116017.62    10.472245   0.16938503 
   12300   -656.04824    77.496324   -578.55191    2351.1281    122472.95    10.472245    0.2114993 
   12400   -651.37861    76.753045   -574.62556     2328.578    127741.12    10.472245   0.23860863 
   12500   -654.06139      71.0873   -582.97409    2156.6874    121925.79    10.472245   0.25300372 
   12600   -658.85552    73.607489   -585.24803    2233.1463    116439.29    10.472245    0.2723941 
   12700    -649.3177    76.962693   -572.35501    2334.9384     130593.7    10.472245   0.22367983 
   12800   -655.87714    70.915666   -584.96147    2151.4803    120245.04    10.472245   0.19819276 
   12900   -655.34913    70.346599   -585.00253    2134.2156    121111.16    10.472245   0.21141969 
   13000   -647.92566    75.886431   -572.03923    2302.2862    131325.75    10.472245   0.22714562 
   13100   -655.77617     74.04037    -581.7358    2246.2793    121285.57    10.472245   0.24137086 
   13200   -648.12863    66.002248   -582.12638    2002.4142    128782.45    10.472245   0.25610493 
   13300   -646.91048    76.322896   -570.58758    2315.5279    133972.43    10.472245   0.25568346 
   13400   -656.13286    74.490684   -581.64218    2259.9412    121241.12    10.472245   0.20935881 
   13500   -657.21877    71.888333   -585.33044    2180.9896    118268.15    10.472245   0.20167647 
   13600   -656.40884     77.16682   -579.24202    2341.1314    120456.67    10.472245   0.21148292 
   13700    -642.5107    72.294279   -570.21642    2193.3054    135566.89    10.472245   0.26064892 
   13800   -655.11975    73.167398   -581.95236    2219.7946    121606.85    10.472245    0.2049776 
   13900   -660.05506    73.064458    -586.9906    2216.6715    115420.51    10.472245    0.2144341 
   14000   -653.07316    75.645685   -577.42748    2294.9823     124715.1    10.472245   0.22693424 
   14100   -652.54145    73.177654    -579.3638    2220.1058    125210.27    10.472245   0.20338258 
   14200    -658.2149    71.982221   -586.23268     2183.838    117069.88    10.472245   0.19527915 
   14300   -652.89648    72.700268   -580.19621    2205.6226    123291.11    10.472245   0.23390579 
   14400   -650.10219    81.042342   -569.05985    2458.7092    130486.12    10.472245   0.21887191 
   14500   -660.29071    78.009368   -582.28134    2366.6931    116966.92    10.472245   0.18450898 
   14600   -655.72693    69.228586   -586.49834    2100.2967    118673.78    10.472245   0.19814248 
   14700   -648.32139    75.473571   -572.84782    2289.7606    130541.33    10.472245   0.23397053 
   14800   -656.54945    75.459326   -581.09012    2289.3284    120559.86    10.472245    0.2046048 
   14900   -650.45599    65.673325   -584.78266    1992.4351    126457.51    10.472245   0.23982191 
   15000    -660.7543    82.503232   -578.25107    2503.0305    116557.81    10.472245   0.17206101 
   15100   -659.53885    77.281444    -582.2574    2344.6089    117080.02    10.472245   0.19239885 
   15200   -658.70801    69.602772   -589.10524    2111.6489    116748.78    10.472245   0.19753212 
   15300   -654.47181    72.114852   -582.35696    2187.8618    122064.51    10.472245   0.19189447 
   15400   -654.71414    71.311956   -583.40218    2163.5031    121302.19    10.472245   0.20517218 
   15500   -660.54136    74.376887   -586.16447    2256.4888    115064.65    10.472245   0.17517288 
   15600   -659.65866    69.451653   -590.20701    2107.0642    115288.45    10.472245   0.18265546 
   15700     -651.193    72.626694   -578.56631    2203.3904    126084.99    10.472245   0.26452557 
   15800   -653.79251    71.906159   -581.88636    2181.5304    121709.28    10.472245   0.20235858 
   15900   -654.82049    71.037875   -583.78261    2155.1879    121275.07    10.472245   0.17058906 
   16000   -656.37161     72.97835   -583.39326    2214.0591    120213.01    10.472245   0.20131355 
   16100   -649.83054     79.17323   -570.65731     2402.003    130859.29    10.472245   0.27428189 
   16200   -653.14188    71.173409   -581.96847    2159.2998    123482.74    10.472245   0.23260832 
   16300   -655.30954    73.312589   -581.99695    2224.1995    121437.47    10.472245   0.19534275 
   16400   -655.37029    75.117995   -580.25229    2278.9729    121255.96    10.472245   0.19831275 
   16500   -654.82352    66.716529   -588.10699    2024.0844    121350.53    10.472245   0.22720143 
   16600   -648.78836    72.545793   -576.24257     2200.936    130674.64    10.472245   0.21797385 
   16700   -655.13748    74.667838   -580.46964    2265.3158    123871.48    10.472245    0.2210684 
   16800   -657.95848     73.73323   -584.22525    2236.9611    118376.16    10.472245   0.20547315 
   16900   -647.40607    69.199006   -578.20706    2099.3993     129723.2    10.472245   0.27441469 
   17000   -643.33438    74.476038   -568.85834    2259.4969    137811.94    10.472245    0.2929012 
   17100   -654.88077    76.201249   -578.67952    2311.8373    123111.42    10.472245   0.24410125 
   17200   -663.01604    75.701165   -587.31488    2296.6655    113013.95    10.472245   0.17919967 
   17300   -654.48696    75.441065   -579.04589    2288.7744    122978.92    10.472245   0.21837974 
   17400   -648.96845    69.661217   -579.30724    2113.4221    128179.57    10.472245   0.26836739 
   17500   -657.20357    70.082303   -587.12127    2126.1972    117387.16    10.472245    0.2126543 
   17600   -651.75841    76.223067   -575.53535    2312.4993    125699.26    10.472245   0.26096046 
   17700   -656.07866    76.459382   -579.61928    2319.6687    122350.62    10.472245   0.21381535 
   17800    -653.8642    68.129412   -585.73479    2066.9493    122341.08    10.472245    0.2197266 
   17900   -652.78323    75.753515   -577.02972    2298.2537    125897.33    10.472245   0.23761715 
   18000    -648.2724    82.038738   -566.23366    2488.9384    132532.21    10.472245   0.24587985 
   18100   -654.57388    71.463612   -583.11027    2168.1042    122317.95    10.472245   0.23262718 
   18200   -655.59177    69.638443   -585.95333    2112.7312    120867.47    10.472245   0.22621691 
   18300    -654.1427    78.315003    -575.8277    2375.9656    123076.37    10.472245   0.24841724 
   18400   -656.97618     71.04911   -585.92707    2155.5288     118183.2    10.472245   0.19311033 
   18500   -654.72934    67.576288   -587.15305    2050.1683     120454.5    10.472245   0.21387643 
   18600   -653.62695    74.500379   -579.12657    2260.2354    124700.95    10.472245   0.20850144 
   18700   -659.23058    75.854204   -583.37638    2301.3085    118000.75    10.472245   0.19214171 
   18800   -655.36589    71.337973   -584.02792    2164.2925    119166.81    10.472245    0.1972347 
   18900   -654.99525    73.411604   -581.58365    2227.2035    122224.72    10.472245   0.21287295 
   19000   -658.36221    72.135014   -586.22719    2188.4735    117151.78    10.472245   0.20670009 
   19100   -657.23434    69.162206   -588.07214    2098.2828    117571.49    10.472245   0.19433926 
   19200   -648.67827    72.956141   -575.72213    2213.3854    129488.23    10.472245   0.25184526 
   19300   -654.45741    69.282935   -585.17448    2101.9455    119511.08    10.472245   0.20683031 
   19400   -660.87716    73.158224   -587.71894    2219.5163       114821    10.472245   0.19578289 
   19500   -652.13503    70.554166   -581.58086    2140.5129    125636.46    10.472245   0.23976934 
   19600   -652.80201    72.054683   -580.74732    2186.0364    124674.36    10.472245   0.23747493 
   19700   -659.62712    66.389741   -593.23738    2014.1701    115139.91    10.472245   0.18083981 
   19800   -655.72874    70.356171   -585.37257     2134.506    119554.59    10.472245   0.20237863 
   19900   -659.43472    78.595726   -580.83899    2384.4823    116806.07    10.472245   0.19295662 
   20000   -660.28669    69.994374   -590.29231    2123.5296    114643.47    10.472245   0.20143504 
   20100   -653.67647    66.565698   -587.11077    2019.5084    121487.38    10.472245   0.21785242 
   20200   -649.36095     67.12614   -582.23481    2036.5114    127214.14    10.472245   0.25391252 
   20300   -657.86896    80.577071   -577.29189    2444.5935    118648.79    10.472245   0.22279914 
   20400   -647.25487    73.290184   -573.96468    2223.5198    131314.28    10.472245   0.31718168 
   20500    -656.9189    71.315375   -585.60353    2163.6069    117872.46    10.472245   0.18553485 
   20600   -657.14385    74.640526   -582.50332    2264.4872    119470.55    10.472245   0.24241711 
   20700    -653.2926    77.607172   -575.68543     2354.491     124379.5    10.472245   0.22280989 
   20800   -657.29148    73.041187   -584.25029    2215.9655    119099.54    10.472245    0.1840009 
   20900    -659.6794    72.811087   -586.86831    2208.9846    115654.27    10.472245   0.16470142 
   21000    -648.1994    71.360037   -576.83936    2164.9618    131158.35    10.472245   0.23746981 
   21100   -662.38513    77.714079   -584.67105    2357.7344    113937.15    10.472245   0.15638831 
   21200   -660.72943    72.610031    -588.1194    2202.8849    113430.49    10.472245   0.16987222 
   21300   -655.22788    74.064768   -581.16311    2247.0195    120673.07    10.472245   0.24091419 
   21400   -645.62121    78.651748   -566.96946     2386.182    136501.55    10.472245   0.23561003 
   21500   -659.54103    80.262756   -579.27827    2435.0577    117771.82    10.472245   0.20899991 
   21600   -653.86094    67.348633   -586.51231    2043.2616    122776.17    10.472245   0.21496244 
   21700   -648.63984    70.850209   -577.78963    2149.4944    128277.29    10.472245   0.22640664 
   21800    -654.4966    74.498698    -579.9979    2260.1844    122535.44    10.472245   0.23865139 
   21900   -656.96986    73.990801   -582.97906    2244.7755    119641.49    10.472245   0.19844044 
   22000   -652.85093    69.081199   -583.76973    2095.8252    125359.66    10.472245   0.20820667 
   22100   -654.90253    70.913826    -583.9887    2151.4244    121251.56    10.472245   0.24930406 
   22200   -655.28271    77.708834   -577.57388    2357.5753    123430.29    10.472245   0.19735933 
   22300   -661.25766    71.796002   -589.46166    2178.1884    113881.61    10.472245   0.17464706 
   22400   -654.98743     71.37226   -583.61517    2165.3327    121810.86    10.472245   0.19194874 
   22500   -657.35334    75.259809   -582.09353    2283.2754    120363.66    10.472245   0.18774838 
   22600   -662.13475    70.987754     -591.147    2153.6673    112710.58    10.472245   0.18269075 
   22700   -659.89099    73.507734   -586.38326    2230.1199    114956.43    10.472245   0.20263027 
   22800   -655.56335    74.052985   -581.51036    2246.6621    121782.22    10.472245   0.23725413 
   22900    -646.7679    71.026871   -575.74103    2154.8541    132093.53    10.472245   0.23646853 
   23000   -652.60495    70.296019   -582.30893    2132.6811    123468.32    10.472245   0.25947821 
   23100   -659.91314    72.724689   -587.18845    2206.3634    114535.61    10.472245   0.22596716 
   23200   -651.96592    78.946559   -573.01936    2395.1261    125631.92    10.472245   0.25968259 
   23300   -655.50077    74.203774   -581.29699    2251.2368    120966.73    10.472245   0.20551901 
   23400   -655.93803    70.653997   -585.28403    2143.5416    119780.35    10.472245   0.18158363 
   23500   -655.87524    74.350837   -581.52441    2255.6985    120091.58    10.472245   0.22564573 
   23600   -645.52613    80.110101   -565.41603    2430.4263    135940.17    10.472245   0.23371515 
   23700   -656.09922    78.043552   -578.05567    2367.7302     119918.8    10.472245   0.19927916 
   23800   -659.01964    71.627109   -587.39253    2173.0644    117342.92    10.472245   0.19238715 
   23900   -649.93753    72.011814   -577.92571    2184.7358    127617.86    10.472245   0.21542002 
   24000   -651.57812    75.470059   -576.10806     2289.654    126104.04    10.472245   0.24823188 
   24100   -655.64428    71.669264   -583.97502    2174.3434    120056.77    10.472245   0.21085377 
   24200   -654.97271    72.107321   -582.86539    2187.6334    123509.57    10.472245   0.19802996 
   24300   -652.57333    73.527261   -579.04607    2230.7123    126623.34    10.472245   0.22358982 
   24400   -654.31764    70.376357   -583.94129    2135.1184    123163.52    10.472245   0.18134286 
   24500   -655.47596    66.712497   -588.76346    2023.9621    117749.98    10.472245   0.18690998 
   24600   -651.77601    71.369679   -580.40633    2165.2544    126882.05    10.472245   0.21840009 
   24700   -655.21174    72.371351   -582.84039    2195.6437    118778.46    10.472245   0.19351742 
   24800   -663.81888    77.442687   -586.37619    2349.5008    111930.65    10.472245   0.19139622 
   24900   -643.77701    67.157565   -576.61945    2037.4648    135250.31    10.472245   0.30028184 
   25000   -650.64084    70.861804   -579.77904    2149.8462    125973.67    10.472245   0.19641736 
   25100   -656.01678    69.711032   -586.30575    2114.9334    119523.27    10.472245   0.20229125 
   25200   -642.93525    66.856669   -576.07858    2028.3361    134610.03    10.472245   0.25684036 
   25300   -655.74349    72.841485     -582.902    2209.9069    121522.49    10.472245   0.19785341 
   25400    -659.5635     72.75176   -586.81174    2207.1848    115904.12    10.472245   0.18199695 
   25500   -651.82015    75.630219   -576.18993    2294.5131    124849.12    10.472245    0.2064267 
   25600   -656.67177    68.406245   -588.26553     2075.348       119590    10.472245   0.21746118 
   25700   -659.67655    72.310274   -587.36628    2193.7907    116622.82    10.472245   0.18950743 
   25800   -650.47884    72.597789   -577.88105    2202.5135    126313.03    10.472245   0.22864349 
   25900    -655.8608    66.506253   -589.35455     2017.705    117783.94    10.472245   0.19782926 
   26000   -655.86427    70.331865   -585.53241    2133.7686    120484.97    10.472245    0.1850039 
   26100   -655.86453    75.332385   -580.53214    2285.4772    119815.68    10.472245   0.21014165 
   26200   -662.74456    70.090396   -592.65417    2126.4427    111775.95    10.472245   0.16697237 
   26300   -654.09501    72.835223   -581.25978    2209.7169    122520.23    10.472245   0.21268415 
   26400   -656.51264    73.788631   -582.72401    2238.6419    121429.77    10.472245   0.18601386 
   26500   -656.38833    64.687969   -591.70036    1962.5408    117185.46    10.472245   0.19401968 
   26600   -649.08595    71.859486   -577.22646    2180.1144    129251.67    10.472245   0.22782794 
   26700   -657.86351    74.953553   -582.90996     2273.984    117147.99    10.472245   0.18525467 
   26800   -657.92334    68.969789   -588.95355    2092.4451    118424.45    10.472245   0.18386046 
   26900   -655.57526    81.218869   -574.35639    2464.0648    122511.59    10.472245    0.1984461 
   27000   -655.86401    70.984812    -584.8792     2153.578    119380.43    10.472245   0.19817788 
   27100   -657.31096    70.352103   -586.95886    2134.3826    118488.92    10.472245   0.19461625 
   27200   -647.74901    77.744463   -570.00455    2358.6562    133381.22    10.472245   0.25641764 
   27300   -652.62647     75.21891   -577.40756    2282.0346    125806.61    10.472245   0.26317669 
   27400   -660.42505     73.25293   -587.17212    2222.3895    115578.97    10.472245   0.19152902 
   27500   -653.23466    70.380429   -582.85423    2135.2419    123699.31    10.472245   0.20510355 
   27600   -647.52016    79.125328   -568.39484    2400.5497    133076.95    10.472245   0.25325714 
   27700   -653.60265    75.461398   -578.14125    2289.3913    124874.47    10.472245    0.2380188 
   27800   -660.56188    75.389274   -585.17261    2287.2031    116562.64    10.472245   0.17912541 
   27900   -657.41946    67.528746   -589.89071    2048.7259    118053.71    10.472245   0.20376765 
   28000   -655.81091    73.716723   -582.09419    2236.4603    120092.52    10.472245    0.2112948 
   28100   -656.33361     79.16873   -577.16488    2401.8665    120825.84    10.472245   0.20677708 
   28200   -661.06577    70.881931   -590.18384    2150.4568     112409.5    10.472245   0.18503464 
   28300   -655.46689    74.886262   -580.58063    2271.9425    119904.78    10.472245   0.23002305 
   28400   -652.72907     69.62139   -583.10768    2112.2138    124304.45    10.472245   0.20046253 
   28500   -656.44662    68.806134   -587.64048    2087.4801    120127.66    10.472245   0.20368665 
   28600   -654.74043    70.419839   -584.32059    2136.4376     120872.6    10.472245     0.183676 
   28700   -652.53973    74.609558   -577.93017    2263.5477    125592.38    10.472245     0.204856 
   28800   -647.37881    71.520959   -575.85785     2169.844    132004.13    10.472245   0.24858317 
   28900   -654.99654    67.185903   -587.81063    2038.3246    120804.91    10.472245     0.204185 
   29000   -651.49481    73.177759   -578.31705    2220.1089    127181.76    10.472245   0.21734952 
   29100   -648.89152    76.724381   -572.16714    2327.7084    130808.03    10.472245   0.20533607 
   29200   -657.37321      69.9298   -587.44341    2121.5705    118253.03    10.472245    0.2133736 
   29300   -651.91824    70.945523   -580.97272    2152.3861    126627.52    10.472245    0.2186514 
   29400   -651.65325    75.025417   -576.62783    2276.1643    125760.42    10.472245   0.27161189 
   29500   -663.35168    71.227522   -592.12416    2160.9415    110241.91    10.472245   0.18681765 
   29600   -650.77597    69.228253   -581.54772    2100.2866    126212.73    10.472245   0.22474146 
   29700   -655.52483    74.829865   -580.69497    2270.2315    120857.67    10.472245   0.21235611 
   29800   -660.62765    66.081251    -594.5464     2004.811    110919.82    10.472245   0.19888153 
   29900   -656.41043    73.691081   -582.71935    2235.6824    120962.13    10.472245    0.2266161 
   30000   -655.18862    75.922932   -579.26569    2303.3936    123204.42    10.472245   0.22526311 
   30100   -660.13107    67.855044   -592.27603    2058.6254    113141.64    10.472245   0.18694306 
   30200    -657.1156    75.385994   -581.72961    2287.1036    116589.53    10.472245   0.20273449 
   30300   -657.75854    74.596918   -583.16162    2263.1642    119410.34    10.472245   0.21397566 
   30400   -659.28948    72.941567   -586.34791    2212.9432    114346.79    10.472245   0.21571112 
   30500   -651.87941    78.779616   -573.09979    2390.0613    129359.58    10.472245   0.21055374 
   30600    -658.6436    75.786994   -582.85661    2299.2694     116451.9    10.472245    0.1902914 
   30700   -657.59313    73.225404   -584.36772    2221.5544    118537.26    10.472245   0.21596742 
   30800   -647.60083    77.236088   -570.36474    2343.2328    131857.28    10.472245   0.30662143 
   30900   -646.73835    69.315866   -577.42249    2102.9446    129910.32    10.472245   0.27533309 
   31000   -660.32545    73.449409   -586.87604    2228.3504    115851.41    10.472245   0.21341765 
   31100   -646.26852    69.336278   -576.93224    2103.5639    131768.57    10.472245    0.2368051 
   31200   -654.89509    77.407513   -577.48758    2348.4337    121631.46    10.472245   0.23740059 
   31300   -659.53714    72.922426   -586.61471    2212.3625    115582.65    10.472245   0.18772036 
   31400    -656.7483    73.724534   -583.02376    2236.6973    119786.85    10.472245   0.18022939 
   31500   -652.67454    81.763046    -570.9115    2480.5743    127037.88    10.472245   0.19090113 
   31600   -656.75253     74.49007   -582.26246    2259.9226    120874.79    10.472245   0.20628698 
   31700   -658.69154    70.640431   -588.05111      2143.13    116814.07    10.472245   0.20176667 
   31800   -650.57218    76.508255   -574.06393    2321.1515     128945.9    10.472245   0.22134136 
   31900   -653.16311    73.517608    -579.6455    2230.4195    123632.45    10.472245   0.21470982 
   32000   -655.69507    71.275105   -584.41997    2162.3851    119912.21    10.472245   0.19537258 
   32100   -656.84087    70.541747   -586.29912    2140.1361    119209.74    10.472245   0.21758174 
   32200   -650.72343    74.892145   -575.83129     2272.121    127802.15    10.472245   0.23946979 
   32300   -661.44386    74.483325   -586.96054     2259.718       113408    10.472245   0.17675341 
   32400   -659.55859    72.264057   -587.29453    2192.3885    116259.56    10.472245   0.17124471 
   32500   -650.31246    70.472369   -579.84009    2138.0313    126679.95    10.472245   0.18055871 
   32600   -652.85822    70.519469   -582.33875    2139.4602    123654.23    10.472245   0.21934939 
   32700   -652.97614    71.745486   -581.23066    2176.6558    123015.15    10.472245   0.24285682 
   32800   -643.42171    72.116896   -571.30481    2187.9239    137098.84    10.472245   0.25925124 
   32900   -657.91533    72.685913   -585.22942     2205.187    117863.71    10.472245   0.20293094 
   33000   -653.29613    67.556741   -585.73939    2049.5753    122406.06    10.472245   0.18796565 
   33100    -650.2267    75.719955   -574.50675    2297.2355    129474.76    10.472245   0.25408901 
   33200   -644.27442    71.278703   -572.99572    2162.4943    135454.68    10.472245   0.27041136 
   33300   -657.28864    70.017926   -587.27071    2124.2441    118815.63    10.472245    0.1842623 
   33400    -650.4365     69.38659   -581.04991    2105.0903    126839.23    10.472245   0.22043644 
   33500   -651.95276    76.369755     -575.583    2316.9496    126551.25    10.472245   0.25245113 
   33600   -651.65903    69.111382   -582.54765    2096.7408    125718.74    10.472245   0.20949255 
   33700   -650.89731    67.900793   -582.99652    2060.0133    125322.55    10.472245    0.2053496 
   33800    -657.7712    73.513202     -584.258    2230.2858    118356.52    10.472245   0.18856109 
   33900    -663.0474    73.150538   -589.89686    2219.2831    111136.41    10.472245   0.18355258 
   34000   -652.14869    74.574681     -577.574    2262.4896     126511.6    10.472245   0.20921313 
   34100   -652.47268    70.415128   -582.05755    2136.2946    125642.61    10.472245   0.22933064 
   34200   -667.53258    70.998432   -596.53414    2153.9913     104043.7    10.472245   0.17382542 
   34300   -656.41454    65.339272   -591.07527    1982.3004    118407.78    10.472245   0.23396797 
   34400   -658.37278    77.886408   -580.48638    2362.9627    118972.45    10.472245   0.21997401 
   34500   -656.97488    76.371535   -580.60335    2317.0036    119986.45    10.472245   0.20233977 
   34600   -661.94005    71.221907   -590.71814    2160.7712    113476.45    10.472245    0.1647055 
   34700   -650.21536     72.34754   -577.86782    2194.9213    129039.47    10.472245   0.27040438 
   34800   -650.78396    71.689502   -579.09446    2174.9573    125526.35    10.472245   0.26108055 
   34900   -655.22996    66.103549   -589.12641    2005.4875    120548.62    10.472245   0.20064304 
   35000   -663.21656    66.754508   -596.46205    2025.2367    109247.34    10.472245   0.17865473 
   35100   -655.14434    74.642916   -580.50142    2264.5597    122037.77    10.472245   0.19203206 
   35200   -652.57383    69.493457   -583.08037    2108.3325    125033.09    10.472245   0.23130899 
   35300   -661.96032    69.341268   -592.61905    2103.7153    112698.03    10.472245   0.17552393 
   35400   -655.96077    75.621497   -580.33927    2294.2485    121729.82    10.472245   0.21134441 
   35500    -652.1774    72.985673   -579.19173    2214.2813    125982.52    10.472245   0.21203344 
   35600   -652.76562    63.458196   -589.30742    1925.2312    123083.47    10.472245   0.22242546 
   35700   -655.21849    69.638105   -585.58039    2112.7209    120587.13    10.472245   0.22241849 
   35800   -651.15683    71.131205   -580.02563    2158.0194    126726.15    10.472245   0.21666656 
   35900   -651.94992    73.927046   -578.02288    2242.8412     125400.5    10.472245    0.2281935 
   36000   -651.37929    63.011272   -588.36802    1911.6722    124202.07    10.472245   0.20989661 
   36100   -658.38705    76.175464   -582.21159     2311.055    117386.94    10.472245    0.2088953 
   36200   -650.92609    72.169951   -578.75614    2189.5335    126094.97    10.472245   0.26147503 
   36300   -660.59416    70.561613   -590.03255    2140.7388    115153.27    10.472245   0.17703276 
   36400   -654.25979    75.037134   -579.22265    2276.5197    123301.22    10.472245   0.21181931 
   36500   -650.85321    73.147756   -577.70546    2219.1987    126991.69    10.472245    0.2098953 
   36600   -658.64523    72.082622   -586.56261    2186.8841    115945.31    10.472245   0.20215848 
   36700   -648.95784    74.902081   -574.05576    2272.4224    129524.91    10.472245   0.23336522 
   36800    -648.7241    72.147389   -576.57671     2188.849    128150.18    10.472245   0.27599692 
   36900   -655.59978    72.568552   -583.03123    2201.6265    119420.35    10.472245     0.209347 
   37000   -656.76156     70.71826    -586.0433    2145.4912    118218.47    10.472245   0.23758544 
   37100   -651.15858    76.653974   -574.50461    2325.5724    127534.66    10.472245   0.21330145 
   37200    -654.9319    67.995399    -586.9365    2062.8835     120074.4    10.472245    0.1972274 
   37300   -654.27587    73.153659   -581.12221    2219.3778    122488.49    10.472245   0.20617325 
   37400   -652.21357    76.870947   -575.34263     2332.155    127287.18    10.472245   0.21115784 
   37500   -657.67114    74.003429   -583.66771    2245.1586    118028.96    10.472245   0.18128266 
   37600   -653.21133    68.297865   -584.91346    2072.0599    122280.84    10.472245   0.18916685 
   37700   -648.62408    76.154401   -572.46968     2310.416    131027.99    10.472245   0.26398537 
   37800   -656.07882     73.15711   -582.92171    2219.4825    121224.79    10.472245   0.17725451 
   37900   -659.51628    73.041277     -586.475    2215.9683    115802.17    10.472245   0.18305565 
   38000     -653.146    77.526971   -575.61903    2352.0578    123727.85    10.472245   0.22673411 
   38100   -657.83681    70.358595   -587.47821    2134.5795    116844.04    10.472245   0.23542664 
   38200    -654.9821    71.275693    -583.7064     2162.403     119808.6    10.472245   0.24408303 
   38300    -654.9152    80.981645   -573.93355    2456.8677    123705.49    10.472245   0.19134568 
   38400   -650.58638    68.970289   -581.61609    2092.4603    127247.48    10.472245   0.25462023 
   38500   -656.07425    75.204749    -580.8695    2281.6049     120999.1    10.472245   0.22170221 
   38600   -654.24137    80.285507   -573.95586    2435.7479    123669.25    10.472245   0.19497994 
   38700   -658.33766    71.193411   -587.14425    2159.9066    115910.46    10.472245   0.22000876 
   38800   -650.14874    69.333964   -580.81478    2103.4937    127215.74    10.472245   0.20044968 
   38900   -655.44735    72.190541   -583.25681    2190.1582    121727.81    10.472245   0.18830479 
   39000   -660.67657     70.19272   -590.48385    2129.5471    113184.21    10.472245   0.18697465 
   39100   -652.24461    74.034242   -578.21037    2246.0934    125632.96    10.472245   0.23083948 
   39200   -651.05164    71.111192   -579.94045    2157.4122    125266.44    10.472245   0.18523167 
   39300   -662.54909    73.222164   -589.32693    2221.4561    110872.02    10.472245   0.19477345 
   39400   -653.63713     73.42158   -580.21555    2227.5061    124059.18    10.472245   0.18689334 
   39500   -657.25451    75.183754   -582.07075     2280.968    121286.65    10.472245   0.19650702 
   39600   -659.30647    68.875124   -590.43134    2089.5731    114066.05    10.472245   0.19013061 
   39700   -654.85379    73.311684   -581.54211     2224.172    122811.86    10.472245   0.21505257 
   39800   -653.27101    71.959444   -581.31156     2183.147    125000.88    10.472245   0.23176212 
   39900   -653.04036    79.349058    -573.6913    2407.3374    126467.66    10.472245   0.23643998 
   40000    -650.2621    69.789323   -580.47277    2117.3086    125784.63    10.472245   0.25254515 
   40100    -659.8866    74.690751   -585.19585     2266.011    115865.45    10.472245   0.19661391 
   40200   -650.34173    71.610692   -578.73103    2172.5664    125390.76    10.472245   0.23927447 
   40300   -655.34662    75.737667   -579.60895    2297.7729    122947.08    10.472245   0.22926009 
   40400    -654.4936    70.871633   -583.62197    2150.1444    124030.84    10.472245   0.22913728 
   40500   -657.24954    69.899843    -587.3497    2120.6616    117511.29    10.472245   0.22080163 
   40600    -657.2882    80.656432   -576.63177    2447.0012    121484.44    10.472245   0.18484892 
   40700   -659.21657     71.76331   -587.45326    2177.1966    116023.16    10.472245   0.19411234 
   40800   -658.19416    71.582559    -586.6116    2171.7128    117358.81    10.472245   0.21098212 
   40900   -654.30044    75.932695   -578.36774    2303.6898    122793.74    10.472245   0.22377681 
   41000    -660.7417    71.241799   -589.49991    2161.3747    112879.22    10.472245   0.17522295 
   41100   -658.07954    71.373388   -586.70615    2165.3669    116174.32    10.472245   0.18606775 
   41200   -652.76143    72.227465   -580.53396    2191.2784    123680.96    10.472245   0.19658942 
   41300   -658.27432    64.947534   -593.32679    1970.4156    116192.91    10.472245     0.186456 
   41400   -655.53757     67.70475   -587.83282    2054.0657    120063.78    10.472245   0.18687001 
   41500   -656.74289    73.392509   -583.35038    2226.6242    118904.84    10.472245   0.24311306 
   41600   -643.91739    73.159478   -570.75791    2219.5543    135217.58    10.472245   0.25577229 
   41700   -659.45588    76.576843   -582.87903    2323.2323    118169.86    10.472245   0.21973169 
   41800   -659.39604    72.649734    -586.7463    2204.0894    117712.61    10.472245   0.21675339 
   41900   -652.00246    76.644313   -575.35814    2325.2793    126204.12    10.472245   0.19866416 
   42000   -654.11929    69.830051   -584.28924    2118.5442    123176.64    10.472245   0.19145198 
   42100   -653.65869    68.709092    -584.9496    2084.5359    122730.77    10.472245   0.20657171 
   42200   -655.28385    74.531936   -580.75192    2261.1927    122270.06    10.472245   0.19874954 
   42300   -662.97452    75.555299   -587.41923    2292.2401    113109.68    10.472245   0.15723461 
   42400   -658.95704    70.414514   -588.54253     2136.276    116095.08    10.472245   0.22598404 
   42500   -651.81813     72.38284   -579.43529    2195.9922    126686.85    10.472245   0.21889146 
   42600   -662.19616     74.46549   -587.73067    2259.1769    111628.96    10.472245   0.17857676 
   42700   -660.76491    70.667143   -590.09777    2143.9404    113599.72    10.472245    0.1824703 
   42800   -653.80986    76.766187   -577.04367    2328.9767    124490.23    10.472245   0.26445403 
   42900   -656.72112    71.110872   -585.61025    2157.4025    117197.78    10.472245   0.20475443 
   43000   -654.83804    68.831128   -586.00691    2088.2384    121213.64    10.472245   0.21269856 
   43100    -656.5122    75.616182   -580.89602    2294.0872    121904.75    10.472245   0.18424249 
   43200   -656.41327    73.041647   -583.37162    2215.9795    119451.05    10.472245   0.23024763 
   43300   -654.67843    71.874089   -582.80434    2180.5575    122361.51    10.472245   0.22592302 
   43400   -651.54572    70.343525    -581.2022    2134.1223    124069.91    10.472245   0.22636722 
   43500   -658.57421    75.978794   -582.59542    2305.0884    115749.77    10.472245   0.23164008 
   43600   -655.52592    70.231751   -585.29417    2130.7312    121232.56    10.472245   0.20918394 
   43700   -655.63031    77.011862   -578.61845    2336.4302    120908.19    10.472245   0.18732494 
   43800   -652.25001    74.427739   -577.82227    2258.0315    123581.87    10.472245    0.2038133 
   43900   -658.84064    70.293587   -588.54706    2132.6073    115367.98    10.472245   0.17090987 
   44000   -652.70034    73.815856   -578.88448    2239.4679    124189.45    10.472245   0.20094865 
   44100   -656.81902    72.149259   -584.66976    2188.9057    120057.74    10.472245   0.20240992 
   44200   -664.11527    75.431414   -588.68386    2288.4816     110102.1    10.472245   0.17852167 
   44300    -657.0785     78.15379   -578.92471    2371.0746    120889.93    10.472245   0.22367662 
   44400    -657.5976    73.330475   -584.26712    2224.7421    118139.23    10.472245   0.21105281 
   44500   -663.19687    68.176611   -595.02026    2068.3812    110125.65    10.472245   0.17485549 
   44600   -653.58077    68.435942   -585.14483     2076.249    122010.69    10.472245   0.21744597 
   44700   -655.54545    78.315665   -577.22978    2375.9857    122389.97    10.472245   0.19829364 
   44800   -657.08859    67.300628   -589.78796    2041.8052    117948.95    10.472245   0.20918291 
   44900   -658.12755    72.932192   -585.19536    2212.6588    118432.27    10.472245   0.18407003 
   45000    -651.8679    71.407059   -580.46084    2166.3884    124849.07    10.472245   0.21375867 
   45100   -652.67494    70.759659   -581.91528    2146.7472     123306.7    10.472245   0.23812828 
   45200   -652.52638    70.419664   -582.10672    2136.4323       124321    10.472245   0.19666095 
   45300   -658.24813    67.007017   -591.24111    2032.8974    116257.71    10.472245      0.18332 
   45400   -652.11421    74.463957   -577.65026    2259.1303    126052.31    10.472245   0.22693455 
   45500    -653.6246    71.237796   -582.38681    2161.2532    124572.09    10.472245   0.21559486 
   45600   -655.88401    65.403896   -590.48012     1984.261    118728.36    10.472245   0.21506192 
   45700   -661.12241    70.102944   -591.01947    2126.8234     113018.3    10.472245    0.1851262 
   45800   -650.96568    70.377433   -580.58824     2135.151    126174.43    10.472245   0.23034869 
   45900   -656.14482    76.457526   -579.68729    2319.6124    121288.07    10.472245   0.19746252 
   46000    -663.4008    73.275622   -590.12517     2223.078    111416.47    10.472245   0.18600995 
   46100   -652.94134    73.305826   -579.63552    2223.9943     123176.6    10.472245   0.20839042 
   46200   -653.39233    75.179476   -578.21286    2280.8382    123650.56    10.472245   0.20216794 
   46300   -655.91963    71.664351   -584.25528    2174.1943    120154.74    10.472245   0.18464877 
   46400   -657.99478    73.461605   -584.53318    2228.7204    118742.93    10.472245    0.2017203 
   46500   -651.58088    69.323597   -582.25728    2103.1791     123722.1    10.472245    0.2117223 
   46600   -654.86806    71.322518   -583.54554    2163.8236    121170.91    10.472245   0.25449496 
   46700   -656.45539    73.956026   -582.49937    2243.7205    121137.89    10.472245   0.18959043 
   46800   -661.91266    75.538084   -586.37458    2291.7179    112536.13    10.472245   0.19578746 
   46900   -656.26873    75.397224   -580.87151    2287.4443    120326.44    10.472245   0.23005787 
   47000   -654.38076    78.015254   -576.36551    2366.8716    123759.69    10.472245   0.23151418 
   47100   -660.82996    72.811593   -588.01837         2209    114495.69    10.472245   0.22890174 
   47200   -648.80426    69.453929   -579.35033    2107.1332    129719.07    10.472245   0.20637773 
   47300   -659.17204      78.2816   -580.89044    2374.9522    118517.73    10.472245   0.18610188 
   47400   -660.12266    65.541401   -594.58126    1988.4327    114190.33    10.472245   0.20891297 
   47500   -650.26328    68.999551   -581.26373    2093.3481    127135.96    10.472245   0.25011078 
   47600   -653.69184    78.412234   -575.27961    2378.9155    124022.49    10.472245   0.21095503 
   47700   -657.72214     69.18121   -588.54093    2098.8593    117826.45    10.472245   0.21440704 
   47800   -657.29712     72.61141   -584.68571    2202.9267    120091.14    10.472245   0.18795671 
   47900   -645.88872    75.591402   -570.29731    2293.3354    132945.73    10.472245   0.24185305 
   48000   -655.37295     74.68579   -580.68716    2265.8604    121722.87    10.472245   0.22945387 
   48100   -659.23452      72.4107   -586.82382    2196.8375    115616.94    10.472245   0.21717345 
   48200   -653.75996    79.943995   -573.81597    2425.3869    124763.15    10.472245   0.21143958 
   48300     -655.664    75.742839   -579.92116    2297.9298    122769.72    10.472245   0.20453914 
   48400   -654.68183    68.867976   -585.81386    2089.3563    121033.12    10.472245   0.20178613 
   48500   -652.52875     70.52793   -582.00082    2139.7169    124546.05    10.472245   0.21010313 
   48600   -649.30414    73.905908   -575.39823       2242.2    129396.55    10.472245   0.25159296 
   48700   -662.74374    74.326985   -588.41675    2254.9748    111076.98    10.472245   0.17821452 
   48800   -660.65891    76.825925   -583.83298    2330.7891    115650.73    10.472245   0.19099506 
   48900   -643.14268    70.803773    -572.3389    2148.0856    136629.14    10.472245   0.26239459 
   49000    -653.0995    81.351954   -571.74754    2468.1024    125485.97    10.472245   0.23768689 
   49100   -651.91485    70.388275   -581.52657      2135.48    124879.69    10.472245   0.22882311 
   49200    -658.4759    69.890174   -588.58573    2120.3683    116793.57    10.472245   0.23596449 
   49300   -652.41316    75.356122   -577.05704    2286.1974    126204.77    10.472245   0.25389627 
   49400   -660.66812    76.805205   -583.86292    2330.1605    115205.84    10.472245   0.16978983 
   49500   -655.90664    69.775505   -586.13114    2116.8894    119906.21    10.472245   0.21754129 
   49600   -649.69176    72.302659    -577.3891    2193.5597    128495.09    10.472245   0.23755369 
   49700   -655.40503     66.32941   -589.07562    2012.3398    118454.94    10.472245    0.2667896 
   49800   -652.93137    69.963832   -582.96754     2122.603    123692.29    10.472245   0.24716909 
   49900   -650.37542    73.164305   -577.21111    2219.7008    127553.18    10.472245   0.19615665 
   50000    -661.1857     72.16668   -589.01902    2189.4342    113402.19    10.472245   0.17639488 
   50100   -657.88579    78.164953   -579.72084    2371.4133    119518.23    10.472245   0.18644482 
   50200   -652.24672    74.330067   -577.91665    2255.0683    125256.62    10.472245   0.25300901 
   50300   -655.67215    70.237346   -585.43481     2130.901    121245.27    10.472245   0.20784621 
   50400   -658.41321    70.814164   -587.59905    2148.4008    117420.99    10.472245   0.18381776 
   50500   -655.06941    77.386891   -577.68252     2347.808     123754.9    10.472245   0.18487827 
   50600   -659.32752     70.41063   -588.91689    2136.1582    115771.83    10.472245   0.19058805 
   50700   -657.97691    70.753491   -587.22342    2146.5601    117346.97    10.472245   0.20917687 
   50800   -658.03698    75.437792   -582.59919    2288.6751    117591.97    10.472245   0.18399821 
   50900   -654.51417    71.994167      -582.52    2184.2005    120798.29    10.472245    0.2344272 
   51000   -661.03746    74.344378   -586.69309    2255.5025    114385.73    10.472245   0.19588986 
   51100   -655.01253    68.795658   -586.21687    2087.1622       120314    10.472245   0.22699568 
   51200   -649.46259    73.086476   -576.37611    2217.3395    127939.46    10.472245   0.22113552 
   51300   -655.80253    70.465409   -585.33712    2137.8201    119251.99    10.472245    0.2314898 
   51400   -653.47648    71.006587    -582.4699    2154.2387    122501.75    10.472245   0.17931662 
   51500   -651.61579    68.456646   -583.15914    2076.8771    123873.76    10.472245   0.23883202 
   51600   -653.75523     72.25034   -581.50489    2191.9724    125236.13    10.472245   0.22344809 
   51700   -659.09085    71.713373   -587.37748    2175.6815    115209.34    10.472245   0.20312023 
   51800   -662.53362    72.677042   -589.85658    2204.9179    112182.75    10.472245   0.16272815 
   51900   -654.76131    77.609922   -577.15139    2354.5745    122524.45    10.472245   0.22755759 
   52000   -652.14193    70.609551   -581.53238    2142.1932    125681.45    10.472245   0.22209854 
   52100   -658.94531    68.355966   -590.58935    2073.8226    115358.48    10.472245    0.1827588 
   52200   -654.72285    74.604702   -580.11815    2263.4004    122002.05    10.472245   0.20599344 
   52300   -657.07436    74.935204   -582.13915    2273.4273    120976.34    10.472245   0.19060967 
   52400   -659.71261    67.449666   -592.26294    2046.3268    113194.74    10.472245   0.18549965 
   52500    -662.0587    69.953633   -592.10507    2122.2935    110961.04    10.472245   0.18035277 
   52600    -652.1984    71.867892    -580.3305    2180.3694    126273.93    10.472245   0.20980608 
   52700   -656.21641    73.836326   -582.38008    2240.0889    121860.82    10.472245   0.18164036 
   52800   -662.53525    70.279613   -592.25563    2132.1833    112612.66    10.472245   0.17024069 
   52900   -657.59445    77.469135   -580.12532    2350.3032    119765.89    10.472245   0.18302586 
   53000   -653.18122    70.961151   -582.22007    2152.8602    123677.84    10.472245    0.2108456 
   53100   -661.90969     71.83686   -590.07283     2179.428    112193.88    10.472245    0.1863387 
   53200   -656.84332    73.680702   -583.16262    2235.3675    117472.46    10.472245   0.18422993 
   53300   -651.45964     70.92628   -580.53336    2151.8023    127371.23    10.472245   0.22688831 
   53400   -657.22506    64.463881   -592.76118    1955.7423     117798.7    10.472245   0.20160205 
   53500   -655.07182    75.282997   -579.78883    2283.9789    121990.87    10.472245   0.20193604 
   53600   -658.48874    79.774867   -578.71388    2420.2558    119770.98    10.472245   0.18470461 
   53700   -656.24381    67.599231   -588.64457    2050.8644    119087.33    10.472245   0.21400032 
   53800    -652.9469    79.096253   -573.85064    2399.6676    128032.34    10.472245   0.22557749 
   53900   -653.06018    71.565687   -581.49449     2171.201    122975.26    10.472245     0.213386 
   54000   -652.77965     69.36115    -583.4185    2104.3185     123775.1    10.472245   0.20882052 
   54100   -649.82362    80.084853   -569.73877    2429.6603     129544.8    10.472245   0.24191975 
   54200   -651.34242    73.944198   -577.39822    2243.3616    126658.71    10.472245   0.26644183 
   54300   -652.64028    69.198642   -583.44164    2099.3882    123693.37    10.472245    0.2469324 
   54400   -652.15796    69.588798   -582.56917     2111.225    122758.85    10.472245    0.2192504 
   54500   -660.13653    76.383782   -583.75274    2317.3751    116010.37    10.472245   0.20136408 
   54600   -652.49956    67.562895   -584.93667     2049.762    124715.18    10.472245   0.21433352 
   54700   -649.92142    74.614493   -575.30693    2263.6974    129001.08    10.472245   0.22281685 
   54800   -658.33061    70.586237   -587.74437    2141.4859    116966.12    10.472245   0.19051116 
   54900    -653.8817    71.829712   -582.05198    2179.2111    122428.51    10.472245   0.25025445 
   55000   -651.28783    72.435291   -578.85254    2197.5835    125298.23    10.472245   0.23792821 
   55100   -660.70548     73.36203   -587.34345    2225.6994    114990.72    10.472245   0.17828646 
   55200   -663.26068    68.152052   -595.10863    2067.6362    109697.73    10.472245   0.20322502 
   55300   -656.75897    73.825519   -582.93345    2239.7611    120643.62    10.472245   0.19669514 
   55400    -649.9751    72.107781   -577.86732    2187.6473    127774.99    10.472245   0.22234476 
   55500   -662.42614    71.490435   -590.93571    2168.9179    111114.43    10.472245   0.19134328 
   55600   -658.32053    74.083705   -584.23682    2247.5941    117274.93    10.472245   0.21603714 
   55700   -650.78493    71.507187   -579.27775    2169.4262    126880.12    10.472245   0.22826054 
   55800   -659.80816    72.800842   -587.00732    2208.6738    115737.75    10.472245   0.18788435 
   55900   -660.53496    63.718459    -596.8165    1933.1272    113761.36    10.472245   0.18549727 
   56000   -659.08244     75.09246   -583.98998    2278.1982    117534.91    10.472245   0.20452331 
   56100   -649.29625    71.609222   -577.68703    2172.5218    130753.78    10.472245   0.28431051 
   56200   -651.65554    80.779852   -570.87569    2450.7456     128891.4    10.472245   0.22582879 
   56300   -658.85644    72.371269   -586.48517    2195.6412    117653.27    10.472245    0.1905522 
   56400   -652.45951    68.653908    -583.8056    2082.8617    123246.94    10.472245   0.19074844 
   56500   -648.08327    75.065912   -573.01735    2277.3928    132379.76    10.472245   0.22539919 
   56600   -656.01657    69.031824   -586.98475    2094.3272    120543.43    10.472245   0.20083247 
   56700   -653.88262    72.071099   -581.81152    2186.5345    122529.35    10.472245   0.24789852 
   56800   -648.18751    74.306032   -573.88148    2254.3392    130825.76    10.472245   0.25339448 
   56900   -660.55236    72.434853    -588.1175    2197.5702    113743.44    10.472245   0.20176088 
   57000   -655.57893    74.374227   -581.20471    2256.4081    122448.02    10.472245   0.20180405 
   57100   -651.05575    72.915685   -578.14007     2212.158    128312.63    10.472245   0.21580584 
   57200   -657.41583    66.775459   -590.64037    2025.8723    117448.03    10.472245   0.19104656 
   57300   -653.85605    74.634081   -579.22197    2264.2917    123234.89    10.472245   0.22448346 
   57400   -655.46664    76.041029   -579.42561    2306.9765    120660.54    10.472245   0.25486844 
   57500   -652.39624    67.547058   -584.84918    2049.2815    122116.75    10.472245    0.2310685 
   57600   -655.00479    72.148802   -582.85599    2188.8919    121842.77    10.472245   0.20837559 
   57700   -654.48199    75.112529   -579.36946    2278.8071    123614.24    10.472245   0.22138894 
   57800   -654.24922    71.224888   -583.02433    2160.8616    121379.74    10.472245   0.22798808 
   57900   -662.51849    70.134699   -592.38379    2127.7868    108775.69    10.472245   0.20344843 
   58000   -655.39615    72.382693   -583.01346    2195.9878    121650.04    10.472245   0.19792453 
   58100   -657.45741    75.944211    -581.5132    2304.0392    120122.49    10.472245   0.17119308 
   58200   -658.46854    68.201456   -590.26708     2069.135    116652.56    10.472245   0.18686202 
   58300   -654.75547    71.453925   -583.30155    2167.8103    122189.84    10.472245   0.18388226 
   58400   -653.80723      73.0703   -580.73693    2216.8488    123987.94    10.472245    0.2101007 
   58500   -659.77221    72.802643   -586.96957    2208.7285    115769.14    10.472245   0.21597654 
   58600   -663.11596     68.79556    -594.3204    2087.1593    110032.18    10.472245   0.18004325 
   58700   -654.32074    72.968151   -581.35259    2213.7497    122536.02    10.472245   0.19769347 
   58800   -653.94055    69.734823   -584.20573    2115.6552    122548.14    10.472245   0.18771974 
   58900   -662.56542    69.849892   -592.71553    2119.1462    110398.57    10.472245   0.16950578 
   59000   -661.12606    75.434612   -585.69144    2288.5786    115075.26    10.472245    0.1751264 
   59100    -653.5026     74.88252   -578.62008     2271.829    124134.56    10.472245   0.20518098 
   59200   -649.06378    81.344767   -567.71901    2467.8843    131673.19    10.472245   0.23576714 
   59300   -660.01555    75.881878   -584.13367    2302.1481     114926.1    10.472245   0.18754781 
   59400   -658.54703    75.431072   -583.11596    2288.4713    117742.13    10.472245   0.20636232 
   59500    -645.4029    74.189339   -571.21356    2250.7988    135363.82    10.472245   0.25577021 
   59600   -657.40823    77.624288   -579.78395    2355.0103    120893.43    10.472245    0.1915104 
   59700    -663.6815    75.614361   -588.06714     2294.032    111622.44    10.472245    0.1679031 
   59800   -652.95137    75.050884   -577.90049    2276.9369    126805.01    10.472245   0.19111253 
   59900   -656.68028    75.578965   -581.10132    2292.9581    121392.57    10.472245   0.19255881 
   60000   -658.55673    65.473519   -593.08321    1986.3733    116690.67    10.472245   0.18427575 
   60100   -652.84872     70.48175   -582.36697    2138.3159    123968.59    10.472245   0.20060626 
   60200   -654.46049    74.940565   -579.51992      2273.59    124064.38    10.472245   0.21129988 
   60300   -659.12988    67.723006   -591.40688    2054.6195    115959.31    10.472245   0.20134021 
   60400   -652.19924    71.578352   -580.62089    2171.5852    125140.12    10.472245   0.20921322 
   60500   -651.02644    69.097267   -581.92917    2096.3126       126731    10.472245    0.2131417 
   60600   -658.23815    68.741013   -589.49714    2085.5044    115803.63    10.472245   0.19881086 
   60700    -663.4996    72.423189   -591.07641    2197.2164    108892.53    10.472245    0.1686302 
   60800   -650.63988    70.622884   -580.01699    2142.5977    126894.01    10.472245   0.20704754 
   60900   -656.99236    72.558422   -584.43394    2201.3191    118207.87    10.472245   0.23001142 
   61000   -660.81862    71.210265   -589.60836     2160.418    112429.05    10.472245   0.17985592 
   61100   -652.82086    76.823074   -575.99778    2330.7026    125247.55    10.472245     0.243799 
   61200   -656.23123    69.588483   -586.64275    2111.2154    120035.14    10.472245   0.20073072 
   61300   -657.34007    72.046612   -585.29346    2185.7916    119166.87    10.472245   0.19433228 
   61400   -652.63843    73.290675   -579.34776    2223.5347    125187.06    10.472245   0.20268451 
   61500   -663.11876    69.572685   -593.54607    2110.7361    111267.28    10.472245   0.17184462 
   61600   -659.71197    76.867424   -582.84455    2332.0481    116294.77    10.472245   0.19310015 
   61700   -652.87776    73.320564   -579.55719    2224.4414    123858.49    10.472245   0.23661782 
   61800   -662.63041    71.830536   -590.79987    2179.2361    110459.99    10.472245   0.21406106 
   61900   -655.86153    73.348929    -582.5126     2225.302    121409.22    10.472245   0.20781012 
   62000   -652.84508    75.532114   -577.31296    2291.5367    123747.74    10.472245   0.28662059 
   62100   -653.74169    68.893679   -584.84801    2090.1361    122475.49    10.472245   0.26607388 
   62200    -661.4501    72.563081   -588.88702    2201.4605       112729    10.472245   0.21387203 
   62300   -652.94638    70.659172   -582.28721    2143.6986    123955.02    10.472245   0.21318989 
   62400   -657.75383    77.388301   -580.36552    2347.8508    120836.92    10.472245   0.18269682 
   62500   -663.58699    72.557775   -591.02921    2201.2995    110608.75    10.472245   0.16529349 
   62600    -655.7799    75.899471   -579.88043    2302.6818    121510.37    10.472245    0.2025801 
   62700   -654.77245    73.895547   -580.87691    2241.8856    123670.13    10.472245   0.19650351 
   62800   -653.01788    65.797225   -587.22065    1996.1941    123204.06    10.472245   0.21165329 
   62900   -657.16434    61.187813   -595.97653    1856.3511    116306.34    10.472245   0.20999664 
   63000   -656.73892    74.348405   -582.39052    2255.6247    118804.26    10.472245   0.19464202 
   63100   -653.09064    75.696233    -577.3944    2296.5159    124653.65    10.472245    0.2119692 
   63200   -654.12777    73.071389   -581.05638    2216.8818    123084.83    10.472245   0.18989484 
   63300   -658.60447    71.291728   -587.31274    2162.8894    114591.33    10.472245    0.2339417 
   63400    -650.0189    71.682473   -578.33643    2174.7441    127147.22    10.472245   0.31527002 
   63500   -654.01856    76.418427   -577.60013    2318.4262    123657.18    10.472245   0.25564624 
   63600   -656.14991    64.632342   -591.51757    1960.8532    118583.07    10.472245   0.24585527 
   63700   -653.80224    74.773134   -579.02911    2268.5103    123646.97    10.472245   0.20949876 
   63800   -659.02034    74.559668   -584.46067    2262.0341    114807.42    10.472245   0.20560159 
   63900    -659.8742    66.125755   -593.74845    2006.1612    114671.25    10.472245   0.19424778 
   64000   -660.17358    76.049467   -584.12412    2307.2325    115513.48    10.472245   0.21542916 
   64100   -656.97933    78.037739    -578.9416    2367.5538    120532.46    10.472245   0.22256022 
   64200   -662.52198    79.031839   -583.49014    2397.7134    113211.33    10.472245   0.17652717 
   64300    -650.6759    62.153853   -588.52205    1885.6594    123725.81    10.472245   0.19819979 
   64400   -646.17287    67.140925   -579.03195      2036.96    132858.81    10.472245   0.22574875 
   64500   -658.52229    76.558493    -581.9638    2322.6756    118569.58    10.472245   0.17406678 
   64600   -660.62386    74.374641   -586.24922    2256.4207    114995.41    10.472245   0.19742641 
   64700   -651.38204    76.355126   -575.02692    2316.5057    125896.74    10.472245   0.26474392 
   64800   -653.92375    72.514617   -581.40913    2199.9902    121559.07    10.472245   0.22761843 
   64900   -655.09051    69.337683   -585.75283    2103.6065    120203.43    10.472245    0.2214236 
   65000   -652.82087    79.566336   -573.25454    2413.9293    125330.92    10.472245   0.21750011 
   65100   -651.74921    75.595343   -576.15387     2293.455    126660.08    10.472245   0.22742227 
   65200    -653.7184     70.34604   -583.37236    2134.1986    122613.51    10.472245   0.21805593 
   65300   -657.84071     71.38013   -586.46058    2165.5714    118618.95    10.472245   0.19821477 
   65400   -650.87352    74.852005   -576.02152    2270.9032    127032.52    10.472245   0.22848397 
   65500    -655.8349    72.755226   -583.07967    2207.2899    120579.65    10.472245   0.18603323 
   65600   -652.79801    65.922811    -586.8752    2000.0041    122461.68    10.472245   0.21722971 
   65700   -648.01524    71.964461   -576.05078    2183.2992    129827.42    10.472245   0.21256123 
   65800   -659.82769    70.633968   -589.19372    2142.9339    114048.84    10.472245   0.19409135 
   65900   -657.86522    72.770189   -585.09503    2207.7439    117899.41    10.472245   0.19928133 
   66000    -652.5309    75.037552   -577.49335    2276.5324    124827.07    10.472245   0.25713346 
   66100   -657.22014    76.924665   -580.29547    2333.7847    119841.45    10.472245   0.18983705 
   66200   -659.71001    71.865968   -587.84404    2180.3111    116785.51    10.472245    0.1752863 
   66300    -646.1873    71.076568   -575.11073    2156.3618    132148.04    10.472245   0.21523806 
   66400   -653.65508    73.417353   -580.23772    2227.3779    123551.62    10.472245   0.23272825 
   66500    -653.0288    64.351324   -588.67747    1952.3275    121756.37    10.472245   0.22600746 
   66600   -659.26954    63.815979   -595.45356    1936.0859    114502.82    10.472245   0.18196916 
   66700   -657.45358    75.258324   -582.19525    2283.2303    119284.15    10.472245   0.22727884 
   66800   -650.91922    70.727788   -580.19143    2145.7803    126222.31    10.472245   0.20726184 
   66900   -657.52897    64.777518   -592.75145    1965.2576    117598.71    10.472245    0.1836898 
   67000   -656.77245    71.962301   -584.81015    2183.2337    119578.52    10.472245   0.19107981 
   67100   -657.75594    76.959619   -580.79632    2334.8452    118136.22    10.472245   0.23888632 
   67200   -650.52371    80.016353   -570.50736    2427.5822    129635.74    10.472245     0.236056 
   67300   -658.04801    77.184728   -580.86329    2341.6747    118613.57    10.472245   0.19652973 
   67400   -653.03365    67.325843    -585.7078    2042.5702    123128.38    10.472245   0.20009659 
   67500   -647.67077     73.06934   -574.60143    2216.8197    132126.84    10.472245   0.24076552 
   67600   -654.48372    73.332795   -581.15093    2224.8125    122091.41    10.472245    0.2452501 
   67700   -658.35642    73.563434   -584.79298    2231.8098     116059.9    10.472245   0.20403875 
   67800   -649.03299     70.26214   -578.77085    2131.6532    128134.14    10.472245   0.25433274 
   67900   -650.49866    77.004358   -573.49431    2336.2025    128153.07    10.472245   0.27080146 
   68000   -652.05524    62.932318   -589.12292    1909.2769    123491.51    10.472245   0.22393214 
   68100   -653.53796    73.266653   -580.27131    2222.8059    122832.75    10.472245   0.21729391 
   68200   -651.33614    71.451803   -579.88434    2167.7459    124950.73    10.472245   0.21872309 
   68300   -654.95892    71.936715    -583.0222    2182.4574    122226.98    10.472245   0.22619618 
   68400    -659.4018    78.150937   -581.25086    2370.9881    118527.72    10.472245   0.19268939 
   68500   -662.19867     72.18056   -590.01811    2189.8554    111117.82    10.472245   0.18908933 
   68600   -650.63399    65.135669   -585.49832    1976.1234    126095.24    10.472245   0.23035711 
   68700   -654.32755    75.782786   -578.54476    2299.1417    124246.63    10.472245   0.19420025 
   68800    -656.3537    67.374669   -588.97904    2044.0515     118300.7    10.472245   0.20269175 
   68900   -651.56269    75.288901   -576.27379     2284.158    127704.67    10.472245   0.22929583 
   69000   -652.86676    73.133228   -579.73354    2218.7579    124621.82    10.472245   0.24116037 
   69100   -658.05926    68.066354    -589.9929    2065.0362    116205.98    10.472245   0.20367017 
   69200   -656.53058    72.764198   -583.76638    2207.5621    120592.55    10.472245   0.19320325 
   69300   -653.29168    69.232672   -584.05901    2100.4206    123790.85    10.472245   0.23483853 
   69400   -647.72866    74.977126   -572.75154    2274.6992    131899.09    10.472245   0.29903429 
   69500   -654.88577    78.714354   -576.17142    2388.0814    123337.56    10.472245   0.22006816 
   69600   -653.98072    69.493149   -584.48757    2108.3231    122162.13    10.472245   0.21191301 
   69700   -661.18246    77.964232   -583.21823    2365.3237    115893.01    10.472245   0.19064662 
   69800   -650.11485    73.359316   -576.75553    2225.6171    128037.58    10.472245   0.25477531 
   69900   -655.14541    73.182474   -581.96294     2220.252    120368.59    10.472245   0.23866294 
   70000   -657.90378     72.56219   -585.34159    2201.4334    117697.65    10.472245   0.19743595 
   70100    -653.1215    80.426944   -572.69455    2440.0389    125004.96    10.472245   0.19704551 
   70200   -650.90082    69.755796   -581.14503    2116.2914    125451.92    10.472245   0.23292563 
   70300   -658.51867    72.766482   -585.75219    2207.6314    117045.64    10.472245   0.17941532 
   70400   -660.03686    65.477484   -594.55937    1986.4936    113534.75    10.472245   0.19503551 
   70500   -654.07414    73.929318   -580.14483    2242.9102    122028.55    10.472245   0.19126194 
   70600   -655.28562     74.13193   -581.15369    2249.0571    120792.14    10.472245   0.21461306 
   70700   -658.69052    65.671099   -593.01942    1992.3676    114498.52    10.472245   0.19337851 
   70800   -658.96144    78.819839    -580.1416    2391.2816    117633.24    10.472245   0.22937769 
   70900   -651.68206     71.05015   -580.63191    2155.5603    126525.26    10.472245    0.1913555 
   71000   -659.12179    70.779069   -588.34272    2147.3361    115011.43    10.472245   0.18104712 
   71100   -655.06898    74.062407   -581.00658    2246.9479    123344.49    10.472245   0.21448769 
   71200    -649.8566    71.931034   -577.92557    2182.2851    127940.38    10.472245   0.24261125 
   71300   -657.64759    65.582487    -592.0651    1989.6792    116836.01    10.472245   0.19896741 
   71400   -654.90753    69.779524   -585.12801    2117.0113    121439.62    10.472245   0.19083446 
   71500   -656.73693    77.504386   -579.23255    2351.3727    118610.84    10.472245   0.19640139 
   71600   -656.00064    67.580421   -588.42022    2050.2937    117976.21    10.472245   0.21656282 
   71700    -656.8926    72.215412   -584.67718    2190.9127    120045.57    10.472245   0.20461635 
   71800   -650.18789    72.871647   -577.31624    2210.8219    128686.48    10.472245    0.2307191 
   71900   -659.41918    76.452031   -582.96715    2319.4457    116623.95    10.472245   0.17908991 
   72000   -656.84385    71.345747    -585.4981    2164.5283    118723.33    10.472245   0.19415193 
   72100   -651.50052    75.332323   -576.16819    2285.4754     127535.7    10.472245   0.20822828 
   72200   -656.75847    76.405148   -580.35332    2318.0233    121950.52    10.472245   0.22536436 
   72300   -660.61604    71.847265   -588.76878    2179.7437    113147.58    10.472245    0.1827131 
   72400   -655.72549    80.247359   -575.47813    2434.5905    122485.62    10.472245   0.19115483 
   72500   -655.73408     72.88125   -582.85283    2211.1133    119992.12    10.472245   0.19212979 
   72600   -659.09929    73.957351   -585.14193    2243.7606     116036.2    10.472245   0.18873491 
   72700   -654.05703    77.982003   -576.07502    2365.8629    126153.83    10.472245    0.2143753 
   72800   -652.38767    76.510945   -575.87673    2321.2331    124796.28    10.472245   0.21721025 
   72900   -657.80628    73.227316   -584.57897    2221.6124    117560.59    10.472245    0.2048287 
   73000   -653.34502    70.575936   -582.76909    2141.1733     124105.2    10.472245   0.21398122 
   73100   -651.46559    76.871972   -574.59362    2332.1861    126409.68    10.472245   0.22829434 
   73200   -657.52249    73.335817   -584.18668    2224.9042    118469.42    10.472245   0.19031383 
   73300   -653.29666    69.767326   -583.52934    2116.6413    123071.47    10.472245   0.22653484 
   73400   -652.53091    81.028967   -571.50194    2458.3034    127663.83    10.472245   0.21387177 
   73500    -656.4453    72.296309   -584.14899     2193.367    118681.35    10.472245   0.23365605 
   73600   -652.67779    72.984369   -579.69343    2214.2418    123913.37    10.472245   0.23594507 
   73700   -651.09625    73.465528   -577.63072    2228.8395    125637.81    10.472245   0.23707085 
   73800   -662.00728    72.285938   -589.72134    2193.0524    112712.73    10.472245   0.20093529 
   73900   -654.85663    74.389967   -580.46666    2256.8856    122048.02    10.472245   0.19719435 
   74000   -652.32308    74.573005   -577.75008    2262.4387    125423.98    10.472245   0.22714985 
   74100   -652.36788    68.564244   -583.80363    2080.1415    122900.29    10.472245   0.23027707 
   74200   -654.69149    68.885155   -585.80634    2089.8774    122345.72    10.472245   0.18656337 
   74300   -653.99632    74.482798   -579.51352     2259.702    123231.27    10.472245   0.18625629 
   74400   -654.62133     66.59199   -588.02934    2020.3061    119173.07    10.472245   0.20860163 
   74500   -660.45979    74.948575   -585.51122     2273.833    114586.65    10.472245   0.17127853 
   74600   -653.05719    72.942897   -580.11429    2212.9836    124581.35    10.472245   0.20995608 
   74700    -653.5097    66.720863   -586.78884    2024.2159    122078.64    10.472245   0.20684838 
   74800   -654.16542    68.917775   -585.24765    2090.8671    121108.99    10.472245   0.24469568 
   74900   -654.01596    79.603534   -574.41242    2415.0578    124755.72    10.472245   0.22497214 
   75000   -656.63002    71.244975   -585.38505     2161.471    118809.72    10.472245   0.23000014 
   75100    -652.1009    70.590165   -581.51074     2141.605    125544.23    10.472245   0.21316502 
   75200   -657.44336     69.79388   -587.64948    2117.4469    115603.22    10.472245   0.21524534 
   75300   -658.39704    68.775364   -589.62168    2086.5466    114441.69    10.472245   0.20469544 
   75400   -652.56916    72.674529   -579.89463    2204.8417     124605.7    10.472245   0.21461441 
   75500   -653.02495    69.347404   -583.67755    2103.9014    123165.61    10.472245     0.235564 
   75600   -662.94001    72.076333   -590.86368    2186.6932    110651.84    10.472245   0.16996754 
   75700   -653.74401    76.294095   -577.44992    2314.6541    125790.87    10.472245    0.2269645 
   75800   -652.54484    70.184314   -582.36052    2129.2921    124520.33    10.472245   0.24688932 
   75900   -657.39143    69.576256   -587.81517    2110.8445     117049.7    10.472245   0.19427261 
   76000   -660.78088    79.421181    -581.3597    2409.5255    115635.15    10.472245   0.20657225 
   76100   -648.40793    71.541274   -576.86665    2170.4603    131068.17    10.472245   0.22511596 
   76200   -659.59347     69.63694   -589.95653    2112.6855    115017.33    10.472245   0.18786829 
   76300   -657.37235    73.980278   -583.39208    2244.4562    118310.54    10.472245   0.21395114 
   76400   -651.79302    70.735029     -581.058         2146    124926.73    10.472245   0.21120192 
   76500   -653.80342    69.670703   -584.13272    2113.7099    121760.01    10.472245   0.24812106 
   76600   -650.82283    68.949549   -581.87328    2091.8311    124217.49    10.472245   0.21741839 
   76700   -655.22098    71.988823   -583.23215    2184.0383    119132.34    10.472245   0.20667799 
   76800   -656.32321    65.369102    -590.9541    1983.2054    117873.13    10.472245   0.19097953 
   76900   -647.29601    71.290101   -576.00591    2162.8401    129511.32    10.472245   0.25737853 
   77000    -655.7219     73.36383   -582.35807    2225.7541    121658.41    10.472245   0.20183195 
   77100   -660.24053    72.327501   -587.91303    2194.3133    113964.58    10.472245   0.19648148 
   77200   -660.41621    76.711601   -583.70461    2327.3207    116565.77    10.472245   0.19199447 
   77300   -651.87483    70.059017   -581.81581    2125.4908    125778.34    10.472245   0.21131186 
   77400   -653.91379     67.41578   -586.49801    2045.2987    121280.93    10.472245   0.20366705 
   77500   -658.31485    71.463816   -586.85103    2168.1104    116953.62    10.472245   0.16432586 
   77600   -650.87659    76.909409   -573.96718    2333.3219    127814.25    10.472245   0.21592295 
   77700   -653.73744    73.471002   -580.26643    2229.0055    122887.59    10.472245   0.22232405 
   77800   -651.01162    66.973341   -584.03828    2031.8757    123712.43    10.472245   0.24573897 
   77900   -653.73939    72.604043   -581.13535    2202.7032    122211.99    10.472245   0.22699827 
   78000   -653.53649    86.546349   -566.99014    2625.6929    126587.48    10.472245   0.22580854 
[...]
   81400   -655.71601     77.19076   -578.52525    2341.8577    121807.42    10.472245   0.21990393 
   81500   -660.19721     71.85293   -588.34428    2179.9155     115183.2    10.472245   0.21925591 
   81600   -651.85881    73.361747   -578.49706    2225.6909    127371.38    10.472245   0.22434108 
   81700   -650.44853    70.188919   -580.25961    2129.4318    127956.46    10.472245   0.23079279 
   81800   -655.57416    69.776139   -585.79802    2116.9086     120181.7    10.472245   0.24885278 
   81900   -661.96809    72.356309   -589.61179    2195.1873    113151.95    10.472245   0.15555833 
   82000   -652.13979    74.738453   -577.40134    2267.4582    126279.46    10.472245    0.1996435 
   82100   -651.43221    69.509945   -581.92226    2108.8327    125803.86    10.472245   0.23314216 
   82200   -664.24582    70.219317   -594.02651     2130.354    109240.96    10.472245   0.17142474 
   82300   -658.57879    75.022877   -583.55591    2276.0872    117183.59    10.472245   0.16648077 
   82400    -655.1563    75.417731   -579.73856    2288.0665    123264.63    10.472245   0.21360512 
   82500    -648.4869    76.266387   -572.22051    2313.8135    131442.51    10.472245   0.24034503 
   82600   -659.39385    73.112135   -586.28171     2218.118    116349.32    10.472245   0.17754674 
   82700   -654.88616    70.831133   -584.05503    2148.9157    120201.49    10.472245   0.21534395 
   82800   -649.70573    74.953194   -574.75254    2273.9731    126961.84    10.472245   0.23222462 
   82900    -661.6127    71.906418   -589.70629    2181.5383    112425.67    10.472245   0.20928833 
   83000   -652.65515    72.800276   -579.85488    2208.6566    124416.95    10.472245   0.21649765 
   83100   -654.56199     72.66832   -581.89367    2204.6533    122115.57    10.472245   0.22311095 
   83200   -659.22516     67.05019   -592.17498    2034.2072    113838.98    10.472245   0.18073618 
   83300   -657.75425    76.573351    -581.1809    2323.1264    119330.27    10.472245   0.19670417 
   83400   -656.84718    73.371325   -583.47586    2225.9815    120062.31    10.472245   0.20504253 
   83500   -659.06955    69.361879   -589.70767    2104.3406     115433.8    10.472245   0.21231091 
   83600   -649.53798    70.804325   -578.73365    2148.1023     128099.8    10.472245   0.23286083 
   83700   -657.95694    77.852132   -580.10481    2361.9228    119443.75    10.472245   0.21125269 
   83800   -660.10171    71.371578   -588.73013     2165.312     114447.9    10.472245   0.20937891 
   83900    -646.6492    76.909156   -569.74005    2333.3142    133729.56    10.472245   0.23159332 
   84000   -654.92823    73.613736    -581.3145    2233.3359    122934.28    10.472245   0.22820275 
   84100   -655.11083    66.394253   -588.71657     2014.307    120065.49    10.472245   0.20568643 
   84200   -656.01556    78.568074   -577.44749    2383.6434    120802.55    10.472245   0.18021947 
   84300   -650.42718    66.600561   -583.82662    2020.5661    127319.23    10.472245   0.23748493 
   84400   -656.18078     72.60112   -583.57966    2202.6146    119785.96    10.472245   0.20780979 
   84500   -654.67674    71.572097   -583.10464    2171.3954    122229.49    10.472245   0.20424974 
   84600   -654.78476    76.893497   -577.89127    2332.8391    121966.54    10.472245   0.19366739 
   84700   -657.72669    70.211679   -587.51501    2130.1223    117017.03    10.472245    0.1915858 
   84800   -647.79823    67.314846   -580.48338    2042.2365     129035.8    10.472245    0.2302328 
   84900   -650.85552    73.018691   -577.83683     2215.283    126840.81    10.472245   0.22851198 
   85000   -663.62549    78.295693    -585.3298    2375.3798    111771.64    10.472245   0.18187438 
   85100   -655.97694    71.941709   -584.03523     2182.609     119967.5    10.472245   0.20795519 
   85200   -656.51369    74.432183   -582.08151    2258.1664    120211.06    10.472245   0.21373026 
   85300   -652.62777    71.993224   -580.63455    2184.1718    124982.03    10.472245   0.20322992 
   85400   -657.92414    67.688663   -590.23548    2053.5776    115228.34    10.472245   0.20965815 
   85500   -655.27497    74.377989   -580.89698    2256.5222    120474.79    10.472245   0.20146024 
   85600   -657.54604    77.387957   -580.15808    2347.8403    119783.22    10.472245   0.20007522 
   85700   -656.27697    67.959908   -588.31706    2061.8068    118971.33    10.472245   0.21125456 
   85800   -660.14065    67.556824   -592.58383    2049.5778     114890.7    10.472245   0.18494087 
   85900   -659.92539    76.753981   -583.17141    2328.6064    117606.04    10.472245   0.17301663 
   86000   -653.19138    69.804611   -583.38677    2117.7724    124123.98    10.472245   0.24431134 
   86100    -651.7623     73.92855   -577.83375    2242.8869    126978.99    10.472245   0.20902215 
   86200   -655.63703    71.731382   -583.90565    2176.2279    120050.53    10.472245   0.21342943 
   86300   -662.79765    72.400774   -590.39688    2196.5363    111859.03    10.472245   0.21914501 
   86400   -654.29598    76.312375    -577.9836    2315.2087    124030.98    10.472245   0.18422596 
   86500   -658.74008    70.960191   -587.77989    2152.8311    116434.28    10.472245   0.18857693 
   86600   -658.93963    78.110835   -580.82879    2369.7715    117027.87    10.472245   0.16693138 
   86700   -654.93944    76.747121   -578.19232    2328.3983     123143.2    10.472245   0.20131336 
   86800   -661.44406    71.496885   -589.94718    2169.1136    111967.98    10.472245   0.20608225 
   86900   -650.42786    70.665781   -579.76208    2143.8991    126925.29    10.472245   0.23801395 
   87000   -652.87308    72.393659   -580.47942    2196.3205    124398.81    10.472245    0.2126916 
   87100   -656.35613    65.651712   -590.70441    1991.7794       118297    10.472245   0.22012471 
   87200   -661.84128    81.868197   -579.97308    2483.7644     114260.5    10.472245    0.1762381 
   87300   -653.32917     68.95958   -584.36959    2092.1354    122055.77    10.472245   0.22010573 
   87400   -666.92551    72.237796   -594.68772    2191.5918    104355.15    10.472245   0.16580198 
   87500   -648.93922    68.317195   -580.62203    2072.6464    129024.48    10.472245   0.22950269 
   87600    -655.9368    72.981909   -582.95489    2214.1671    120579.58    10.472245   0.19738804 
   87700   -663.56192     71.84217   -591.71975    2179.5891    110190.58    10.472245   0.17270898 
   87800   -648.24385    69.354391   -578.88946    2104.1134    130986.24    10.472245    0.2302074 
   87900   -653.81799    70.570288    -583.2477     2141.002    123485.22    10.472245   0.25662665 
   88000   -656.26275    69.425105   -586.83764    2106.2588    119948.78    10.472245   0.21418154 
   88100   -653.80805    75.243171   -578.56488    2282.7706    124133.34    10.472245   0.21717305 
   88200   -652.22603    69.766856   -582.45918     2116.627    125350.05    10.472245   0.23836876 
   88300   -659.98557    71.930469    -588.0551     2182.268    113918.56    10.472245   0.18575897 
   88400   -653.57023     72.61127   -580.95896    2202.9225    124025.05    10.472245   0.21716467 
   88500   -645.88617    76.625144   -569.26103    2324.6977    133638.75    10.472245   0.23370598 
   88600   -650.94464    68.754389   -582.19025    2085.9102    124702.06    10.472245   0.22289276 
   88700   -656.31957    72.638492   -583.68108    2203.7484    119509.47    10.472245   0.19994985 
   88800   -651.14136    70.440744   -580.70061    2137.0718    126849.35    10.472245   0.22932873 
   88900    -656.6572    72.459865   -584.19734    2198.3291     118835.5    10.472245   0.19543818 
   89000   -656.36624    67.431601   -588.93463    2045.7787    116809.63    10.472245    0.1991086 
   89100   -653.45626    78.019479   -575.43678    2366.9998    124668.47    10.472245   0.23272435 
   89200    -651.7192    68.888809   -582.83039    2089.9883    126436.28    10.472245   0.22986215 
   89300   -657.53492    72.712826   -584.82209    2206.0035    118288.46    10.472245   0.19896692 
   89400   -659.27859    76.442861   -582.83573    2319.1675    118336.62    10.472245   0.20166985 
   89500   -657.10926    80.714707   -576.39455    2448.7692    121252.81    10.472245   0.22029851 
   89600   -649.23644    76.732334    -572.5041    2327.9497    130658.49    10.472245   0.20352747 
   89700   -656.85992    73.327661   -583.53226    2224.6568    119394.76    10.472245   0.19960054 
   89800    -655.9219    68.511454   -587.41044    2078.5399    118820.88    10.472245   0.21373219 
   89900   -653.33913    77.948933    -575.3902    2364.8596    123842.62    10.472245   0.21428523 
   90000   -657.12298    72.691584   -584.43139    2205.3591    118838.18    10.472245   0.22836139 
   90100   -655.98182    69.321315   -586.66051    2103.1099    118779.46    10.472245    0.1982971 
   90200   -653.93317    75.815105   -578.11807    2300.1223    123152.94    10.472245   0.21350961 
   90300   -657.75023    65.971703   -591.77852    2001.4875    115553.06    10.472245   0.22437169 
   90400   -658.25734    71.838262   -586.41907    2179.4705    117556.55    10.472245    0.2075594 
   90500   -650.51345    70.742988   -579.77046    2146.2415    127122.63    10.472245   0.21406159 
   90600   -656.35976    65.337447   -591.02231     1982.245    117826.36    10.472245   0.21320372 
   90700   -660.92609    73.740233   -587.18586    2237.1736     114706.4    10.472245   0.17922052 
   90800   -654.76124    74.464601   -580.29664    2259.1499    122170.64    10.472245   0.23747711 
   90900   -660.37323    76.923047   -583.45019    2333.7356    113926.07    10.472245   0.18707113 
   91000   -659.77713    69.053061   -590.72407    2094.9715    113530.69    10.472245   0.18556984 
   91100   -654.74503    77.886776   -576.85826    2362.9738    123477.24    10.472245   0.18087063 
   91200   -651.88193     67.28505   -584.59688    2041.3326    123604.98    10.472245   0.24235373 
   91300   -657.24856    74.614362    -582.6342    2263.6934    119381.94    10.472245   0.17785202 
   91400   -653.51601     80.61738   -572.89863    2445.8165    123982.77    10.472245   0.21040835 
   91500   -657.24746    71.439412   -585.80804      2167.37    118638.33    10.472245   0.19644948 
   91600   -654.17717     70.53083   -583.64634    2139.8049     120188.9    10.472245   0.22772567 
   91700   -647.79245    74.293181   -573.49927    2253.9492    130548.05    10.472245   0.25332151 
   91800   -656.99588    68.551015   -588.44486    2079.7401    118036.28    10.472245   0.20524186 
   91900   -652.35564    73.120448   -579.23519    2218.3702    125307.39    10.472245   0.25817322 
   92000   -655.86542    76.739134   -579.12629     2328.156    122077.62    10.472245   0.20624393 
   92100   -655.02904    69.999922   -585.02912    2123.6979    120075.52    10.472245   0.20290782 
   92200   -658.30888    78.334951   -579.97393    2376.5708    118731.07    10.472245   0.20266872 
   92300   -661.41134    75.498369   -585.91297    2290.5129    114167.22    10.472245   0.19437864 
   92400   -660.21612    71.205442   -589.01068    2160.2717    114660.81    10.472245   0.17152412 
   92500   -651.67967    71.699918   -579.97975    2175.2734    125847.49    10.472245   0.24550221 
   92600   -649.33476    67.643102   -581.69166    2052.1953    127300.02    10.472245   0.25242559 
   92700   -656.31484    71.819644   -584.49519    2178.9057    120644.46    10.472245    0.2000218 
   92800   -657.65183    71.536094   -586.11574    2170.3032    118333.73    10.472245   0.18438782 
   92900   -646.81278     70.41817   -576.39461    2136.3869    132283.63    10.472245   0.24482746 
   93000   -652.53006    68.855167   -583.67489    2088.9677    123472.68    10.472245   0.26477085 
   93100   -656.92831    68.446807    -588.4815    2076.5786    118266.96    10.472245   0.25375681 
   93200    -655.7211    75.498228   -580.22288    2290.5087    120893.11    10.472245   0.22436734 
   93300   -656.90301    76.356938   -580.54607    2316.5607    120710.83    10.472245   0.20651886 
   93400   -661.02127    68.789952   -592.23131    2086.9891    112583.43    10.472245   0.19355846 
   93500    -650.5424    69.649012   -580.89339    2113.0518    126846.76    10.472245   0.23367281 
   93600   -649.46611    67.287996   -582.17812    2041.4219    127349.68    10.472245   0.21596555 
   93700   -651.68249    61.472011   -590.21048    1864.9732    122813.84    10.472245     0.226731 
   93800   -655.35107    68.156656   -587.19442    2067.7758    120295.86    10.472245   0.23568413 
   93900   -653.24887    76.694445   -576.55442    2326.8002    125318.99    10.472245   0.20219518 
   94000   -660.89417    72.633334   -588.26084    2203.5919    113386.21    10.472245   0.18032739 
   94100   -657.76514    71.795583   -585.96956    2178.1757    117601.01    10.472245    0.2362485 
   94200   -653.83829    72.660633   -581.17765    2204.4201    124731.44    10.472245    0.2331231 
   94300   -653.66581    72.460658   -581.20515    2198.3531    123171.33    10.472245   0.21026689 
   94400   -659.56887    64.771227   -594.79764    1965.0667     113514.2    10.472245   0.18995398 
   94500   -660.02501     74.87884   -585.14617    2271.7173    115140.34    10.472245   0.18465193 
   94600    -653.7781    70.973314   -582.80479    2153.2292    122083.45    10.472245   0.20985362 
   94700   -655.11013    69.912425   -585.19771    2121.0434    120663.27    10.472245   0.21564106 
   94800    -655.8143    68.761924   -587.05238    2086.1388    119349.89    10.472245   0.18808096 
   94900      -650.68    74.255638   -576.42437    2252.8103    127708.65    10.472245   0.20237559 
   95000   -661.15159     75.90243   -585.24916    2302.7716    114217.83    10.472245   0.18838605 
   95100   -659.09683    72.433091   -586.66374    2197.5168    116615.58    10.472245   0.18033393 
   95200   -650.56565    71.094951    -579.4707    2156.9195    126677.66    10.472245   0.21451911 
   95300   -653.87611      62.9187   -590.95741    1908.8637    120403.92    10.472245   0.20542884 
   95400   -655.90352    70.320298   -585.58322    2133.4177    120644.37    10.472245   0.19396374 
   95500   -654.60375    72.869519   -581.73423    2210.7574    123074.38    10.472245   0.20676789 
   95600   -655.70818    66.839969   -588.86821    2027.8294    119629.42    10.472245   0.19316836 
   95700   -660.03663    71.172664   -588.86396    2159.2772    114521.43    10.472245    0.2078105 
   95800   -656.16453    74.570704   -581.59383    2262.3689    120579.82    10.472245   0.19798115 
   95900   -655.40785    70.626311   -584.78154    2142.7017    121719.23    10.472245   0.19954282 
   96000   -661.22205    67.878617   -593.34344    2059.3405    112792.16    10.472245   0.18472047 
   96100   -653.20519    73.210456   -579.99473    2221.1009    122585.02    10.472245   0.21312226 
   96200   -653.90295    69.453097   -584.44985     2107.108    122446.21    10.472245   0.21267585 
   96300   -661.88607    68.230552   -593.65552    2070.0177    110345.52    10.472245   0.18003817 
   96400   -659.15436    75.480496   -583.67386    2289.9707    115989.13    10.472245   0.21638487 
   96500   -651.56417    73.506128   -578.05804    2230.0712    126800.39    10.472245    0.2253712 
   96600   -659.23024    72.860051   -586.37019    2210.4701     115473.9    10.472245   0.17093975 
   96700   -660.35549    70.927352   -589.42814    2151.8348    115318.41    10.472245   0.17798677 
   96800   -656.59712    73.985861   -582.61126    2244.6256    119198.33    10.472245   0.16846979 
   96900    -660.0485    74.234475   -585.81403    2252.1682    116672.65    10.472245   0.21988454 
   97000   -650.61891     79.26041    -571.3585    2404.6479    128813.71    10.472245   0.22275152 
   97100   -659.44126    78.006719   -581.43454    2366.6127     116842.4    10.472245    0.1936708 
   97200   -651.34801     68.67304   -582.67497    2083.4422    124861.73    10.472245   0.29651066 
   97300   -645.29204     70.63424    -574.6578    2142.9422    134325.31    10.472245   0.27992417 
   97400   -659.15025    68.935896   -590.21435    2091.4169    114985.93    10.472245   0.20319009 
   97500   -657.44746    75.954197   -581.49326    2304.3421    120920.19    10.472245   0.20043172 
   97600   -651.50044    73.596663   -577.90378    2232.8179    125628.64    10.472245   0.25705433 
   97700   -661.47897    68.767942   -592.71103    2086.3214    113792.23    10.472245   0.18456406 
   97800   -651.99459    70.532451   -581.46214    2139.8541    125747.09    10.472245   0.20286744 
   97900    -658.1577    76.605669   -581.55203    2324.1069     117816.6    10.472245    0.2167381 
   98000   -664.47185    68.740864   -595.73099    2085.4999    107850.16    10.472245   0.17504225 
   98100   -655.57264    70.640401   -584.93223    2143.1291    120416.25    10.472245   0.21979064 
   98200   -655.18037    75.921119   -579.25925    2303.3386     122028.7    10.472245   0.22979724 
   98300   -651.80394    67.306978   -584.49696    2041.9978    123770.83    10.472245   0.20711919 
   98400   -661.62335    72.375524   -589.24782    2195.7703    112340.96    10.472245   0.18008043 
   98500   -652.49133    76.526172   -575.96515     2321.695    125082.58    10.472245   0.20104866 
   98600   -656.94061    70.974213    -585.9664    2153.2565    118294.76    10.472245   0.19341645 
   98700   -657.40185    71.031368   -586.37048    2154.9905    119002.29    10.472245   0.18155568 
   98800   -646.58418    73.403469   -573.18071    2226.9567    132467.94    10.472245   0.22672555 
   98900    -655.0879    72.214208   -582.87369    2190.8762    122450.86    10.472245   0.19436408 
   99000   -656.24481    73.046407    -583.1984    2216.1239    120076.65    10.472245   0.18657647 
   99100   -652.88834    73.972142    -578.9162    2244.2094    123712.58    10.472245   0.22214675 
   99200     -650.958    66.839349   -584.11865    2027.8106    124989.87    10.472245     0.210055 
   99300   -652.77791    62.969758   -589.80815    1910.4127    122676.69    10.472245   0.21831215 
   99400   -650.59152    74.180648   -576.41088    2250.5352    127236.83    10.472245   0.24277612 
   99500   -655.79907     70.47109   -585.32798    2137.9925    122215.91    10.472245   0.19414472 
   99600   -659.00873    73.589953   -585.41878    2232.6143    116298.42    10.472245   0.22478938 
   99700   -653.28035    69.216053    -584.0643    2099.9164    121721.78    10.472245   0.20786325 
   99800   -658.15914    69.020366   -589.13877    2093.9796    116719.49    10.472245   0.27328261 
   99900   -653.06545    73.657639   -579.40782    2234.6678    124741.13    10.472245   0.20806518 
  100000   -650.48784    70.734802   -579.75304    2145.9931    126363.77    10.472245   0.23631463 
Loop time of 74.9066 on 1 procs for 100000 steps with 256 atoms

Performance: 576.719 ns/day, 0.042 hours/ns, 1334.997 timesteps/s
100.0% CPU use with 1 MPI tasks x no OpenMP threads

MPI task timing breakdown:
Section |  min time  |  avg time  |  max time  |%varavg| %total
---------------------------------------------------------------
Pair    | 44.637     | 44.637     | 44.637     |   0.0 | 59.59
Neigh   | 3.5749     | 3.5749     | 3.5749     |   0.0 |  4.77
Comm    | 0.79048    | 0.79048    | 0.79048    |   0.0 |  1.06
Output  | 0.027382   | 0.027382   | 0.027382   |   0.0 |  0.04
Modify  | 25.734     | 25.734     | 25.734     |   0.0 | 34.35
Other   |            | 0.1426     |            |       |  0.19

Nlocal:    256 ave 256 max 256 min
Histogram: 1 0 0 0 0 0 0 0 0 0
Nghost:    1443 ave 1443 max 1443 min
Histogram: 1 0 0 0 0 0 0 0 0 0
Neighs:    13238 ave 13238 max 13238 min
Histogram: 1 0 0 0 0 0 0 0 0 0

Total # of neighbors = 13238
Ave neighs/atom = 51.7109
Neighbor list builds = 6427
Dangerous builds = 12
Total wall time: 0:01:14
