LAMMPS (3 Mar 2020)

# ---------- 1. Initialize simulation ----------
units metal
atom_style atomic
dimension 3
boundary p p p
read_data /home/modeler/RemLabs/Project/eval_timestep_nvt/n3_T1800_timestep1.896345e-03_steps7910/20201205-225055/lammps.data
  orthogonal box = (0 0 0) to (17.469 17.469 17.469)
  1 by 1 by 1 MPI processor grid
  reading atoms ...
  217 atoms
  read_data CPU = 0.00100959 secs

pair_style meam/c
pair_coeff * * library.meam Li Si LiSi.meam Li Si
Reading potential file library.meam with DATE: 2012-06-29
Reading potential file LiSi.meam with DATE: 2020-11-07

group Li type 1
1 atoms in group Li

velocity all create 1800 3320 dist gaussian

# ---------- 2. Describe computed properties----------
compute msdli Li msd
thermo_style custom step pe ke etotal temp press density c_msdli[4]
thermo 100

# ---------- 3. Specify ensemble  ----------
# fix 1 all npt temp 1800 1800 0.09481725476830624 tchain 2 iso 1.0 1.0 1.0 pchain 2
fix 1 all nvt temp 1800 1800 0.09481725476830624
# fix 1 all nve

# ---------- 4. Run -------------
timestep 0.0018963450953661247
run 7910
Neighbor list info ...
  update every 1 steps, delay 10 steps, check yes
  max neighbors/atom: 2000, page size: 100000
  master list distance cutoff = 6
  ghost atom cutoff = 6
  binsize = 3, bins = 6 6 6
  2 neighbor lists, perpetual/occasional/extra = 2 0 0
  (1) pair meam/c, perpetual
      attributes: full, newton on
      pair build: full/bin/atomonly
      stencil: full/bin/3d
      bin: standard
  (2) pair meam/c, perpetual, half/full from (1)
      attributes: half, newton on
      pair build: halffull/newton
      stencil: none
      bin: none
Per MPI rank memory allocation (min/avg/max) = 9.27 | 9.27 | 9.27 Mbytes
Step PotEng KinEng TotEng Temp Press Density c_msdli[4] 
       0   -951.04357    50.256344   -900.78722         1800   -114161.75    1.8918427            0 
     100   -921.35909    37.194579   -884.16451    1332.1749   -84254.026    1.8918427  0.094509048 
     200   -904.27603    44.818801   -859.45723    1605.2469    -67350.18    1.8918427  0.093433442 
     300   -900.52025    55.010552   -845.50969    1970.2785   -61332.745    1.8918427  0.090871159 
     400   -908.23658    52.035885   -856.20069    1863.7367   -69352.429    1.8918427   0.10458901 
     500   -904.82459    47.751651   -857.07294     1710.291   -65825.377    1.8918427   0.12229329 
     600   -900.42267    52.325913   -848.09675    1874.1244   -61604.265    1.8918427  0.035460335 
     700   -906.52826    52.406542   -854.12172    1877.0123   -66116.969    1.8918427   0.28998119 
     800   -903.83419    46.426044   -857.40814    1662.8125   -67257.096    1.8918427   0.22301943 
     900   -902.28979    53.703932   -848.58586    1923.4801   -62263.668    1.8918427  0.026164284 
    1000   -905.54258    49.404423   -856.13816    1769.4873    -66258.35    1.8918427    0.1303923 
    1100   -910.30559    48.214668   -862.09093    1726.8746   -71187.852    1.8918427    0.0965374 
    1200   -904.56439    51.392886    -853.1715    1840.7068   -63845.224    1.8918427   0.10342964 
    1300   -899.62568    50.281437   -849.34424    1800.8987    -60897.37    1.8918427    1.4764049 
    1400    -905.1952     47.69962   -857.49558    1708.4274   -69423.956    1.8918427    0.9251354 
    1500   -900.67766    52.998446   -847.67921    1898.2122   -62290.948    1.8918427    1.0266495 
    1600   -901.01689    50.223553   -850.79334    1798.8255   -63742.559    1.8918427   0.03341907 
    1700   -904.89658    48.980653   -855.91593    1754.3094   -68420.991    1.8918427    9.4329912 
    1800   -897.44639    51.950635   -845.49576    1860.6833   -60193.427    1.8918427    2.6761977 
    1900   -901.18554    49.365256   -851.82028    1768.0844   -66318.123    1.8918427    3.1943063 
    2000   -903.94126    49.929366    -854.0119    1788.2888   -68245.992    1.8918427    13.168912 
    2100   -902.17122    53.279904   -848.89132    1908.2929   -64861.549    1.8918427    8.4364287 
    2200   -899.60672    55.257765   -844.34896    1979.1328    -63716.14    1.8918427    9.6680414 
    2300     -904.002    51.435341   -852.56666    1842.2274   -70754.869    1.8918427    6.8049012 
    2400   -900.51594    45.788636    -854.7273    1639.9829    -67014.71    1.8918427    5.0195723 
    2500   -898.00669      52.5597   -845.44699    1882.4978   -62211.991    1.8918427    9.6963511 
    2600   -905.65215    52.424054   -853.22809    1877.6395   -72642.394    1.8918427    3.0745089 
    2700    -900.2576    47.269031   -852.98857    1693.0053   -65286.498    1.8918427    12.359464 
    2800   -901.81962    54.486842   -847.33278    1951.5211   -67532.929    1.8918427    6.3746992 
    2900   -900.72185    50.269445    -850.4524    1800.4692   -65611.349    1.8918427    15.096113 
    3000   -903.85026    47.806503   -856.04376    1712.2556   -68408.875    1.8918427    6.9891364 
    3100   -896.20575    50.242695   -845.96306    1799.5111   -61650.828    1.8918427    5.5891393 
    3200    -900.0669    49.220511   -850.84639    1762.9002   -62701.755    1.8918427    5.9568254 
    3300   -904.28904     50.63094    -853.6581    1813.4166   -68663.675    1.8918427    4.9032743 
    3400   -902.70011    53.809015    -848.8911    1927.2438    -68277.82    1.8918427    4.0444128 
    3500   -899.38433    51.536683   -847.84765    1845.8571   -63812.624    1.8918427    10.553127 
    3600   -906.89911    52.318087   -854.58103    1873.8441   -70137.528    1.8918427    7.7632398 
    3700   -899.47789    49.040706   -850.43719    1756.4603   -65531.559    1.8918427    7.0540329 
    3800   -894.05442     55.14194   -838.91248    1974.9843   -60860.164    1.8918427    10.614668 
    3900   -901.36257    49.988552   -851.37402    1790.4086     -66887.2    1.8918427     3.507191 
    4000   -903.49704    48.851129   -854.64591    1749.6703   -66840.852    1.8918427    3.8000395 
    4100   -901.38769    54.400671   -846.98702    1948.4347   -61937.403    1.8918427    8.3594792 
    4200   -902.51632    48.933615    -853.5827    1752.6246   -63432.411    1.8918427   0.72679223 
    4300   -904.77388    50.372632   -854.40124     1804.165   -66831.656    1.8918427   0.32258674 
    4400    -899.2739    50.608338   -848.66556    1812.6071   -63949.171    1.8918427    1.0249338 
    4500   -907.41991    49.643331   -857.77658    1778.0441   -72166.391    1.8918427   0.95149065 
    4600    -903.6038    49.292606    -854.3112    1765.4824   -68574.665    1.8918427   0.21083807 
    4700   -900.02708    49.990863   -850.03622    1790.4914   -60556.256    1.8918427   0.23398214 
    4800    -903.9609    49.742716   -854.21818    1781.6037   -69480.373    1.8918427  0.034441589 
    4900   -908.07014    44.878628   -863.19152    1607.3897   -70338.562    1.8918427  0.082412002 
    5000   -901.20113    47.037822    -854.1633    1684.7242    -63373.15    1.8918427  0.049750436 
    5100   -899.86267     48.53064   -851.33203    1738.1915   -64277.716    1.8918427   0.28432506 
    5200   -904.97744    52.244209   -852.73323    1871.1981   -68714.384    1.8918427   0.16569399 
    5300   -904.69916    46.702577   -857.99659    1672.7169   -66977.754    1.8918427   0.28998074 
    5400   -903.11167    54.596382   -848.51528    1955.4444   -67327.037    1.8918427   0.14300903 
    5500   -903.09437    50.411727   -852.68264    1805.5652   -68066.184    1.8918427    0.2107373 
    5600   -907.05541    49.864703   -857.19071    1785.9728   -70034.752    1.8918427   0.20785965 
    5700   -901.46028    54.750356   -846.70992    1960.9592   -63942.554    1.8918427   0.20535428 
    5800   -901.23279    46.451016   -854.78177    1663.7069   -64881.184    1.8918427   0.13353687 
    5900   -901.68615    47.628413   -854.05774     1705.877   -65280.528    1.8918427  0.082702562 
    6000   -900.21016    54.993972   -845.21619    1969.6847   -63342.386    1.8918427   0.41879883 
    6100   -903.89313    51.092606   -852.80053    1829.9519   -65001.704    1.8918427   0.36813857 
    6200   -907.24311    53.202982   -854.04013    1905.5379    -70663.48    1.8918427  0.099800332 
    6300    -899.0107    54.337671   -844.67303    1946.1783   -64999.999    1.8918427   0.41993592 
    6400   -902.24218    48.896343   -853.34583    1751.2897   -67366.644    1.8918427  0.068787654 
    6500   -899.80948    46.039692   -853.76979    1648.9748   -63762.783    1.8918427   0.74897832 
    6600   -893.99776    50.625366   -843.37239     1813.217   -60532.749    1.8918427   0.93237456 
    6700   -903.26456    58.820904   -844.44365    2106.7515   -64816.778    1.8918427   0.44767717 
    6800   -904.33278    51.901787   -852.43099    1858.9338    -68897.44    1.8918427    5.8790387 
    6900    -905.6344    51.659256   -853.97514    1850.2472   -68057.337    1.8918427    8.2648236 
    7000   -896.34808    52.087093   -844.26099    1865.5708   -60340.333    1.8918427     1.327283 
    7100   -905.21643    54.257657   -850.95877    1943.3125   -68747.536    1.8918427   0.96564024 
    7200   -902.01973    49.424754   -852.59498    1770.2154   -67158.676    1.8918427   0.51674808 
    7300   -898.92196    52.258409   -846.66355    1871.7067   -64369.883    1.8918427   0.41407574 
    7400   -905.15428    53.609704   -851.54458    1920.1052   -70107.023    1.8918427    8.5173129 
    7500   -904.07689    49.580752   -854.49613    1775.8027   -71479.689    1.8918427    15.117269 
    7600   -902.97143    52.736443   -850.23499    1888.8282   -70931.412    1.8918427    11.258531 
    7700   -901.41752      50.5651   -850.85242    1811.0585   -69619.484    1.8918427    11.606777 
    7800   -903.41442    48.314269   -855.10015    1730.4419   -69085.536    1.8918427    11.789866 
    7900   -903.55406    47.664166    -855.8899    1707.1576   -69055.461    1.8918427    18.221691 
    7910    -907.8527    53.510863   -854.34184     1916.565   -71492.921    1.8918427    19.823422 
Loop time of 4.38631 on 1 procs for 7910 steps with 217 atoms

Performance: 295.467 ns/day, 0.081 hours/ns, 1803.340 timesteps/s
100.0% CPU use with 1 MPI tasks x no OpenMP threads

MPI task timing breakdown:
Section |  min time  |  avg time  |  max time  |%varavg| %total
---------------------------------------------------------------
Pair    | 4.1819     | 4.1819     | 4.1819     |   0.0 | 95.34
Neigh   | 0.1238     | 0.1238     | 0.1238     |   0.0 |  2.82
Comm    | 0.03603    | 0.03603    | 0.03603    |   0.0 |  0.82
Output  | 0.0023466  | 0.0023466  | 0.0023466  |   0.0 |  0.05
Modify  | 0.032527   | 0.032527   | 0.032527   |   0.0 |  0.74
Other   |            | 0.00972    |            |       |  0.22

Nlocal:    217 ave 217 max 217 min
Histogram: 1 0 0 0 0 0 0 0 0 0
Nghost:    874 ave 874 max 874 min
Histogram: 1 0 0 0 0 0 0 0 0 0
Neighs:    3627 ave 3627 max 3627 min
Histogram: 1 0 0 0 0 0 0 0 0 0
FullNghs:  7254 ave 7254 max 7254 min
Histogram: 1 0 0 0 0 0 0 0 0 0

Total # of neighbors = 7254
Ave neighs/atom = 33.4286
Neighbor list builds = 226
Dangerous builds = 0
Total wall time: 0:00:04
