LAMMPS (3 Mar 2020)

    # ---------- Initialize simulation ---------------------
    units metal
    atom_style atomic
    dimension  3
    boundary   p p p
    read_data /home/modeler/RemLabs/Lab4/Problem1C_v1/size_5/lammps.data
  orthogonal box = (0 0 0) to (20.45 20.45 20.45)
  1 by 1 by 1 MPI processor grid
  reading atoms ...
  500 atoms
  read_data CPU = 0.00132982 secs

    pair_style eam
    pair_coeff * * /usr/share/lammps-stable/potentials/Ag_u3.eam
Reading potential file /usr/share/lammps-stable/potentials/Ag_u3.eam with DATE: 2007-06-11

    velocity  all create 300 87287 dist gaussian

    # ---------- Describe computed properties------------------
    compute msdall all msd
    thermo_style custom step pe ke etotal temp press density c_msdall[4]
    thermo 100

    # ---------- Specify ensemble  ---------------------
    fix  1 all nve
    #fix  1 all nvt temp 300 300 0.05
    #fix 1 all npt temp 300 300 0.05 tchain 2 iso 1.0 1.0 1.0 pchain 2

    # --------- Compute RDF ---------------
    compute rdfall all rdf 100 1 1
    fix 2 all ave/time 1 2500 2500 c_rdfall[*] file /home/modeler/RemLabs/Lab4/Problem1C_v1/size_5/lammps.rdf mode vector

    # --------- Run -------------
    timestep 0.001
    run 10000
Neighbor list info ...
  update every 1 steps, delay 10 steps, check yes
  max neighbors/atom: 2000, page size: 100000
  master list distance cutoff = 7.55
  ghost atom cutoff = 7.55
  binsize = 3.775, bins = 6 6 6
  2 neighbor lists, perpetual/occasional/extra = 1 1 0
  (1) pair eam, perpetual
      attributes: half, newton on
      pair build: half/bin/atomonly/newton
      stencil: half/bin/3d/newton
      bin: standard
  (2) compute rdf, occasional, copy from (1)
      attributes: half, newton on
      pair build: copy
      stencil: none
      bin: none
Per MPI rank memory allocation (min/avg/max) = 3.769 | 3.769 | 3.769 Mbytes
Step PotEng KinEng TotEng Temp Press Density c_msdall[4] 
       0        -1425    19.350244   -1405.6498          300    2416.6578    10.472245            0 
     100   -1414.6551    9.0061604   -1405.6489    139.62864    8658.0203    10.472245  0.014179322 
     200   -1417.2073    11.558513   -1405.6488     179.1995    7398.7342    10.472245 0.0098650091 
     300   -1416.2413    10.592586   -1405.6488    164.22407    7912.4142    10.472245  0.010526074 
     400   -1415.7535    10.104919   -1405.6486    156.66344    8325.9058    10.472245   0.01026083 
     500   -1415.4223     9.773798   -1405.6486    151.52984    8553.6541    10.472245  0.010123365 
     600    -1416.002    10.353379   -1405.6486    160.51549    8270.2973    10.472245 0.0092872825 
     700   -1414.5053    8.8567941   -1405.6485    137.31291    9126.4902    10.472245  0.011790304 
     800   -1416.7084    11.059702   -1405.6487    171.46609    7825.5797    10.472245 0.0093842472 
     900   -1414.9826    9.3340721   -1405.6485    144.71247    8768.1737    10.472245  0.011592107 
    1000   -1415.8915    10.242918   -1405.6486    158.80292    8257.3773    10.472245 0.0097725164 
    1100   -1416.3026    10.653909   -1405.6487    165.17481    8030.8866    10.472245 0.0096419997 
    1200   -1415.4349    9.7863973   -1405.6485    151.72518    8578.8066    10.472245  0.010634373 
    1300   -1414.8245    9.1760466   -1405.6485     142.2625    8957.2619    10.472245  0.011830815 
    1400   -1416.0684    10.419894   -1405.6486     161.5467    8194.9904    10.472245 0.0099374262 
    1500   -1414.6613    9.0129345   -1405.6484    139.73366    9122.2832    10.472245  0.011180399 
    1600   -1414.4373    8.7889919   -1405.6483    136.26172    9301.9485    10.472245  0.011187088 
    1700   -1415.1021     9.453714   -1405.6484    146.56736    8839.8241    10.472245  0.010480282 
    1800   -1414.8282    9.1798927   -1405.6484    142.32213    9065.5209    10.472245  0.010129307 
    1900   -1414.5382    8.8898418   -1405.6483    137.82527    9132.5073    10.472245  0.011671112 
    2000    -1415.216    9.5675339   -1405.6484    148.33199    8793.2852    10.472245  0.011499205 
    2100   -1414.7194    9.0709414   -1405.6484    140.63298    8998.2703    10.472245  0.010948418 
    2200   -1416.7092    11.060543   -1405.6486    171.47913    7839.4721    10.472245 0.0083816693 
    2300   -1415.1419    9.4933576   -1405.6485    147.18199     8723.104    10.472245  0.010842896 
    2400   -1415.2389    9.5904146   -1405.6485    148.68673    8689.4728    10.472245  0.011594514 
    2500   -1416.3187    10.670045   -1405.6486    165.42496    8002.1166    10.472245  0.010055732 
    2600   -1415.1632     9.514691   -1405.6485    147.51273    8773.4832    10.472245  0.010141133 
    2700   -1415.2325    9.5839753   -1405.6485    148.58689    8737.7194    10.472245  0.010008052 
    2800   -1415.5544    9.9059309   -1405.6485    153.57839    8632.6688    10.472245 0.0098674797 
    2900   -1414.4025    8.7541619   -1405.6484    135.72173    9300.9792    10.472245  0.011537981 
    3000   -1414.4965    8.8481307   -1405.6484    137.17859    9228.1569    10.472245  0.011643249 
    3100   -1416.1002    10.451673   -1405.6485     162.0394    8201.5479    10.472245 0.0096218034 
    3200   -1414.6772    9.0287785   -1405.6484     139.9793     9050.068    10.472245  0.010912297 
    3300   -1415.6311    9.9826494   -1405.6485    154.76781     8504.053    10.472245 0.0097245472 
    3400   -1415.3602    9.7116474   -1405.6485    150.56628    8636.9338    10.472245    0.0112385 
    3500   -1415.0015    9.3530233   -1405.6485    145.00629    8794.0808    10.472245  0.010902596 
    3600   -1416.3695    10.720867   -1405.6486     166.2129    8014.2602    10.472245 0.0094643326 
    3700   -1415.4453    9.7967431   -1405.6485    151.88558    8545.7771    10.472245   0.01074466 
    3800   -1414.3305    8.6821619   -1405.6484    134.60547    9301.5923    10.472245  0.011330922 
    3900   -1415.6955    10.046949   -1405.6485    155.76469    8483.7052    10.472245  0.010174207 
    4000   -1415.0131    9.3646859   -1405.6485     145.1871    8874.7941    10.472245  0.010733722 
    4100    -1415.334    9.6855768   -1405.6485    150.16209     8643.545    10.472245  0.010581712 
    4200   -1414.6135    8.9651389   -1405.6484    138.99265    9101.5385    10.472245  0.012073438 
    4300   -1415.3614    9.7129145   -1405.6485    150.58592    8699.7825    10.472245  0.010143226 
    4400   -1415.1202    9.4716677   -1405.6485    146.84571    8753.0371    10.472245  0.010222478 
    4500   -1416.1051    10.456531   -1405.6485    162.11471    8198.2143    10.472245 0.0095928179 
    4600   -1414.3512    8.7028198   -1405.6484    134.92574    9236.0823    10.472245  0.012808436 
    4700   -1415.6222    9.9736936   -1405.6485    154.62896    8495.3638    10.472245  0.010505486 
    4800   -1414.9937    9.3452655   -1405.6485    144.88601      8843.68    10.472245  0.010940549 
    4900   -1415.6084    9.9599076   -1405.6485    154.41523    8501.8632    10.472245  0.010066553 
    5000   -1415.2141    9.5655812   -1405.6485    148.30172    8694.2808    10.472245  0.010655837 
    5100   -1415.6023    9.9538093   -1405.6485    154.32068    8494.7893    10.472245  0.010878851 
    5200   -1414.6729    9.0244706   -1405.6484    139.91251    9028.0601    10.472245  0.012175572 
    5300   -1415.3796     9.731148   -1405.6485    150.86861    8639.8266    10.472245  0.010256033 
    5400   -1415.4122    9.7636794   -1405.6485    151.37297    8630.3252    10.472245 0.0097813609 
    5500   -1414.9198    9.2713844   -1405.6485    143.74058     8887.578    10.472245  0.010978071 
    5600   -1415.7704    10.121842   -1405.6485     156.9258     8386.276    10.472245  0.010791552 
    5700   -1414.8192    9.1707032   -1405.6485    142.17965    8918.9098    10.472245  0.011958455 
    5800   -1415.7988    10.150245   -1405.6485    157.36616     8340.395    10.472245 0.0098102341 
    5900   -1415.6113    9.9627403   -1405.6485    154.45914    8502.4051    10.472245  0.010180498 
    6000   -1414.7807    9.1322203   -1405.6485    141.58303    8961.9575    10.472245   0.01169094 
    6100   -1416.0066    10.358021   -1405.6486    160.58745    8235.5436    10.472245 0.0099676754 
    6200   -1415.3805    9.7319316   -1405.6486    150.88076    8557.6225    10.472245  0.011131852 
    6300   -1415.4479    9.7993298   -1405.6485    151.92568    8554.8566    10.472245  0.010337611 
    6400   -1415.4806    9.8320756   -1405.6485    152.43336    8546.7326    10.472245  0.010167805 
    6500   -1415.1385     9.490069   -1405.6485      147.131    8776.7967    10.472245  0.010715602 
    6600   -1415.1504     9.501885   -1405.6485    147.31419    8760.2575    10.472245  0.010621468 
    6700   -1415.9086     10.26001   -1405.6486    159.06792    8311.1262    10.472245  0.010353061 
    6800   -1414.9684    9.3199441   -1405.6485    144.49344    8854.2568    10.472245  0.011411591 
    6900   -1415.0958    9.4473774   -1405.6484    146.46912    8836.3917    10.472245  0.010789514 
    7000   -1414.7314     9.083039   -1405.6484    140.82054    9042.8579    10.472245  0.011259608 
    7100   -1415.2195    9.5710813   -1405.6484    148.38699    8745.0591    10.472245  0.010281093 
    7200   -1414.9161    9.2676692   -1405.6484    143.68298    8932.6126    10.472245  0.010758544 
    7300   -1415.3264     9.677916   -1405.6485    150.04332    8700.5262    10.472245  0.011121985 
    7400   -1414.7656    9.1171623   -1405.6484    141.34957    9024.3336    10.472245  0.011745512 
    7500   -1415.5308    9.8822555   -1405.6485    153.21133    8549.8253    10.472245  0.010158672 
    7600   -1415.6953    10.046772   -1405.6485    155.76195    8430.3038    10.472245  0.010163099 
    7700   -1415.2726    9.6240678   -1405.6485    149.20847    8710.8249    10.472245  0.011232796 
    7800   -1415.2462    9.5976556   -1405.6485    148.79899    8682.1921    10.472245   0.01156865 
    7900    -1415.367    9.7184724   -1405.6485    150.67209    8678.0147    10.472245  0.010837678 
    8000   -1415.1234     9.474958   -1405.6485    146.89672    8812.2782    10.472245   0.01042731 
    8100   -1415.3812     9.732711   -1405.6485    150.89284    8663.7896    10.472245  0.010028437 
    8200   -1415.1148    9.4663009   -1405.6485    146.76251    8764.1141    10.472245  0.011027649 
    8300    -1415.381    9.7324857   -1405.6485    150.88935    8655.1108    10.472245  0.011039028 
    8400    -1415.143    9.4945472   -1405.6485    147.20043    8751.6989    10.472245  0.011328584 
    8500   -1415.3367    9.6882038   -1405.6485    150.20282    8668.9624    10.472245  0.010196213 
    8600   -1415.3918    9.7433103   -1405.6485    151.05717    8629.6113    10.472245  0.010176651 
    8700    -1415.353    9.7044584   -1405.6485    150.45482    8589.3448    10.472245  0.010961765 
    8800   -1415.1132    9.4646941   -1405.6485     146.7376    8798.4464    10.472245   0.01126324 
    8900    -1415.565    9.9164274   -1405.6485    153.74112    8473.2009    10.472245  0.010767012 
    9000   -1415.5738    9.9252089   -1405.6485    153.87727    8520.1734    10.472245  0.010890339 
    9100   -1415.2179    9.5693713   -1405.6485    148.36048    8707.3039    10.472245  0.010927786 
    9200   -1415.3594    9.7109025   -1405.6485    150.55473    8646.0361    10.472245  0.010581707 
    9300   -1414.9256    9.2771546   -1405.6485    143.83004    8887.6479    10.472245  0.011354453 
    9400   -1415.6453    9.9967751   -1405.6485    154.98681    8472.3234    10.472245  0.010346786 
    9500   -1415.1786    9.5301491   -1405.6485    147.75239    8715.6901    10.472245   0.01158806 
    9600   -1415.0248    9.3763533   -1405.6485    145.36799    8848.3938    10.472245  0.011473425 
    9700   -1415.8207    10.172168   -1405.6485    157.70604    8323.7731    10.472245 0.0097525767 
    9800   -1415.3844    9.7359155   -1405.6485    150.94252    8611.4713    10.472245  0.010601334 
    9900   -1415.1355    9.4870104   -1405.6485    147.08358    8749.9299    10.472245  0.011421577 
   10000   -1415.2678    9.6192484   -1405.6485    149.13376    8633.4708    10.472245   0.01164554 
Loop time of 8.55618 on 1 procs for 10000 steps with 500 atoms

Performance: 100.980 ns/day, 0.238 hours/ns, 1168.745 timesteps/s
100.1% CPU use with 1 MPI tasks x no OpenMP threads

MPI task timing breakdown:
Section |  min time  |  avg time  |  max time  |%varavg| %total
---------------------------------------------------------------
Pair    | 5.8646     | 5.8646     | 5.8646     |   0.0 | 68.54
Neigh   | 0          | 0          | 0          |   0.0 |  0.00
Comm    | 0.088642   | 0.088642   | 0.088642   |   0.0 |  1.04
Output  | 0.0033595  | 0.0033595  | 0.0033595  |   0.0 |  0.04
Modify  | 2.5713     | 2.5713     | 2.5713     |   0.0 | 30.05
Other   |            | 0.02831    |            |       |  0.33

Nlocal:    500 ave 500 max 500 min
Histogram: 1 0 0 0 0 0 0 0 0 0
Nghost:    1956 ave 1956 max 1956 min
Histogram: 1 0 0 0 0 0 0 0 0 0
Neighs:    21500 ave 21500 max 21500 min
Histogram: 1 0 0 0 0 0 0 0 0 0

Total # of neighbors = 21500
Ave neighs/atom = 43
Neighbor list builds = 0
Dangerous builds = 0
    
Total wall time: 0:00:08
