LAMMPS (3 Mar 2020)
Reading data file ...
  orthogonal box = (0 0 0) to (17.469 17.469 17.469)
  1 by 1 by 1 MPI processor grid
  reading atoms ...
  217 atoms
  read_data CPU = 0.00116464 secs
Reading potential file library.meam with DATE: 2012-06-29
Reading potential file LiSi.meam with DATE: 2020-11-07
1 atoms in group Li
216 atoms in group Si
Neighbor list info ...
  update every 1 steps, delay 10 steps, check yes
  max neighbors/atom: 2000, page size: 100000
  master list distance cutoff = 6
  ghost atom cutoff = 6
  binsize = 3, bins = 6 6 6
  2 neighbor lists, perpetual/occasional/extra = 2 0 0
  (1) pair meam/c, perpetual
      attributes: full, newton on
      pair build: full/bin/atomonly
      stencil: full/bin/3d
      bin: standard
  (2) pair meam/c, perpetual, half/full from (1)
      attributes: half, newton on
      pair build: halffull/newton
      stencil: none
      bin: none
Setting up Verlet run ...
  Unit style    : metal
  Current step  : 0
  Time step     : 0.003
Per MPI rank memory allocation (min/avg/max) = 8.895 | 8.895 | 8.895 Mbytes
Step Temp E_pair E_mol TotEng Press Volume 
       0         1400   -951.04357            0    -911.9553   -116399.41    5330.9442 
    3200    1385.4431   -953.30004            0    -914.6182    6043.9192    4569.1282 
Loop time of 2.33372 on 1 procs for 3200 steps with 217 atoms

Performance: 355.416 ns/day, 0.068 hours/ns, 1371.203 timesteps/s
100.0% CPU use with 1 MPI tasks x no OpenMP threads

MPI task timing breakdown:
Section |  min time  |  avg time  |  max time  |%varavg| %total
---------------------------------------------------------------
Pair    | 2.2805     | 2.2805     | 2.2805     |   0.0 | 97.72
Neigh   | 0.0035187  | 0.0035187  | 0.0035187  |   0.0 |  0.15
Comm    | 0.014007   | 0.014007   | 0.014007   |   0.0 |  0.60
Output  | 2.4265e-05 | 2.4265e-05 | 2.4265e-05 |   0.0 |  0.00
Modify  | 0.030511   | 0.030511   | 0.030511   |   0.0 |  1.31
Other   |            | 0.005121   |            |       |  0.22

Nlocal:    217 ave 217 max 217 min
Histogram: 1 0 0 0 0 0 0 0 0 0
Nghost:    957 ave 957 max 957 min
Histogram: 1 0 0 0 0 0 0 0 0 0
Neighs:    4118 ave 4118 max 4118 min
Histogram: 1 0 0 0 0 0 0 0 0 0
FullNghs:  8236 ave 8236 max 8236 min
Histogram: 1 0 0 0 0 0 0 0 0 0

Total # of neighbors = 8236
Ave neighs/atom = 37.9539
Neighbor list builds = 6
Dangerous builds = 0
Setting up Verlet run ...
  Unit style    : metal
  Current step  : 3200
  Time step     : 0.003
Per MPI rank memory allocation (min/avg/max) = 9.666 | 9.666 | 9.666 Mbytes
Step PotEng KinEng TotEng Temp Press Density c_msdli[4] c_msdsi[4] 
    3200   -953.30004    38.681837    -914.6182    1385.4431    6043.9192    2.2072718            0 4.7991321e-32 
    3300    -950.7344    42.588337   -908.14606    1525.3598    1236.3866    2.1875492   0.17522869  0.085988272 
    3400    -953.0441    40.426592   -912.61751    1447.9339   -5490.9135    2.1766034  0.014957535  0.094843885 
    3500   -954.26572    38.510055   -915.75566    1379.2905   -5999.1722    2.1795041  0.085436005  0.077468352 
    3600   -954.82861    39.700087   -915.12853    1421.9131    1061.2109    2.2009624  0.081798508  0.097806812 
    3700   -955.08667    41.028382   -914.05829    1469.4878    7337.5154    2.2158065  0.066543805  0.071204156 
    3800   -948.80437    42.755119   -906.04925    1531.3333   -2072.2124    2.1786914   0.19372174   0.10677551 
    3900   -951.66793    38.386199   -913.28173    1374.8544   -6854.2082    2.1747813   0.26814207   0.10535938 
    4000   -954.48563    38.658753   -915.82688    1384.6163   -2028.3291     2.190526  0.096615746  0.097900848 
    4100   -955.49912    39.532897   -915.96623     1415.925    6404.1733    2.2112815  0.014886587  0.090000414 
    4200   -950.04796     42.81463   -907.23333    1533.4648    4299.4755    2.1960892   0.18527405  0.097017746 
    4300   -952.97245    39.097322   -913.87513    1400.3243    1111.8324    2.1974885  0.048508432  0.088705935 
    4400   -955.42106    38.829032   -916.59202    1390.7151    -5940.561    2.1843811  0.080593505  0.083664704 
    4500   -952.86867    40.154907   -912.71376    1438.2032   -5437.0511    2.1792992 0.0094098952    0.1058759 
    4600   -951.89035      42.3812   -909.50915    1517.9409    2036.4548    2.1932332  0.071245113  0.090858138 
    4700    -954.7574    38.896121   -915.86128     1393.118    8634.7298    2.2188523  0.075111555  0.099133796 
    4800   -957.21984    41.861235    -915.3586    1499.3176    593.90403    2.2052524  0.063117875  0.090343675 
    4900   -951.64092    42.431069   -909.20985     1519.727   -6945.5575    2.1727182   0.10101079   0.10523983 
    5000   -954.59867    39.653034   -914.94563    1420.2279   -7032.7364    2.1793781  0.061725497   0.10328479 
    5100   -953.26237    36.726552   -916.53582    1315.4119   -431.23844    2.1964965  0.022178238  0.092355682 
    5200   -951.71897    37.822761   -913.89621    1354.6741    9587.7336    2.2148048  0.014223097   0.10825187 
    5300   -953.17607    39.798214   -913.37786    1425.4277    4061.3582    2.2057177  0.052819274  0.095466007 
    5400   -957.81394    36.317748   -921.49619      1300.77   -2673.2919    2.2028492  0.079977947  0.098648818 
    5500    -953.4798    36.424785   -917.05501    1304.6037   -6099.1607     2.184801  0.020714716   0.10763404 
    5600    -953.4974    39.272429   -914.22497     1406.596   -1560.9145    2.1900053    0.1100266  0.097249102 
    5700   -959.71561    43.073381   -916.64223    1542.7323    1735.7611    2.2116179   0.14471231   0.10183166 
    5800   -961.38467    40.176312   -921.20836    1438.9698     5257.723    2.2243154  0.025358798   0.09533782 
    5900   -954.32723    39.817164   -914.51006    1426.1064   -1457.3405    2.1937533  0.084299428   0.10110708 
    6000   -954.64613    39.510873   -915.13526    1415.1362   -9723.5349    2.1759198  0.012668747   0.11429866 
    6100   -956.99056    35.697702   -921.29286    1278.5622   -4032.4086    2.1947637    0.1094654  0.096597473 
    6200   -953.36507    36.296735   -917.06834    1300.0174    7657.4936    2.2126503  0.092580571      0.10205 
    6300   -956.84956    43.120303   -913.72926    1544.4129    5962.2334    2.2173359  0.022800766   0.10714428 
    6400   -956.77198    40.014887    -916.7571    1433.1881   -2122.8252    2.1961254   0.14057537  0.097552686 
    6500   -958.95243    37.304739   -921.64769    1336.1205   -9761.0597    2.1836867  0.068934018   0.09253648 
    6600   -954.85649    36.451459   -918.40503    1305.5591   -3632.1708    2.1966101  0.022727996   0.10486765 
    6700   -955.77018     41.02745   -914.74273    1469.4545     7796.217     2.220552   0.20005492   0.10371067 
    6800   -955.75914    40.816045    -914.9431    1461.8827    5125.7197    2.2134628  0.038606175   0.10537546 
    6900   -953.40158     35.92451   -917.47707    1286.6857    -3968.018    2.1879095  0.021405134   0.10466759 
    7000   -959.28265    34.974788   -924.30786    1252.6701   -7120.4254     2.193361    0.1197369   0.08822536 
    7100    -953.4303    36.717457   -916.71284    1315.0861   -307.18843     2.195411  0.080530497  0.099168641 
    7200   -955.05351    40.111535   -914.94198    1436.6497      6845.74    2.2133775  0.058118605   0.10200675 
    7300   -954.96427    39.613357   -915.35091    1418.8068     5104.942     2.212552    0.1709263  0.092205152 
    7400   -958.07001    36.281344   -921.78866    1299.4662   -6119.9309    2.1921301  0.038414436  0.096157477 
    7500   -956.72437    36.373602   -920.35077    1302.7705   -9823.7811     2.178955   0.23371317   0.10145938 
    7600   -955.12193    39.386224   -915.73571    1410.6717    1911.4283     2.201326   0.15198374  0.095783615 
    7700   -954.64373    40.818309   -913.82542    1461.9638    8099.1355    2.2181613  0.045982636  0.099183193 
    7800   -957.75503    38.713826   -919.04121    1386.5889    2459.1385    2.2111687  0.082221951  0.088894897 
    7900   -958.58083    38.120442   -920.46039     1365.336   -6041.5902     2.193348   0.04929927  0.092548396 
    8000   -956.10331    41.042231   -915.06108    1469.9839   -5830.1209    2.1871438   0.19387895   0.10888347 
    8100   -952.99229    37.949304   -915.04299    1359.2064    1335.7821    2.1995564  0.098375437   0.10309333 
    8200   -959.80822    37.966318    -921.8419    1359.8158    229.94664    2.2121949   0.26823991  0.093343084 
    8300    -956.6056    39.222021   -917.38358    1404.7906   -1737.3403    2.2016119   0.11134154  0.088427399 
    8400   -953.53754    38.980622   -914.55692    1396.1445     155.1296    2.1979031   0.03502195   0.10306696 
    8500   -953.90948     37.94718    -915.9623    1359.1304   -1394.8735    2.1958476   0.11557185   0.11483162 
    8600   -957.09411    34.602291   -922.49181    1239.3286   -1583.9992    2.2019644   0.20243057  0.097195381 
    8700   -957.73485    39.315028   -918.41982    1408.1217   -1562.3231    2.2030548   0.23549171  0.099707185 
    8800   -955.80529    40.825306   -914.97999    1462.2144    3474.2857    2.2096793   0.02879939  0.090580567 
    8900   -957.30381    42.123775   -915.18004    1508.7209    515.91772    2.2058765   0.23036846  0.099086125 
    9000   -957.77843    37.875531    -919.9029    1356.5642   -6133.4393     2.191957   0.13126588  0.099872155 
    9100   -958.30907    37.166726   -921.14234    1331.1774    -6320.793     2.190161    0.1327625  0.083601197 
    9200    -955.7884    40.115886   -915.67251    1436.8056    2741.2644    2.2079595  0.067117968  0.097077734 
    9300   -955.88597     41.65959   -914.22638    1492.0954    10371.664     2.223722   0.12337868  0.090399042 
    9400   -955.15673    36.181985   -918.97475    1295.9075    2024.0136    2.2087598  0.010622642   0.10079535 
    9500   -958.56136    36.711378   -921.84998    1314.8684   -12749.101    2.1756318   0.21381402  0.099035442 
    9600   -952.39696    36.556773   -915.84019     1309.331    -9480.786     2.171621  0.081058759   0.10877108 
    9700   -953.00031    38.314028   -914.68629    1372.2695     7270.541     2.211966   0.10076572   0.10419151 
    9800   -957.14953    39.788295   -917.36123    1425.0724     11350.68    2.2286156  0.028352593  0.090822023 
    9900   -959.04645    34.610263   -924.43619    1239.6141    1471.8998    2.2147388  0.011751036   0.10154908 
   10000   -955.40052    39.233507   -916.16702     1405.202    -9989.791    2.1747003  0.067410155  0.097593551 
   10100   -953.61583    38.299636   -915.31619    1371.7541   -4337.2894    2.1881177   0.38416916   0.10688656 
   10200   -952.32146    37.465523   -914.85593    1341.8791    5501.5785     2.206644   0.12743212  0.093352792 
   10300   -958.19577    35.574967    -922.6208    1274.1663    3778.4879    2.2159656 0.0075066041  0.088802845 
   10400   -954.20007    35.072095   -919.12798    1256.1552   -337.14021    2.1958584  0.034439793  0.096386707 
   10500   -955.69302     40.21062    -915.4824    1440.1986   -4391.8518    2.1923189  0.030210906   0.11057338 
   10600   -954.61115    40.308429   -914.30272    1443.7017    562.21462    2.1970416  0.049057621  0.095966034 
   10700    -958.0654    36.192002    -921.8734    1296.2663    2790.7108    2.2149457  0.031431558   0.10072303 
   10800   -955.27443    37.171515   -918.10292    1331.3489   -435.66093    2.1988237   0.15427286  0.097618052 
   10900   -954.64462    39.988508   -914.65611    1432.2434   -2679.4201    2.1919379   0.11270464  0.099902722 
   11000   -954.02456    38.469835   -915.55472      1377.85   -1777.2573    2.1931217  0.019947493    0.1056721 
   11100   -956.53191     33.45676   -923.07515    1198.2998    3168.1028    2.2136798   0.26602168  0.097038552 
   11200   -953.88803    37.710901   -916.17713    1350.6677    634.42389    2.1992427  0.020254854   0.10262018 
   11300   -954.31903    39.566346   -914.75269     1417.123   -967.02805    2.1932668  0.053307051  0.094365757 
   11400   -952.92777     35.92995   -916.99782    1286.8805   -923.55806    2.1902925  0.012625528   0.10324718 
   11500   -960.87983    37.414553   -923.46528    1340.0536   -814.80549    2.2071115  0.059072675  0.089930484 
   11600   -954.44559    39.009721   -915.43587    1397.1867   -146.74756    2.1948323   0.06909545   0.10548461 
   11700   -954.70521    39.783857   -914.92136    1424.9135    307.69793     2.198863   0.16286688   0.10668025 
   11800   -955.16026    38.685559    -916.4747    1385.5764    1134.4609    2.1993584  0.075650303   0.10230688 
   11900   -957.37161    33.624996   -923.74662    1204.3254    531.12977    2.2074658    0.1057775   0.09830239 
   12000    -957.8557    41.237703     -916.618     1476.985   -5897.5837    2.1861486  0.070783598  0.090352272 
   12100    -954.8474    39.775688   -915.07172    1424.6209   -307.63345    2.1943691   0.40903268   0.10365942 
   12200   -954.96518    40.146269   -914.81891    1437.8938    4769.1213    2.2065353   0.16064414  0.091342433 
   12300   -956.51632    34.293114   -922.22321     1228.255    5267.0534    2.2134369  0.028650087  0.094656666 
   12400   -957.15359    38.207972   -918.94562     1368.471   -7703.4303    2.1854212 0.0025078915   0.09450397 
   12500   -953.62878    38.295028   -915.33375     1371.589   -4792.8039    2.1822638  0.077413905  0.097520586 
   12600   -955.42323    40.895454   -914.52778    1464.7269    3149.8365    2.2037679   0.26669055  0.094466161 
   12700   -956.53553    34.845627   -921.68991     1248.044    11878.871    2.2301191  0.024399857  0.095660031 
   12800   -953.83418    35.722435   -918.11174    1279.4481    1351.4014    2.2014902   0.19204002   0.10011037 
   12900   -954.06916    39.066909   -915.00225     1399.235   -7856.6788    2.1736483  0.057369948  0.098308626 
   13000   -953.43609    37.723892    -915.7122     1351.133   -7224.5072    2.1787468  0.054483841    0.1176741 
   13100   -958.17972    35.803046   -922.37667    1282.3353    5677.5848    2.2206653  0.031519468  0.092592081 
   13200   -955.85549    38.873044   -916.98245    1392.2915    10824.587    2.2271847   0.01198037   0.10307712 
   13300   -952.87251    38.267137   -914.60537    1370.5901    5236.4402    2.2031447   0.12214622   0.10323147 
   13400   -954.65039    38.382696   -916.26769     1374.729   -12547.529    2.1687266  0.044914509  0.096697406 
   13500   -955.78407    36.453892   -919.33018    1305.6462   -10588.189    2.1749559  0.026542038  0.097219497 
   13600   -958.53199    34.912257   -923.61973    1250.4304    7292.9678    2.2263895   0.29624898  0.086598197 
   13700   -955.32209    39.526405   -915.79568    1415.6925    9874.1404    2.2229807  0.048767311  0.093330698 
   13800   -954.79899    39.574683   -915.22431    1417.4216   -1026.8648     2.192508   0.13002811  0.090480264 
   13900   -954.65205     39.43537   -915.21668    1412.4319   -5607.2606     2.180566  0.077176758   0.09989124 
   14000    -961.7839    38.452545   -923.33135    1377.2307   -4924.1871    2.2008402   0.17804969  0.083699956 
   14100    -958.5808    40.548697   -918.03211    1452.3073   -25.283876    2.2021163  0.094601828  0.092308659 
   14200   -955.85019    41.130043   -914.72015     1473.129    2994.2228    2.2030911  0.083593404  0.093802709 
   14300    -954.2553    38.885344   -915.36996     1392.732    1571.5103    2.1985294   0.11529591   0.10239566 
   14400   -960.78148    37.639378    -923.1421     1348.106   -4330.4692    2.2000635  0.020332392  0.086280112 
   14500   -954.01752    37.256241   -916.76128    1334.3834   -4842.9487    2.1839076  0.046330268   0.08571219 
   14600   -951.86676     37.27111   -914.59565     1334.916    2573.7696    2.1974874  0.015551342  0.098977454 
   14700   -953.26245    37.113563   -916.14889    1329.2732    8670.8119    2.2171566  0.085611778  0.087084254 
   14800   -958.68101    35.338577   -923.34244    1265.6997    6035.0838     2.222333  0.012186028   0.09398276 
   14900   -954.29858    38.901101   -915.39748    1393.2964   -9505.4363    2.1744746   0.14625257  0.096795877 
   15000   -953.11396    38.139003   -914.97496    1366.0008   -7909.9619    2.1740111    0.0904508   0.09209359 
   15100   -954.12296    38.491241   -915.63172    1378.6167    3290.8021    2.2065698  0.029741491   0.10889923 
   15200   -961.73139    38.919167   -922.81222    1393.9434     11666.44    2.2406017  0.071070733   0.09422275 
   15300   -953.22273    35.915225    -917.3075    1286.3531    4325.5422    2.2059374  0.068017673   0.10053886 
   15400   -954.29635    39.000557   -915.29579    1396.8585   -7213.3384    2.1783488   0.17287038  0.097581625 
   15500   -952.81138    37.424445   -915.38694    1340.4079   -4227.3196    2.1843883    0.1405121   0.10856054 
   15600   -960.14915    39.651304   -920.49785    1420.1659    870.91893    2.2115177 0.0017085882  0.098837952 
   15700   -958.03394    37.388841    -920.6451    1339.1327    4262.9593    2.2169297   0.15158785  0.093319238 
   15800   -955.08301    39.760336   -915.32268     1424.071   -662.27217     2.199463    0.1612575  0.094321695 
   15900   -953.35167    38.229882   -915.12179    1369.2557   -2276.4502    2.1897942  0.038600889  0.099003067 
   16000   -958.46667    39.350508   -919.11616    1409.3925   -4171.7962     2.196127  0.072103624  0.097815622 
   16100   -957.45561    36.065914    -921.3897    1291.7502    1341.0903    2.2088324  0.062278752  0.099875363 
   16200   -956.11192    40.882594   -915.22933    1464.2663    2026.6773    2.2057177  0.080407663  0.099615751 
   16300   -954.71667    40.002424   -914.71425    1432.7417    435.83358    2.1984052   0.21216072  0.097182367 
   16400   -958.25256    38.755135   -919.49742    1388.0684   -6610.7405    2.1918225  0.075089959   0.10281546 
   16500   -958.80473    38.061988   -920.74274    1363.2424   -3224.1843    2.1966455   0.13134495  0.097327772 
   16600   -955.84061    40.816698   -915.02391    1461.9061    1214.5558     2.204009  0.079216262   0.10594289 
   16700    -953.6204    38.777878   -914.84252     1388.883    5000.6064    2.2077212   0.02544271   0.11437368 
   16800   -958.13745    38.377421   -919.76003    1374.5401   -835.93379     2.201325   0.14820088  0.097013273 
   16900   -956.53746    35.442225   -921.09523     1269.412   -6322.3939    2.1843074  0.071537077  0.093066934 
   17000   -951.13769     35.47979    -915.6579    1270.7574   -3461.5409    2.1832589    0.1391495   0.10961865 
   17100   -956.86119    42.133129   -914.72806    1509.0559    6247.3837    2.2116559  0.062801367  0.084843932 
   17200   -955.00319    36.551018   -918.45217    1309.1249     12456.52     2.228876   0.14501613  0.097923014 
   17300   -956.33762    33.938232   -922.39939    1215.5444    1447.9497    2.2059718   0.14178116  0.095775011 
   17400   -953.04153      37.4326   -915.60893       1340.7   -10506.052    2.1646649   0.16569037   0.10081474 
   17500   -954.68469    39.662096   -915.02259    1420.5524   -7872.5034     2.178226 0.0051220397   0.10739814 
   17600   -954.34993    38.368835   -915.98109    1374.2325    7684.2897    2.2175419   0.10880158   0.10173241 
   17700   -956.70877     33.19337    -923.5154    1188.8661    12385.072    2.2370078  0.073655266  0.096894021 
   17800   -954.13851    37.712129   -916.42639    1350.7117   -3582.1899    2.1897366  0.073281176   0.10756788 
   17900   -953.83912    38.792225   -915.04689    1389.3968   -7666.8514    2.1752687  0.019852792    0.1008028 
   18000   -955.00282    40.322438   -914.68038    1444.2035   -2877.1243    2.1884135   0.36101678   0.10202356 
   18100   -961.77684    38.656397   -923.12045     1384.532    3095.5459    2.2196702   0.13330344  0.079267451 
   18200   -955.36259    37.807559   -917.55504    1354.1296    2420.5085    2.2046424   0.16009584  0.087592615 
   18300   -953.27753    38.510972   -914.76656    1379.3233   -1460.1298    2.1907202  0.056118522   0.10188774 
   18400   -955.03111    39.527593   -915.50352     1415.735   -4649.5923    2.1871075   0.11842006  0.088584178 
   18500   -960.02172    37.210571   -922.81115    1332.7477    487.45442    2.2091497  0.092804908  0.086072479 
   18600   -954.34641    38.853166   -915.49324    1391.5795    2450.8193    2.2017152  0.095086411  0.092007041 
   18700   -954.69425    40.207203   -914.48704    1440.0762    2548.4506    2.2012956  0.080429121  0.090348378 
   18800    -957.5094    39.077347   -918.43205    1399.6088   -2840.5718    2.1984064  0.036723068  0.096253669 
   18900   -956.52168     34.13299   -922.38869    1222.5199   -3965.1312     2.196561   0.12329151   0.10540468 
   19000   -954.12941    39.308619   -914.82079    1407.8922   -3340.9949      2.18752  0.027214074   0.10130486 
   19100   -954.43665    39.396841   -915.03981     1411.052    5406.9456    2.2126461   0.13361912  0.099743318 
   19200   -956.49501    38.759408    -917.7356    1388.2214    8065.5079    2.2235985  0.042805107  0.098403193 
   19300   -958.51424    33.854467   -924.65977    1212.5442   -349.46811    2.2066929  0.014661174  0.099232264 
   19400   -956.62315    39.831965   -916.79118    1426.6365   -14819.839    2.1659094 0.0045446263   0.10583968 
   19500   -954.06675    38.342277   -915.72447    1373.2813   -2868.7272    2.1909923  0.097420633  0.092260954 
   19600   -955.51547    41.253947   -914.26152    1477.5668     10119.34    2.2229517   0.26140262  0.089989337 
   19700   -956.00536    38.214675   -917.79068    1368.7111    7863.0787    2.2208943  0.037068166   0.10669116 
   19800   -956.21285    34.384269   -921.82858    1231.5198   -1363.0941    2.2005028    0.1361549  0.096233104 
   19900   -956.67921    40.460162   -916.21905    1449.1363     -9595.35    2.1782735  0.035039867   0.10203273 
   20000   -953.26755    38.760979   -914.50658    1388.2777   -2556.1991    2.1881504   0.12875198  0.099050713 
   20100   -957.51232    39.840354   -917.67196     1426.937    1835.0521    2.2105173   0.12225558   0.10381406 
   20200   -958.13045    36.967125   -921.16333    1324.0284     7110.849     2.221638  0.050896527   0.10574613 
   20300   -955.10176    40.240328   -914.86143    1441.2626   -186.58277    2.1964715  0.069541171  0.096451352 
   20400   -955.24132    40.084711   -915.15661     1435.689    -7145.757    2.1814182   0.22169909  0.095886833 
   20500   -955.07702    34.065335   -921.01169    1220.0968   -2180.1838    2.1961274    0.1639347   0.10792031 
   20600   -958.13141    39.800905    -918.3305    1425.5241    1982.8659    2.2101504  0.089067658   0.10576124 
   20700   -952.45582    38.492672   -913.96314    1378.6679    7358.9918    2.2097215  0.068445135  0.098762792 
   20800    -953.8479     37.58639   -916.26151    1346.2082    184.41798    2.1969094  0.015622693  0.091979395 
   20900   -955.89629    34.131101   -921.76519    1222.4523   -7453.3159    2.1863095   0.19285357  0.094472961 
   21000    -953.6703    36.076814   -917.59348    1292.1406    -3817.158    2.1881382   0.16014183   0.10934648 
   21100   -952.51151    38.197414    -914.3141    1368.0928     14150.81    2.2302097   0.12190724   0.10911345 
   21200   -954.37657    40.074074   -914.30249     1435.308    16478.328    2.2371195  0.093910415   0.10055867 
   21300   -957.67839     38.77207   -918.90632    1388.6749   -11588.004    2.1753985   0.23671475    0.1056884 
   21400   -957.71717    34.490184   -923.22698    1235.3133   -18779.429    2.1573154   0.15367913   0.10078645 
   21500   -950.78655    35.106301   -915.68025    1257.3804   -1505.3332    2.1855552  0.039239125   0.10142363 
   21600   -954.60405    39.775533   -914.82852    1424.6153    10349.878    2.2200675  0.015845753   0.10425482 
   21700   -954.87071    39.530274   -915.34044     1415.831    8018.8501    2.2142862   0.16228289  0.098393519 
   21800   -952.69224     43.61507   -909.07717    1562.1336   -3850.0999    2.1815365   0.12564761   0.10041463 
   21900   -954.84818    44.218762   -910.62942    1583.7557    -8144.687    2.1707754   0.12949774   0.10144334 
   22000   -953.55271     37.95978   -915.59293    1359.5817   -3950.4551     2.185867   0.14868732  0.095301646 
   22100   -953.61739    38.018021   -915.59937    1361.6676     6874.748     2.209613  0.025929492   0.10421646 
   22200   -952.61185    42.293826   -910.31802    1514.8115    6551.2659    2.2098414  0.018787821   0.10757807 
   22300   -954.10734    43.416234   -910.69111    1555.0121   -4125.4606    2.1841083  0.068702973   0.10051871 
   22400   -955.65752    39.503848   -916.15367    1414.8846    -10220.26    2.1739825  0.095929737   0.10114937 
   22500   -957.42337    42.068333   -915.35504    1506.7351   -4535.7054    2.1882301  0.044342473  0.093569075 
   22600   -950.35999    41.401023   -908.95896    1482.8345    9103.5462    2.2057872  0.040500791   0.10288623 
   22700   -953.37735    40.522783   -912.85457    1451.3791    5387.7128    2.2078571   0.17013772   0.10692991 
   22800   -954.12161    37.714744   -916.40687    1350.8054   -5523.7929    2.1831924   0.20303901   0.10570628 
   22900   -952.92553     37.82942   -915.09611    1354.9126   -6344.4921     2.176734   0.21214936   0.10489314 
   23000   -951.58274    41.891368   -909.69137    1500.3969   -763.98466    2.1891615   0.11778426   0.10112699 
   23100   -951.80395    41.623558   -910.18039    1490.8049    4765.0171    2.1992629   0.16812542  0.095281836 
   23200   -956.52837    40.886438   -915.64193    1464.4039     1205.974    2.2009279  0.093271544  0.095139323 
   23300   -953.95803    38.542808   -915.41523    1380.4636    816.03588    2.1967805   0.10573889   0.10239496 
   23400   -953.44581    37.938789   -915.50702    1358.8298   -573.90446    2.1934277   0.24557813  0.097978468 
   23500   -960.79711    36.918214   -923.87889    1322.2765   -1832.1176    2.2086582   0.16073449   0.10092482 
   23600   -957.75596    38.229162    -919.5268      1369.23   -1472.5503    2.1989944  0.052849713  0.088959855 
   23700   -955.84036    40.093981   -915.74638     1436.021   -49.095281    2.1995217   0.14903382  0.086381022 
   23800   -951.45394    37.454127   -913.99981     1341.471    1862.2084    2.1992849    0.0278573   0.11876115 
   23900   -956.07823    37.272874   -918.80535    1334.9792   -1604.3568    2.1996994  0.011511452  0.099296978 
   24000   -954.46912    34.321772   -920.14735    1229.2814   -883.04514    2.2014862   0.14693733   0.11308556 
   24100   -955.58008    40.524627   -915.05546    1451.4452   -1809.0094     2.198566   0.12270173   0.10269855 
   24200   -956.47455    41.988134   -914.48641    1503.8627    374.58434    2.1989081   0.23362543   0.08407255 
   24300   -956.01382    33.926137   -922.08769    1215.1112    1700.9453    2.2085857   0.12840629  0.089578731 
   24400   -954.25868    37.675774   -916.58291    1349.4096   -1596.7335    2.1930867 0.0091153773  0.093953436 
   24500   -953.20082    38.930482   -914.27034    1394.3487   -939.86287     2.193201   0.03333895   0.10191194 
   24600   -956.41279    38.979142   -917.43365    1396.0915     1146.749    2.2039557  0.029342557  0.087986997 
   24700   -956.78567    34.900218   -921.88545    1249.9993    4109.3228     2.213879  0.064422187  0.094025956 
   24800   -952.79844    39.132706   -913.66573    1401.5916   -3066.3211    2.1874914  0.030470014   0.11151022 
   24900   -952.55937    37.443732   -915.11564    1341.0987   -3936.8346    2.1817656   0.16821168  0.094942052 
   25000   -956.76501    38.926378   -917.83863    1394.2017    549.14688    2.2019892  0.061731573   0.10325994 
   25100   -957.89237    34.238274    -923.6541    1226.2908     11681.34    2.2367477   0.13618837   0.10643692 
   25200   -955.57636    38.716221   -916.86014    1386.6746    3681.8494    2.2091329  0.020444804   0.09902438 
   25300   -953.78781    38.118663   -915.66915    1365.2723   -8040.5126    2.1767412   0.17681443   0.10149942 
   25400   -954.22615    38.583086   -915.64307    1381.9062   -9499.1611    2.1732369  0.061214534  0.094023121 
   25500   -951.89081    39.858494   -912.03232    1427.5867    3860.9421    2.1993397  0.082060103  0.097846033 
   25600   -949.46406    43.136912   -906.32714    1545.0078    11302.475    2.2114533   0.16323446  0.099868302 
   25700   -954.42288    39.160751   -915.26213    1402.5961    7424.9826    2.2149774  0.054804449   0.10662006 
   25800   -950.61259    35.113427   -915.49916    1257.6356   -4206.8762    2.1809603   0.16516482  0.094210606 
   25900   -955.78349    40.666299   -915.11719    1456.5194   -11269.575    2.1692947   0.11424482   0.10233624 
   26000   -953.24259    37.445273   -915.79731    1341.1539    1065.7922    2.1981788  0.072951043   0.10893153 
   26100   -959.02555    36.519313   -922.50624    1307.9894    12409.617    2.2368196  0.014158827  0.099954424 
   26200   -955.68907    38.656872    -917.0322    1384.5489    3759.1759    2.2085713   0.41882885   0.10839709 
   26300   -953.82534    38.888128   -914.93721    1392.8317   -5004.5837    2.1841557  0.013875217   0.10967463 
   26400   -954.52818    40.647404   -913.88077    1455.8426   -5047.9101    2.1823825   0.19927753   0.10157819 
   26500   -959.05729    36.698669   -922.35862    1314.4132    4274.1097    2.2156449  0.042039662  0.088879057 
   26600   -956.91905    39.997483   -916.92157    1432.5648    1658.8549    2.2045337    0.1048417   0.10653611 
   26700   -950.93714    36.730902   -914.20624    1315.5677    1249.1953     2.193991   0.14187181   0.10233005 
   26800   -954.12617    36.912465    -917.2137    1322.0706   -3017.1877    2.1902876  0.059631187  0.099058087 
   26900   -960.65588     39.26057   -921.39531    1406.1713   -2585.9196    2.2042639   0.10330244  0.090419872 
   27000   -953.51077    39.305693   -914.20508    1407.7874    2414.1274    2.2010797  0.095456665   0.10796863 
   27100   -954.90597    39.755257   -915.15071    1423.8891    356.68127    2.1996806  0.083583955   0.10794454 
   27200   -955.82572    35.046013    -920.7797    1255.2211   -1448.0758    2.1987172  0.067136364   0.10677398 
   27300    -952.5217    35.578235   -916.94346    1274.2834   -1349.5736    2.1920875   0.23902657   0.11696753 
   27400   -954.39937    40.447508   -913.95187     1448.683     4501.256    2.2050024   0.19931791   0.10653932 
   27500   -953.99505    38.368857    -915.6262    1374.2333    5468.3896    2.2119013    0.1398309   0.11183114 
   27600   -956.73615    36.942178   -919.79397    1323.1348   -1780.3173    2.1978506  0.009563936  0.096442615 
   27700   -958.77147    34.707781   -924.06369    1243.1069   -7620.6083    2.1893002   0.14516918  0.086801895 
   27800   -954.73818    38.361502   -916.37667    1373.9699   -4760.3615    2.1868723  0.055955781   0.10631233 
   27900   -954.64378    39.302989   -915.34079    1407.6905    4261.7212    2.2122389 0.0017716306   0.10962071 
   28000   -956.23903    41.667665   -914.57136    1492.3847    7004.8509    2.2170406  0.053638511  0.095184869 
   28100   -949.12427    42.184484   -906.93978    1510.8952   -741.43928    2.1846439  0.045673793    0.1041409 
   28200   -950.82938    39.399418   -911.42996    1411.1443   -6703.1566    2.1738156  0.079245995  0.097089269 
   28300   -954.29651    39.022388   -915.27412    1397.6404   -5003.0548    2.1849627  0.029021593  0.094340903 
   28400   -956.28699    40.731258   -915.55573    1458.8459     6269.751    2.2123921   0.19349478  0.098648326 
   28500   -954.19926    39.868879   -914.33038    1427.9587    11001.001    2.2221206   0.20965657   0.10156012 
   28600    -949.4925      42.2937    -907.1988     1514.807    -4428.652     2.172993   0.25347636   0.11055292 
   28700   -952.27828    38.012264   -914.26602    1361.4615    -10563.94    2.1675333 0.0045052223   0.10827138 
   28800   -954.26881    38.174829   -916.09398    1367.2839    -1493.976    2.1937514   0.17516115   0.10685061 
   28900   -955.60232    40.740225    -914.8621    1459.1671    5649.5901     2.216425 0.0087240791   0.10445995 
   29000   -950.58043    43.041296   -907.53913    1541.5831    828.27488    2.1920924  0.068410676   0.12015899 
   29100   -953.06646    37.990661    -915.0758    1360.6877   -303.07911    2.1943414  0.068005629   0.09482752 
   29200   -953.65704    37.623038     -916.034    1347.5208    -2602.716    2.1914462  0.058406878  0.095800722 
   29300   -955.87924    44.217684   -911.66155    1583.7171   -2384.8053    2.1912792  0.019765458  0.095974112 
   29400   -953.05738      43.8195   -909.23788    1569.4556   -1343.9888    2.1900224    0.1688928   0.10210313 
   29500   -954.20047     38.15446   -916.04601    1366.5544    2381.7333    2.2024849   0.27795469   0.10464604 
   29600   -955.48105    40.236404   -915.24464    1441.1221    105.04005    2.1988147  0.096233172  0.094507641 
   29700   -950.71133    38.734395   -911.97694    1387.3256   -433.40322    2.1912101  0.042678393   0.11497581 
   29800   -946.96715    40.657419   -906.30973    1456.2013   -1054.8046    2.1754752  0.044645717   0.10983406 
   29900   -955.48853    40.287943   -915.20059     1442.968    2397.2618    2.2023296   0.13037734   0.10962467 
   30000   -955.35685    40.252534   -915.10432    1441.6998    8639.5873    2.2189885   0.07080199   0.10851335 
   30100   -956.35211    40.511659   -915.84045    1450.9807    2411.7797    2.2075675  0.086150682  0.093407847 
   30200   -947.25385    40.807463   -906.44639    1461.5753    -10707.89    2.1597447  0.041449075    0.1106326 
   30300   -951.08158    38.686547   -912.39503    1385.6118    -7315.416    2.1751837  0.063144871   0.11071364 
   30400   -952.42974    37.282818   -915.14692    1335.3353    8579.7423    2.2175887    0.1157498   0.10202161 
   30500   -955.54148    39.984102   -915.55738    1432.0855    11665.164    2.2303005  0.088026738  0.089179812 
   30600   -949.27867     41.26362   -908.01505    1477.9132    203.67773    2.1894133   0.07907582  0.099765556 
   30700   -950.68302    38.409707   -912.27331    1375.6964   -8410.0854    2.1725157   0.10132936    0.1023234 
   30800    -953.7971    37.616688   -916.18042    1347.2934   -4441.3313    2.1841517  0.088480042    0.1101963 
   30900   -954.38907    39.393522   -914.99554    1410.9331    2927.6896    2.2073214    0.1066648   0.11230002 
   31000   -951.43183    44.419442   -907.01239    1590.9433    5008.2263    2.2011328   0.19911518   0.10031484 
   31100   -954.04183    39.130526    -914.9113    1401.5135    2072.5105    2.2040108  0.087210785   0.10655361 
   31200   -952.17568    35.936057   -916.23963    1287.0993   -889.63523    2.1914179   0.26228074   0.10579155 
   31300   -950.35223    37.637394   -912.71484     1348.035   -2264.3996    2.1874966  0.088828161    0.1132073 
   31400   -946.17053     38.18022   -907.99031     1367.477    902.08942    2.1855976   0.14963529    0.1169371 
   31500    -954.0792    37.861741   -916.21746    1356.0703    4123.7608    2.2101757   0.16483418   0.10662546 
   31600    -956.1421    40.730428   -915.41167    1458.8162    1748.4657    2.2060226  0.064044076   0.09857776 
   31700   -956.33826    43.983023   -912.35523    1575.3124   -3738.6968    2.1919292  0.033567339  0.094706459 
   31800   -947.59426    41.483855    -906.1104    1485.8012   -4021.8161    2.1717297   0.10287671   0.11516959 
   31900   -955.60035    40.064955   -915.53539    1434.9814    1234.5594    2.2035827  0.010078884   0.10892642 
   32000   -953.77206    38.399816   -915.37224    1375.3421    4804.8613     2.212144 0.0049070106   0.12121632 
   32100   -954.27213    38.733521    -915.5386    1387.2943     1034.025    2.2003917   0.11696721   0.10113967 
   32200     -951.474    44.040096   -907.43391    1577.3565   -7024.5366    2.1727209   0.11402944   0.11662188 
   32300   -954.69972    43.152003   -911.54771    1545.5483    -3730.843    2.1896186   0.14450189   0.11244591 
   32400   -955.47958    40.317615   -915.16196    1444.0308    4721.0759    2.2069894   0.11934868  0.097139373 
   32500   -952.33316    36.499476   -915.83369    1307.2788    7278.5314    2.2113848  0.068350001   0.10170525 
   32600   -949.06059    40.107344   -908.95324    1436.4996   -2748.9916    2.1794006   0.19678324  0.088697854 
   32700   -951.27104    39.683998   -911.58704    1421.3369   -8717.9689    2.1686451   0.13395689   0.10256882 
   32800   -953.03712    37.014952   -916.02217    1325.7413   -1741.7002    2.1884925  0.059105927  0.099291054 
   32900   -955.82295     40.84737   -914.97558    1463.0046     7704.556    2.2180258   0.12007326   0.10025207 
   33000   -950.33159    43.168702   -907.16289    1546.1463    9177.7508    2.2099766  0.082775619   0.11436908 
   33100   -951.26964    37.634518   -913.63513     1347.932   -1360.0095    2.1910177   0.28863824   0.11582438 
   33200   -951.40794    34.931388   -916.47656    1251.1157   -9534.2355    2.1721965   0.24126356   0.11767699 
   33300   -953.20518    39.648822   -913.55636     1420.077   -4993.1242    2.1846714   0.20528786   0.11594929 
   33400   -949.95216     43.26329   -906.68887    1549.5342    7130.2622    2.2049798   0.28664795   0.11153525 
   33500   -958.92561     43.34107   -915.58454    1552.3199    7299.0042    2.2240424    0.2903481  0.097671977 
   33600   -953.89584    38.024067   -915.87177    1361.8842   -3300.2376    2.1930925  0.033079259   0.11600603 
   33700   -953.36028    39.380549   -913.97974    1410.4684    -7830.409    2.1764182   0.15822308    0.1002973 
   33800    -953.0521    42.954752   -910.09735    1538.4835   -2813.4494    2.1869684  0.038254059   0.10113773 
   33900   -949.81218    43.416772    -906.3954    1555.0313    2473.0259    2.1931228  0.050912287   0.11315921 
   34000   -953.39967     40.67521   -912.72446    1456.8385    2319.6857    2.1993973   0.18689374   0.08601603 
   34100   -955.42755    40.193463   -915.23409    1439.5841   -1700.4038    2.1945342  0.081113753   0.11102684 
   34200   -953.56562    36.816664   -916.74895    1318.6394   -645.74042    2.1933112   0.10299944   0.10612452 
   34300   -954.35453    38.061174   -916.29336    1363.2132    670.48903      2.19854   0.51205167   0.10695618 
   34400   -950.00375    40.587022   -909.41673    1453.6799   -1231.2634    2.1871315   0.29255697   0.11623609 
   34500    -955.2206    41.307989   -913.91261    1479.5024     -3033.31     2.189894   0.11461337  0.098663787 
   34600   -955.90116    39.279212   -916.62195    1406.8389   -831.96428    2.1973277  0.080374113   0.10723689 
   34700     -952.851    37.598857   -915.25214    1346.6547    3804.5395    2.2041929  0.040062222   0.11157959 
   34800    -950.4662    41.604585   -908.86161    1490.1254    1548.8869    2.1906755   0.20464159   0.10025595 
   34900   -954.92063    39.330778   -915.58985    1408.6858   -5906.3032    2.1839148   0.22284911  0.096612454 
   35000   -954.18972    37.740763   -916.44896    1351.7373   -3499.6722    2.1885849   0.12402312   0.10330367 
   35100   -952.90987    42.619617   -910.29026    1526.4801    4946.7128    2.2046156  0.062454543   0.10378874 
   35200    -951.6265    39.339225   -912.28728    1408.9884    7317.8164    2.2124489  0.096826493   0.11815644 
   35300   -954.70295    37.923894   -916.77905    1358.2963   -3212.4198     2.192638   0.13013955   0.11447556 
   35400   -953.37125    38.661127   -914.71012    1384.7014   -7377.2258    2.1757578   0.12107905   0.10588802 
   35500   -951.82967    42.806081   -909.02359    1533.1586    -3075.955     2.182984  0.038762963   0.11667289 
   35600   -953.48604    36.806635   -916.67941    1318.2802    9300.1249    2.2228677   0.16555043   0.12095391 
   35700   -953.82678    37.190094   -916.63669    1332.0143    2855.7326    2.2092157  0.038839864   0.11195253 
   35800   -955.12778    40.471763   -914.65602    1449.5518   -7014.3484    2.1848535   0.13143262   0.11210601 
   35900   -950.24015    38.688054    -911.5521    1385.6658   -6398.0285    2.1771487  0.051665375   0.11038515 
   36000   -960.35776    39.937489   -920.42028     1430.416    2022.8345    2.2154451   0.05647436     0.100232 
   36100   -954.45373    36.957804   -917.49593    1323.6945    7531.1917    2.2171715   0.15784763   0.10735565 
   36200   -954.09422    39.696667   -914.39755    1421.7907   -1054.3235    2.1990893   0.11852698   0.10146478 
   36300   -953.02817     38.26929   -914.75888    1370.6672   -7870.4029    2.1780733   0.22741191   0.10121096 
   36400   -957.49754    35.527016   -921.97052    1272.4489   -3697.3606    2.1966574   0.17413872   0.10199045 
   36500   -954.10048    38.586434   -915.51405    1382.0261    7380.7943    2.2159681  0.061821596   0.11095245 
   36600   -953.99691    40.666687   -913.33023    1456.5332    12868.147     2.227652   0.16065907  0.093715652 
   36700   -958.64875     39.15193   -919.49682    1402.2802   -3733.4112    2.1985301   0.22593186  0.094211328 
   36800   -951.02193    32.824767   -918.19716    1175.6641   -13540.237    2.1604138  0.077120733   0.10740419 
   36900   -954.93571    41.029564   -913.90615    1469.5302   -8628.1269    2.1786151  0.042667705   0.10743544 
   37000   -954.38458    39.290219   -915.09437    1407.2332    8652.8308     2.219479   0.16060935   0.10875349 
   37100   -957.59775    38.749262   -918.84849     1387.858    10014.235    2.2274822  0.032960978  0.090138804 
   37200   -949.79837    39.085467   -910.71291    1399.8997   -444.01277    2.1867849   0.13256269   0.11281691 
   37300   -951.32713    38.348057   -912.97907    1373.4883   -3838.4804    2.1822671   0.11731732   0.10732746 
   37400   -955.09013     38.53776   -916.55237    1380.2828   -1394.3835     2.195438   0.19904537  0.095256151 
   37500   -954.41169    38.103097    -916.3086    1364.7148    3470.3107    2.2085124   0.32318515   0.10536737 
   37600   -948.32162    39.720425    -908.6012    1422.6416    3808.6959    2.1914012   0.24606431   0.10820545 
   37700    -955.8967    40.379557   -915.51715    1446.2493   -810.84836    2.1959663  0.065313826  0.094809762 
   37800   -955.61779    39.124744   -916.49305    1401.3064   -1693.3621    2.1950544   0.13346981   0.10298617 
   37900   -954.68667    45.392123   -909.29455    1625.7812   -1837.4558    2.1919493  0.072395161   0.10574832 
   38000   -954.69089    40.186091    -914.5048    1439.3201    4620.0379    2.2088295     0.142469   0.10364691 
   38100   -952.75524     35.97253   -916.78271    1288.4056   -79.441157    2.1975777  0.088125032   0.10381588 
   38200   -952.49031    39.514206    -912.9761    1415.2556    -5659.337    2.1795493  0.071599181    0.1105974 
   38300   -951.84576     42.16044   -909.68532    1510.0341   -3848.4825    2.1821192   0.14634629   0.11359985 
   38400   -955.45707    37.686661   -917.77041    1349.7995    9536.7335    2.2260786  0.093075193    0.1107146 
   38500    -953.5777    39.152899    -914.4248    1402.3149    10777.816    2.2222807   0.36604751  0.094848735 
   38600   -954.72373    41.492714   -913.23101    1486.1186   -6260.7391    2.1799442   0.15986362   0.10643183 
   38700   -958.55227    37.733228   -920.81904    1351.4674   -13450.993    2.1727231  0.091696146  0.093619288 
   38800   -954.26956    36.686004   -917.58356    1313.9596    -4531.783    2.1892208   0.13503342   0.10054959 
   38900   -953.37489    40.190665   -913.18422    1439.4839    7420.5981    2.2141523   0.24569674   0.10563072 
   39000   -960.29834    42.798744   -917.49959    1532.8958    4735.6642    2.2200454 0.0056561885   0.10214375 
   39100    -955.8116    35.151661   -920.65994     1259.005   -199.30162    2.2024011  0.084946826   0.10872614 
   39200   -951.97399    38.051994     -913.922    1362.8844   -6347.6856    2.1757811 0.0023075242   0.10480111 
   39300   -955.46042    39.952735   -915.50769    1430.9621   -4773.2244    2.1905028   0.22927015   0.11197404 
   39400    -956.6702    36.057226   -920.61297    1291.4391    7038.4071    2.2196267  0.096361269  0.099773722 
   39500   -951.71649    38.976155   -912.74033    1395.9845    3371.2235    2.2015279  0.055271355   0.11367714 
   39600    -952.3942     38.30504   -914.08916    1371.9476    1078.3763    2.1945258  0.022891905   0.09770571 
   39700   -956.34353     38.65778   -917.68574    1384.5815   -3101.0281    2.1947103  0.067419444   0.10019509 
   39800   -955.70432    37.534094   -918.17023    1344.3351   -1545.8323    2.1986732 0.00092879262   0.10242021 
   39900   -952.61765    41.775005   -910.84264    1496.2292    -107.3388     2.190121   0.10935386  0.094425854 
   40000   -955.62765     40.69013   -914.93752    1457.3729   -1728.9865    2.1964923 0.0028771472     0.105602 
   40100   -957.73428    40.418237   -917.31604    1447.6347    -302.1638    2.2020712  0.012221104  0.090690253 
   40200   -950.63727    39.952522   -910.68475    1430.9544    3162.5177     2.199287  0.032298652   0.11482123 
   40300   -953.95571    42.149067   -911.80664    1509.6267    1911.0117    2.2003345   0.12325835    0.1107362 
   40400   -954.23088    37.580046   -916.65083     1345.981   -3280.0702    2.1902272   0.18757089  0.099960211 
   40500   -953.37966    38.426794   -914.95287    1376.3084    -5116.295    2.1847447   0.23856389   0.10970044 
   40600    -949.6855    41.406746   -908.27876    1483.0395    163.20701    2.1864438   0.23053309   0.10441644 
   40700   -956.98136    40.478593   -916.50276    1449.7964    6263.9981    2.2192778  0.042403306   0.10063722 
   40800    -956.7321    41.019205    -915.7129    1469.1592    4936.4445    2.2105155  0.010418701  0.099954297 
   40900   -950.22006    39.333961    -910.8861    1408.7998   -4251.0697    2.1771926  0.090580313   0.11526403 
   41000   -953.42602    38.390996   -915.03502    1375.0263   -10465.283    2.1704245   0.21268035   0.10034669 
   41100   -958.24594    40.696956   -917.54898    1457.6174   -4237.0724    2.1935147  0.026122563  0.091786978 
   41200   -951.02934    37.312255   -913.71709    1336.3897    11507.001    2.2184843  0.048940381    0.1074486 
   41300   -955.96445    40.804789   -915.15966    1461.4796    5420.3706    2.2159236   0.14453784   0.10413656 
   41400   -956.74247    35.402692   -921.33977     1267.996   -467.33462     2.200496   0.15253401   0.10642385 
   41500   -952.34842     36.69338   -915.65504    1314.2238   -5709.1841    2.1772483   0.10678352   0.11019631 
   41600   -952.40657    38.353756   -914.05281    1373.6925    -1721.654    2.1876693   0.17073038  0.099484053 
   41700   -960.31872    39.755872   -920.56285    1423.9112    3743.0214    2.2162835   0.13393763  0.092409645 
   41800   -955.21087    37.105643   -918.10522    1328.9896    5365.6014    2.2120675  0.069307741    0.1111855 
   41900   -954.06393     39.90351   -914.16042     1429.199   -886.82678    2.1904075   0.06403391   0.10107771 
   42000   -955.81461    39.229612     -916.585    1405.0624   -6322.7949    2.1821916   0.15085669    0.1099956 
   42100   -957.38573     35.03741   -922.34832     1254.913   -610.93855    2.2005325   0.16711602   0.11325961 
   42200   -954.26015    39.841585   -914.41856    1426.9811    2228.2054    2.1993626   0.11460704   0.09087702 
   42300   -956.88967    42.308767    -914.5809    1515.3466     3368.198    2.2067146  0.080599635   0.10108362 
   42400   -954.69438    37.424138   -917.27024    1340.3969    599.47828    2.1994684  0.022614746   0.10834082 
   42500   -957.19225    38.168094   -919.02416    1367.0427   -4195.8019    2.1930125    0.1631847  0.099860262 
   42600   -954.41325    44.126039   -910.28721    1580.4347   -7297.5259    2.1748865  0.099158683   0.11419762 
   42700   -953.12968    39.252127   -913.87755    1405.8688    1156.9516    2.1954928  0.086696979   0.10711159 
   42800   -958.05916    41.573012   -916.48614    1488.9945    1141.5441    2.2047102   0.18021837  0.093987587 
   42900   -953.99979     39.11643   -914.88336    1401.0087     2680.738    2.1998165  0.075366713   0.10475225 
   43000   -949.58052    40.256961   -909.32356    1441.8583   -3481.0901    2.1752013  0.065683109   0.11088402 
   43100   -954.12362    37.994432   -916.12919    1360.8228   -2334.5081    2.1875996   0.13391295   0.10595544 
   43200   -952.45499    36.704555   -915.75043    1314.6241    3574.3528      2.20251   0.12598787   0.10896194 
   43300   -950.18197     41.38302   -908.79895    1482.1897    4124.6848    2.1986037   0.31586853    0.1199742 
   43400   -953.51344    39.226879   -914.28657    1404.9645    2762.7584    2.2016813   0.06993337   0.11119041 
   43500   -955.19467    38.498122   -916.69655    1378.8631   -7005.8087    2.1835741   0.13995771   0.10592247 
   43600   -954.74569    40.957342   -913.78835    1466.9435    -5942.954    2.1819684  0.070840285    0.1046356 
   43700   -952.12199    44.128556   -907.99344    1580.5248    2893.4718    2.1964325   0.15903542   0.11657055 
   43800    -955.5514    39.057102    -916.4943    1398.8837    11220.692    2.2293149   0.03056101   0.10333562 
   43900   -951.02266    34.965237   -916.05742     1252.328     493.4278    2.1938264  0.099738411   0.11096601 
   44000   -951.35023    36.676259   -914.67397    1313.6106   -12470.612    2.1594382  0.032065742   0.11892305 
   44100   -950.24338    40.148762   -910.09462    1437.9831   -6004.4151    2.1746677   0.22332316   0.10859564 
   44200   -947.09291    40.899261   -906.19365    1464.8632    9445.3794    2.2061417   0.16311174    0.1271756 
   44300   -952.00911      38.3028   -913.70631    1371.8674     10331.35    2.2192752  0.078996794    0.1011375 
   44400   -955.26339    40.016133   -915.24725    1433.2327   -319.97318    2.1967528   0.17157849   0.10131075 
   44500     -952.748    36.459953   -916.28804    1305.8633   -4198.6939    2.1874154   0.19603027    0.1249778 
   44600   -957.51466    33.630816   -923.88385    1204.5339    -492.2321    2.2074142   0.17984012  0.099707837 
   44700   -958.20901    39.033934   -919.17507     1398.054   -245.06419    2.2070608  0.033188633  0.099185936 
   44800   -952.63658     37.18374   -915.45283    1331.7867    5520.9921    2.2096924   0.16188336   0.10943141 
   44900   -953.50371    38.980167   -914.52354    1396.1282     1658.078    2.2017292  0.065181197   0.11355085 
   45000   -955.06605    39.178517   -915.88753    1403.2324   -4292.5811     2.189119  0.080417137   0.10539941 
   45100   -960.41258     38.41138    -922.0012    1375.7563   -3090.3336     2.201973  0.013488663  0.095601306 
   45200   -958.62585    42.338127   -916.28772    1516.3982    2393.7972    2.2080272  0.006454644   0.09443337 
   45300   -952.35047    38.325765   -914.02471    1372.6899    4283.6961    2.2052369  0.021502007   0.11158296 
   45400    -954.7761    37.350971   -917.42513    1337.7763    -3092.216    2.1918375   0.06697795   0.10423911 
   45500   -956.51197    35.189097   -921.32287    1260.3459   -5852.5842    2.1893061   0.22625831  0.098146849 
   45600   -952.96625    37.926106   -915.04014    1358.3756    1951.6808    2.1989379   0.13016406   0.10243559 
   45700   -954.23752    40.242563   -913.99496    1441.3427    10076.677     2.219424  0.055379594   0.11056783 
   45800   -956.68141    36.195523   -920.48589    1296.3924    4648.4485    2.2152473   0.17512532   0.11472406 
   45900   -956.16197     38.42102   -917.74095    1376.1016   -10115.793    2.1763205 0.0088559287  0.098828728 
   46000   -952.49196    37.962119   -914.52984    1359.6654   -10161.441    2.1714065   0.16491373   0.11669598 
   46100   -955.14848    39.591452   -915.55703    1418.0222    3706.8894    2.2070826   0.11220189   0.11396036 
   46200   -956.49748    36.907292   -919.59019    1321.8854    10927.527    2.2324645  0.079575453   0.10486634 
   46300     -952.867    39.948644   -912.91836    1430.8155    4457.3395    2.2039136   0.13117323   0.10380964 
   46400   -956.30324    43.163554   -913.13968     1545.962   -7018.1495    2.1816093   0.14986096  0.098280664 
   46500   -954.16667    38.096292   -916.07038     1364.471   -6939.5205    2.1842188  0.067849425  0.097069095 
   46600   -952.99225    36.815295   -916.17696    1318.5904    2813.2723    2.2036024   0.35984019   0.10622021 
   46700   -951.54771     43.91389   -907.63382    1572.8363    3247.2792    2.1976489   0.11653374   0.10483413 
   46800   -951.60232    37.428395   -914.17392    1340.5494    5010.5831    2.2046041   0.11607513  0.098127532 
   46900   -953.43861     36.63657   -916.80204    1312.1891    -2017.745    2.1945053  0.085634986   0.11518798 
   47000   -952.16747    39.954047   -912.21343    1431.0091   -1710.6349    2.1877098  0.012492376   0.11894151 
   47100   -953.33514      42.9359   -910.39924    1537.8082   -3327.6705     2.189053   0.21589814   0.10877753 
   47200   -955.10936    38.495774   -916.61358     1378.779    1633.1343    2.2046944  0.019603023   0.11474531 
   47300   -957.01524    42.125403   -914.88984    1508.7792     657.7809    2.2039825  0.072506473     0.101998 
   47400    -950.6895     41.61237   -909.07713    1490.4042   -728.48411    2.1899644   0.12693204   0.11059667 
   47500   -954.54746     39.09263   -915.45483    1400.1562   -1330.0436    2.1937926   0.21981474   0.11079329 
   47600    -953.7791    37.227118   -916.55199    1333.3404   -2403.0734     2.193166  0.076134517   0.10615595 
   47700   -952.95685    38.675767   -914.28109    1385.2257    679.19752    2.1994922  0.063432131   0.10978687 
   47800   -951.21845    39.624258    -911.5942    1419.1972    5865.3546     2.203913  0.089878582   0.10336015 
   47900   -956.19598    37.500213   -918.69577    1343.1216    -657.0956    2.2015164  0.031829451    0.1093439 
   48000   -956.16434     37.56187   -918.60247      1345.33   -7803.1997    2.1839574   0.04483389   0.11863041 
   48100   -952.34021    36.325426   -916.01478     1301.045   -1819.5167    2.1922596 0.0099465539   0.11267108 
   48200   -951.14245    38.165828   -912.97662    1366.9615    7892.6492    2.2136014  0.052332089   0.11509002 
   48300   -956.28746     37.18998   -919.09748    1332.0102    8497.0019    2.2267426  0.047271908    0.1160316 
   48400   -957.84942    38.558492   -919.29092    1381.0253   -8572.8263    2.1855475    0.2535585   0.10963212 
   48500   -952.12458    37.203296   -914.92128    1332.4872   -16303.852    2.1529845  0.080468378   0.11194945 
   48600   -956.22767    42.545813   -913.68185    1523.8367   -3258.9005    2.1917667   0.15693781   0.10805923 
   48700   -960.28321    40.157939   -920.12527    1438.3118    16222.447    2.2478419   0.11388504   0.10604208 
   48800   -952.94862    37.415298   -915.53333    1340.0803    10139.862    2.2200965   0.21560702   0.10864125 
   48900      -953.14    39.077544   -914.06246    1399.6159   -5078.0933    2.1832099   0.12837433   0.11078073 
   49000   -954.78625    37.344861   -917.44139    1337.5575   -6760.4549    2.1819211  0.078679966     0.107794 
   49100   -956.57403    36.525938   -920.04809    1308.2266    677.65568    2.2053083  0.035797664    0.1182484 
   49200   -952.00457    40.256397   -911.74817    1441.8382    3910.8355    2.2016685   0.11750589   0.12688294 
   49300   -953.79275    39.100111   -914.69264    1400.4242    2835.2853    2.2038436  0.045259018   0.12886893 
   49400   -956.57796    38.706911   -917.87105    1386.3412   -2457.8463    2.1967024   0.12072507   0.11861209 
   49500   -954.46631     42.85841    -911.6079    1535.0328     -4337.68    2.1872258  0.057639729   0.10778215 
   49600    -952.1818    40.386019   -911.79578    1446.4807    2263.7412    2.1964141   0.12919871   0.11990872 
   49700   -954.42281    38.046066   -916.37675    1362.6721    3678.1569    2.2086123  0.076393939   0.11218678 
   49800   -953.63972    37.712007   -915.92771    1350.7073    700.26456    2.1991266   0.36951323   0.11453985 
   49900   -953.82562    45.103048   -908.72258    1615.4276   -9223.3301    2.1694783   0.18677591   0.10326166 
   50000   -956.93031    40.297787   -916.63252    1443.3206   -4226.5565    2.1911215   0.08921571   0.10178789 
   50100   -957.19475    41.398697   -915.79605    1482.7512    6373.5053    2.2165006  0.058688441   0.12193646 
   50200   -950.68204    40.687514   -909.99453    1457.2792    10658.406    2.2132008  0.052455032   0.10777898 
   50300   -952.48401    37.538055   -914.94595     1344.477   -2841.8606    2.1885513  0.092963523   0.12488558 
   50400   -954.34355    36.722373   -917.62118    1315.2622   -12382.865     2.164822  0.072627283   0.11253748 
   50500   -955.40173    41.981253   -913.42048    1503.6162   -5780.2428    2.1810436  0.033431978   0.10924793 
   50600   -951.65227    37.964807   -913.68746    1359.7617     12286.12    2.2185985   0.17310726   0.11129542 
   50700   -957.53144     37.79361   -919.73783    1353.6301    9879.1484    2.2267718   0.17289614   0.10241729 
   50800   -953.33204    38.635045   -914.69699    1383.7672   -1531.6171    2.1890542   0.21880556    0.1112202 
   50900   -957.12019    42.991179   -914.12901    1539.7881   -9048.2874    2.1757114   0.29076061  0.091441999 
   51000   -957.81891    36.311614    -921.5073    1300.5503   -1929.6119    2.2003085    0.1088622   0.10511905 
   51100   -955.62834     40.41343   -915.21491    1447.4625    3606.9214    2.2028701  0.037933468  0.090045581 
   51200   -954.47114    40.690201   -913.78094    1457.3754    3652.4233    2.2033812  0.048179358  0.098134771 
   51300   -955.93926     36.63988   -919.29938    1312.3076    131.36737    2.2001282  0.024442296   0.10124779 
   51400   -956.55675    40.001086   -916.55567    1432.6938   -4730.1456    2.1873108   0.22952406   0.10223957 
   51500    -954.2823    41.302764   -912.97953    1479.3152   -2922.7965    2.1867238  0.056783177   0.10313159 
   51600   -955.39399    38.533047   -916.86094     1380.114    749.61137    2.2009893  0.051445123   0.10711084 
   51700   -955.63386    37.153572   -918.48029    1330.7062    2668.2593    2.2063614   0.10252562   0.11133026 
   51800   -951.76249    41.301145   -910.46135    1479.2572   -2282.5883    2.1810605   0.13828655   0.10843915 
   51900   -953.87613    38.137299   -915.73883    1365.9397   -5056.5731    2.1806075  0.057470112   0.11216011 
   52000   -955.09832    37.924106   -917.17422    1358.3039    147.39717    2.1973855  0.080267862  0.097477806 
   52100   -949.97732    40.741863   -909.23545    1459.2258    9252.5628    2.2094621  0.023916144  0.097470325 
   52200   -954.09129    39.857441   -914.23384     1427.549    8578.8657    2.2188332  0.012393368   0.11124763 
   52300   -952.75189    35.391286    -917.3606    1267.5875   -4385.8668    2.1846925 0.0075260153  0.094172783 
   52400   -951.97353    39.842515   -912.13101    1427.0144   -11421.537    2.1629418  0.038445692   0.10629646 
   52500   -950.70922    38.413378   -912.29584    1375.8279    -1778.864    2.1859104   0.07004946   0.11663501 
   52600   -953.99824    36.510854   -917.48738    1307.6864    11285.822    2.2261346  0.092103386   0.10284671 
   52700   -952.11951    38.587101   -913.53241      1382.05    9523.5476    2.2166531   0.29956703   0.11116064 
   52800   -954.04913     40.40973    -913.6394      1447.33   -5050.4874    2.1830075   0.12763799   0.12342207 
   52900   -960.23229    39.676292   -920.55599    1421.0609   -10092.529    2.1881034   0.10324059   0.10848102 
   53000   -955.17583    40.461649   -914.71418    1449.1895   -2417.2253    2.1902007    0.1410898      0.11045 
   53100   -955.12316    42.139175   -912.98399    1509.2724    3006.8696    2.2039589     0.060454   0.10633504 
   53200   -958.95044    38.389967   -920.56047    1374.9894    5232.0645    2.2192134  0.018744239  0.099589989 
   53300   -954.03046    39.088867   -914.94159    1400.0215   -2074.5163    2.1927007  0.025009503   0.10762073 
   53400   -954.06136    40.301901   -913.75946    1443.4679   -3554.9523     2.182651  0.067325278     0.102149 
   53500   -955.86513    36.384819   -919.48031    1303.1723   -379.33772    2.1997017   0.12438947  0.091335825 
   53600   -956.13069    40.827083   -915.30361    1462.2781     3254.696    2.2056205   0.45165875   0.10137126 
   53700   -954.71382    42.061705   -912.65212    1506.4977    2916.6827    2.2029342   0.14002238    0.1036152 
   53800   -955.40369    37.386857   -918.01683    1339.0616   -2063.8269    2.1951945   0.41329727   0.11185076 
   53900   -954.10058    39.319685   -914.78089    1408.2885   -4625.8837    2.1842116  0.089185484   0.11852943 
   54000   -951.66244    40.470462   -911.19198    1449.5052   -878.04782    2.1890405  0.073769912   0.11154109 
   54100   -956.10707     39.07657    -917.0305     1399.581    5811.3953    2.2147869 0.0082382756   0.12150067 
   54200   -954.71186    39.421591   -915.29027    1411.9384     7721.176     2.217286  0.086606135   0.10924389 
   54300   -951.16679     41.20557   -909.96122    1475.8341    -8491.091    2.1683886  0.077103486   0.11354351 
   54400   -957.28746    39.442824   -917.84463    1412.6989   -14036.481    2.1682353  0.048385228   0.10030721 
   54500    -955.0331    39.053605   -915.97949    1398.7585   -271.60125    2.1981839   0.11160267  0.094765048 
   54600   -953.15876    42.485907   -910.67286    1521.6911    12968.831    2.2237466   0.21408019   0.11055988 
   54700   -955.17091     37.67976   -917.49115    1349.5524    5459.6148    2.2142254   0.17498944   0.10529025 
   54800   -953.28199    35.373841   -917.90815    1266.9627   -7179.7049    2.1788504   0.17860861   0.11112916 
   54900   -953.18966    39.816346   -913.37332    1426.0771   -9784.6688    2.1710198    0.4199605  0.094280993 
   55000   -956.49216    39.232071   -917.26009    1405.1505    1175.9805    2.2037212   0.14080971   0.10871387 
   55100   -959.71004    40.522161   -919.18788    1451.3568    7484.5592    2.2262627   0.12049409   0.11928578 
   55200    -954.3162    41.644761   -912.67144    1491.5643    3492.8453    2.2049008  0.041507446   0.11811994 
   55300   -954.25633    37.764094   -916.49224    1352.5729   -4897.3734     2.186009  0.060176085   0.12695815 
   55400   -956.54053    36.428272   -920.11226    1304.7286   -6324.2551    2.1895893   0.13285835   0.10622133 
   55500   -954.46651    42.211399   -912.25511    1511.8592   -616.00069    2.1952481   0.19068803   0.11362942 
   55600    -957.1947    42.099479   -915.09522    1507.8507    4477.8135    2.2142849   0.27141948   0.11028368 
   55700   -953.23347    34.729748   -918.50372    1243.8936    5666.1984     2.208903   0.51177611   0.10125324 
   55800   -949.84883    39.504906   -910.34392    1414.9225   -4975.0884    2.1752339   0.33748854   0.11223827 
   55900   -954.89791    39.488615   -915.40929     1414.339    -4198.817    2.1873705   0.58752513   0.10834211 
   56000   -955.84066    38.621115   -917.21955    1383.2683     3184.702    2.2071823  0.056319682   0.10060377 
   56100   -951.71277    41.570116   -910.14266    1488.8908    6845.7483     2.206521   0.12556171   0.10961249 
   56200    -955.1681    40.011422   -915.15668     1433.064    2698.3786    2.2044167  0.055900311   0.12149318 
   56300   -957.74518    39.760852   -917.98432    1424.0895   -12465.501    2.1736704    0.1216561   0.12809994 
   56400   -950.69266    38.256926   -912.43573    1370.2243   -14549.942     2.153934   0.01409475   0.13055007 
   56500   -954.42048    40.831968   -913.58852     1462.453    5243.8418    2.2094395  0.080163661   0.12037533 
   56600    -953.6216    36.291343   -917.33025    1299.8243      21488.7    2.2486417   0.20263585   0.11305009 
   56700   -952.54376    39.212052   -913.33171    1404.4335     5614.299    2.2051007    0.2264779   0.10408765 
   56800   -952.65802    38.327308   -914.33072    1372.7452   -9559.3454    2.1697691   0.17276375   0.10777122 
   56900   -956.68934    36.035122   -920.65422    1290.6474   -6285.2522    2.1880267   0.14933292   0.11097507 
   57000   -952.47157    38.695046   -913.77653    1385.9162    3247.9062    2.2025972   0.14479588   0.10600412 
   57100   -955.69376    41.580938   -914.11282    1489.2784    6355.8558    2.2145505  0.010982085   0.10943019 
   57200   -957.50669    37.224409   -920.28228    1333.2433    2285.9585    2.2098734  0.091718962  0.098743261 
   57300   -952.28488    39.435027   -912.84986    1412.4196   -5727.2168    2.1773847  0.054054877   0.11006672 
   57400   -957.12318    42.748545   -914.37464    1531.0978   -6765.1817    2.1821859  0.015572965   0.10833405 
   57500   -955.45111    36.945304   -918.50581    1323.2468    6006.5768     2.211879 0.0091657856   0.10059438 
   57600   -952.24233    40.524796   -911.71753    1451.4512    7455.3657     2.210275  0.093800025   0.13019804 
   57700   -954.27968    41.065222   -913.21446    1470.8073    832.93783    2.1968436   0.47443989   0.11349882 
   57800   -953.36166    35.170289   -918.19137    1259.6722   -4706.9411    2.1816268   0.13194633  0.094184038 
   57900   -952.33461     39.76073   -912.57388    1424.0851   -5384.5566     2.177421   0.11381337   0.10303136 
   58000   -950.94308    39.144329   -911.79875    1402.0079     6109.527    2.2032047  0.094174668  0.095538928 
   58100    -955.0356    37.884511   -917.15109    1356.8858    9931.3308    2.2234616  0.038222126   0.10040793 
   58200    -953.4072    39.599326   -913.80787    1418.3043    111.54023    2.1970753   0.12246652   0.10158676 
   58300    -952.0459    39.829368   -912.21653    1426.5435   -11433.421    2.1585417   0.03369698   0.10156234 
   58400   -954.45625    34.496952   -919.95929    1235.5557   -7487.1465    2.1817388  0.023442536   0.11423065 
   58500   -956.43545     41.68767   -914.74777    1493.1012    9898.7113    2.2255699  0.039544928   0.11401013 
   58600   -953.65208    41.842935   -911.80915    1498.6622    15406.436    2.2344361   0.13613714   0.11754764 
   58700    -958.4179    38.976494    -919.4414    1395.9967   -4505.1527    2.1969593   0.26031382  0.099268336 
   58800    -952.7679    36.089028   -916.67888    1292.5781    -7833.698    2.1754181   0.29453408    0.1088428 
   58900    -951.7301    39.012579   -912.71752    1397.2891   -1288.2905    2.1854535  0.075865283   0.10784919 
   59000   -956.92519    38.726685    -918.1985    1387.0494    2463.0338    2.2130699   0.09485756   0.09957591 
   59100    -958.1938    40.643085   -917.55072    1455.6879    2488.6622    2.2141035   0.16386687  0.096344843 
   59200   -950.71001    38.695766   -912.01425     1385.942    13.657677    2.1899502   0.10732463   0.10807177 
   59300   -953.00133     35.22988   -917.77145    1261.8066   -3849.2517    2.1879592  0.088871695   0.11046548 
   59400   -957.10152    40.718826    -916.3827    1458.4007   -3581.6116    2.1948743  0.025428879  0.097891848 
   59500   -954.22493    43.607379   -910.61755    1561.8582    1569.3073    2.1966893   0.04943216   0.09908001 
   59600   -956.44602    39.387184   -917.05883    1410.7061    3224.5285    2.2085718   0.20474479   0.10581067 
   59700   -956.09116    40.007439   -916.08372    1432.9214   -49.148519    2.1964893    0.1414962   0.10716834 
   59800   -954.77794    44.715761   -910.06218    1601.5564   -8315.1769    2.1734234   0.21994976   0.11433898 
   59900   -953.14319    35.318808   -917.82438    1264.9916   -540.94609    2.1948475   0.28132798   0.10263808 
   60000   -954.29403    38.601546   -915.69249    1382.5674    3945.7484    2.2090194   0.19247151   0.11123036 
   60100   -951.19113    40.882631    -910.3085    1464.2676    4424.0495    2.1992492  0.072161036   0.11190473 
   60200   -957.98675    40.052368   -917.93439    1434.5306   -3022.0471    2.1956876  0.066893882   0.10764744 
   60300   -955.11825    38.266459   -916.85179    1370.5658   -9298.6606    2.1739558  0.038407321   0.11264597 
   60400   -952.46462    40.142524    -912.3221    1437.7596   -4957.8474    2.1797713   0.09234886   0.10718838 
   60500   -954.18921    35.262076   -918.92713    1262.9597    11539.247    2.2271751   0.17973504   0.10258219 
   60600   -956.93864    39.349693   -917.58894    1409.3633    8726.5733    2.2238305   0.25883913   0.11039382 
   60700   -951.79485    38.462027   -913.33282    1377.5703   -3990.2684    2.1839149   0.50711614   0.11747261 
   60800   -950.63035     33.92368   -916.70667    1215.0232   -9596.0185    2.1699098   0.02703875   0.10781019 
   60900   -956.73135    37.221473   -919.50988    1333.1382   -2330.3514    2.1970755   0.08362047   0.10404842 
   61000   -953.22779    41.061663   -912.16612    1470.6798    7056.6724    2.2119321      0.14147   0.11058661 
   61100   -955.45873    39.714797   -915.74393      1422.44    4360.2785    2.2126041  0.094819719   0.11283181 
   61200   -960.03576    40.054806   -919.98095    1434.6179   -4653.4645    2.1978162  0.066509564   0.10464897 
   61300   -951.42444    39.940687   -911.48375    1430.5306    -5872.855    2.1771247   0.12845845   0.11723333 
   61400   -953.65344    39.125728   -914.52771    1401.3417    638.00133    2.1981433  0.038682389   0.11112617 
   61500   -954.88801    37.087403    -917.8006    1328.3363    6249.2778    2.2132971   0.17950145   0.11461106 
   61600   -950.48799    39.881471   -910.60652    1428.4097    3317.5162    2.1969773   0.17054183   0.10679812 
   61700   -954.59463    40.961553   -913.63308    1467.0943   -3617.7045     2.191901  0.080225658   0.11331496 
   61800   -953.59345    35.934447     -917.659    1287.0416   -3347.7195    2.1923578   0.13118569    0.1253817 
   61900   -949.63476    37.591899   -912.04286    1346.4055    71.486004    2.1907406  0.083691642   0.11942457 
   62000   -955.20149    42.781812   -912.41968    1532.2894    571.41479    2.1991804   0.18401194   0.11454658 
   62100    -956.2246    38.601828   -917.62277    1382.5775    3640.7536     2.210322  0.011932562   0.10756072 
   62200   -951.31653    37.837061   -913.47947    1355.1863    3226.2095    2.1958393  0.091441272   0.11270827 
   62300   -952.87038    40.519858   -912.35052    1451.2744   -5239.4595    2.1787111  0.085641133   0.11800377 
   62400    -958.0423    38.290476   -919.75182     1371.426   -4037.1875    2.1965417   0.18215782   0.10729048 
   62500   -955.51368    41.107083    -914.4066    1472.3066    7128.2914    2.2190517   0.12417943   0.10138858 
   62600   -953.43688    40.258906   -913.17798     1441.928    10663.331    2.2204026  0.050592487   0.11130379 
   62700   -957.14718    36.403483    -920.7437    1303.8407   -3931.3548    2.1966959  0.081324583   0.10592777 
   62800   -952.39491    37.420695   -914.97422    1340.2736   -13923.472    2.1610513  0.031909277   0.11678817 
   62900   -953.63931    40.062483   -913.57683    1434.8928   -4365.7074    2.1853166   0.14127402   0.11340299 
   63000   -956.16003    37.846634   -918.31339    1355.5292    9706.2596    2.2292651  0.043231408   0.10429065 
   63100   -955.17283     38.59788   -916.57495    1382.4361    8684.2854    2.2249577  0.083114166    0.1188749 
   63200   -952.20392    39.831861   -912.37206    1426.6328   -4003.7591    2.1854419  0.042808434   0.12204167 
   63300   -952.43196    34.840988   -917.59097    1247.8779    -6562.408    2.1811352   0.11559407   0.11892795 
   63400   -957.11542    41.173275   -915.94215    1474.6774   -4167.0786    2.1950331   0.23805144   0.10567043 
   63500   -955.66307    45.339938   -910.32313    1623.9122    1692.9014    2.2020262   0.10878067    0.1099116 
   63600   -954.77643    38.063243   -916.71319    1363.2873    3655.3968    2.2105223   0.12985724   0.11607817 
   63700   -957.04649    40.897858   -916.14863     1464.813   -2605.9445    2.1949318   0.14555674   0.10006823 
   63800   -949.06439    39.535622   -909.52877    1416.0226   -5482.0866    2.1733099  0.038693488   0.12027926 
   63900   -954.05358    36.491418   -917.56216    1306.9903   -1386.8686    2.1985892    0.1478723   0.11197012 
   64000   -952.89003    37.057088   -915.83294    1327.2505    4478.1528    2.2079706  0.099610011   0.12026535 
   64100   -953.95734    43.326694   -910.63064    1551.8051    2246.1471    2.2004726   0.15838782   0.12385115 
   64200    -953.7661    35.883447   -917.88266    1285.2149   -2579.8872    2.1968277   0.14902066   0.12421837 
   64300   -955.95143    38.711668   -917.23976    1386.5116   -11632.596    2.1733413   0.27417028   0.11958623 
   64400    -955.6037    42.578114   -913.02559    1524.9936   -5883.2186    2.1832329   0.17416548   0.11383568 
   64500   -955.73278    37.692229   -918.04055    1349.9989    12926.875    2.2363917  0.074663868    0.1218372 
   64600   -958.01444    39.660877   -918.35357    1420.5088    13956.221    2.2380485  0.061094951   0.10529133 
   64700   -953.40324     39.93689   -913.46635    1430.3946   -5000.2203    2.1826272  0.086847096   0.11260066 
   64800    -952.4985    36.792644   -915.70585    1317.7791   -13556.462    2.1604256    0.1835541   0.11336591 
   64900   -956.06257     35.67677    -920.3858    1277.8125   -2000.6646    2.1995264  0.072991446    0.1068966 
   65000   -954.92566     42.52771   -912.39795    1523.1884    5305.7417    2.2104075   0.09965973   0.12483092 
   65100   -952.74475    38.445642   -914.29911    1376.9835    6858.4351    2.2130767   0.18864315   0.11564484 
   65200   -957.34806    38.739441   -918.60862    1387.5063   -2043.2039    2.2010464   0.27230945   0.11540088 
   65300   -954.90746    43.586182   -911.32127     1561.099   -7880.5708    2.1783916   0.12588461   0.12659981 
   65400   -951.35589    38.288112   -913.06778    1371.3413    268.98701     2.191559   0.14724831   0.12333384 
   65500   -955.71088    38.656387   -917.05449    1384.5316    3668.0956    2.2105915  0.098476792   0.10994604 
   65600   -953.99667    40.267061   -913.72961    1442.2201    4785.5392    2.2075645   0.20859579   0.11504928 
   65700   -948.69759    38.089613   -910.60798    1364.2318   -1822.7697    2.1827078  0.069944338    0.1209192 
   65800   -955.58592    37.887758   -917.69816    1357.0021   -6487.4728    2.1846929  0.096103263   0.11081598 
   65900    -955.8769    41.163374   -914.71353    1474.3228   -1473.4065    2.1959954   0.22202896   0.11732125 
   66000   -951.55645    42.330585   -909.22587     1516.128    7476.1089    2.2088353   0.15730563   0.11393574 
   66100   -956.24801    38.812705    -917.4353    1390.1303    8327.8421    2.2196841  0.089854902   0.11032454 
   66200   -953.49446    37.637017   -915.85744    1348.0215   -6191.3543    2.1782758  0.080245894   0.11429875 
   66300   -949.29593    36.726419   -912.56951    1315.4072   -12715.398    2.1555229   0.11798362   0.12419545 
   66400   -955.64501    34.898553   -920.74646    1249.9396    1042.1088    2.2037804  0.040098553   0.11046483 
   66500   -956.47625    39.284266   -917.19198      1407.02    12107.729    2.2322186  0.056080306   0.10737456 
   66600   -952.30753    39.044046   -913.26348    1398.4161    6011.5762    2.2111646   0.17570442   0.11768447 
   66700   -953.62528    36.395946   -917.22933    1303.5708   -3510.3041    2.1832763 0.0095208389   0.10518238 
   66800   -955.19801    35.081026   -920.11698    1256.4751   -4378.6942    2.1905648   0.16815325   0.10443303 
   66900   -953.49679    40.464176   -913.03261      1449.28    573.14891     2.192433   0.03745121  0.098215937 
   67000    -955.5428    39.778901    -915.7639     1424.736     2618.638    2.2056004  0.020033363   0.10094684 
   67100   -953.43579    33.603866   -919.83192    1203.5686    6406.9942    2.2125446   0.05542436   0.10042361 
   67200   -949.86068    38.498215   -911.36246    1378.8664   -2525.8719    2.1815156   0.35264133   0.11188661 
   67300   -953.38428    38.599582   -914.78469     1382.497   -1532.9757    2.1897345    0.2065792   0.12818998 
   67400   -954.34545    36.769714   -917.57574    1316.9578    2534.9991     2.204526   0.27266305   0.10838335 
   67500   -950.47078    39.892052   -910.57873    1428.7886    4300.5916    2.2009155  0.066471618   0.11274138 
   67600   -952.29759    39.510426   -912.78716    1415.1202     2502.911    2.2022904   0.14235962   0.11532412 
   67700   -953.87032    36.472149   -917.39817    1306.3001   -4012.7659    2.1904138   0.22012852   0.10272559 
   67800    -954.0084    40.955232   -913.05316    1466.8679   -6565.2803    2.1799533  0.024125879   0.10933664 
   67900    -950.7715     40.38173   -910.38977    1446.3271    1249.7405    2.1926773  0.019830927   0.11485463 
   68000   -956.30107    39.386033   -916.91504    1410.6649    11273.004    2.2304991   0.16750242   0.10242224 
   68100   -954.13526     39.94419   -914.19107     1430.656    8272.7908    2.2176722   0.09283296   0.10965502 
   68200   -951.34531    39.146219   -912.19909    1402.0756   -10497.834    2.1697444   0.24287859   0.13081363 
   68300   -954.43562     34.35737   -920.07825    1230.5564   -9307.1942      2.17688   0.32774379   0.11428544 
   68400   -952.86435     36.80716   -916.05719     1318.299    1743.5531    2.2025562   0.30335997   0.10422715 
   68500   -951.82832    39.718118   -912.11021    1422.5589    11297.965    2.2191741   0.03383212   0.11033385 
   68600   -957.37664     38.29854    -919.0781    1371.7148    3843.5529    2.2147973   0.14130832   0.11288435 
   68700   -955.07709    37.275797   -917.80129    1335.0839    -5600.445     2.189952  0.056769302   0.11749533 
   68800   -950.31152    36.891932   -913.41959    1321.3352   -2822.2286    2.1862126   0.21684681   0.12393548 
   68900   -955.17231    37.671007    -917.5013    1349.2389    422.34876    2.2047053  0.011424838   0.11176233 
   69000   -955.37143     36.21208   -919.15935    1296.9854    5308.1776    2.2175856   0.11066749   0.11330068 
   69100   -952.41891    40.209202   -912.20971    1440.1478    534.81704    2.1957272   0.10071054   0.12860955 
   69200   -954.89743    38.370663   -916.52677     1374.298   -3028.0482    2.1930415   0.19791871   0.11920135 
   69300   -956.38224     37.57688   -918.80536    1345.8676   -1419.5274    2.1997161   0.36577699   0.10638846 
   69400   -953.43208    42.738525   -910.69355     1530.739   -2693.9093    2.1903073   0.15875618   0.10783706 
   69500    -951.2033    35.739459   -915.46384    1280.0578    5474.6309    2.2101236    0.2377944   0.11829115 
   69600   -955.90897    38.317408   -917.59156    1372.3906    2682.3119    2.2126354   0.20790003   0.11917221 
   69700   -951.73545    42.172185   -909.56326    1510.4547   -4242.4815    2.1808091   0.10859705   0.12650445 
   69800    -955.1911    39.943233   -915.24787    1430.6217   -6800.7458    2.1844947   0.10170449   0.11068389 
   69900   -958.67609    41.667092     -917.009    1492.3641   -2066.9198    2.2040772   0.29889965   0.10972454 
   70000   -955.28776    44.817701   -910.47006    1605.2075    10336.784    2.2236676  0.044685013    0.1101797 
   70100   -953.71629    38.794977   -914.92131    1389.4954    7463.4735    2.2135674   0.14354408   0.12679128 
   70200   -954.74516    36.496702   -918.24846    1307.1795   -10394.622    2.1752713   0.10247637   0.10691242 
   70300   -952.88082    39.465568   -913.41525    1413.5135   -12156.244    2.1656988   0.30496948   0.10758544 
   70400   -952.94143    39.864134    -913.0773    1427.7887    2237.0527    2.2008971   0.12754946   0.10817257 
   70500   -956.02946    36.907473   -919.12199    1321.8918    13614.692    2.2352129   0.18315204   0.10385052 
   70600   -953.70486    40.170848   -913.53401    1438.7741    4463.4346     2.205436   0.13874471   0.10431689 
   70700   -955.11094    40.606867   -914.50408    1454.3907   -8039.3216    2.1780635  0.066189719   0.10825835 
   70800   -955.78814    34.941603   -920.84654    1251.4815   -5014.2913    2.1904023   0.10595584   0.10398289 
   70900   -954.68098    40.646086   -914.03489    1455.7954   -212.12981    2.1963753  0.095914498   0.11057083 
[...]
  186800   -951.02862    38.898338   -912.13029    1393.1974    425.36318    2.1878371    16.680405    0.1165004 
  186900   -954.32904    35.325627   -919.00342    1265.2359    4888.1805    2.2135048     15.41658   0.11203849 
  187000   -953.55339    40.053416   -913.49998    1434.5681    3718.8276    2.2046163    14.531011   0.11623933 
  187100   -952.12962    38.926688   -913.20294    1394.2128   -14.675634    2.1899602    15.099835   0.11126625 
  187200   -952.71021    32.748068   -919.96214     1172.917   -3637.6329    2.1893741    17.830695   0.11868576 
  187300   -955.48916    41.501419   -913.98774    1486.4303   -3431.9699    2.1875566    18.247685    0.1140461 
  187400    -955.5976    42.935754   -912.66185     1537.803    9561.3776    2.2207822    16.997055  0.098005296 
  187500   -956.00399    37.521322   -918.48267    1343.8777    12824.636    2.2315215    14.757066  0.095097624 
  187600   -950.40658    37.774939   -912.63164    1352.9613   -2778.4315    2.1792004    15.395783   0.10233869 
  187700   -953.85371    40.371182   -913.48253    1445.9493   -13776.861    2.1603826    16.200372   0.10425169 
  187800   -956.05364    37.023238    -919.0304    1326.0381   -3290.6816    2.1945506    17.287847   0.10113123 
  187900   -956.06005    42.891563   -913.16849    1536.2202    9829.2265    2.2211749    14.781861   0.10294138 
  188000   -954.74466    42.240183   -912.50447    1512.8902    5365.9811    2.2127361    16.484393   0.11861906 
  188100   -955.56231    36.707372   -918.85494    1314.7249   -1912.7055    2.1954115     17.70265   0.11869748 
  188200   -952.71104    39.246547   -913.46449     1405.669   -6796.2444    2.1744387    17.515441    0.1132195 
  188300   -951.47622    39.221114    -912.2551    1404.7581   -857.63035    2.1877805    15.279294   0.10887832 
  188400   -957.89528     39.54088    -918.3544    1416.2109    4981.7209    2.2186052    15.226508   0.11084199 
  188500   -953.60833    40.674985   -912.93335    1456.8305    5527.0787    2.2069633    13.472994  0.098348051 
  188600   -955.00449    41.902385    -913.1021    1500.7915   -4466.0769     2.185154     15.50443  0.096912411 
  188700   -956.48147    37.157713   -919.32376    1330.8545   -6218.9145    2.1859657    15.084173   0.10212127 
  188800   -953.01538    39.407417   -913.60796    1411.4308   -642.76773    2.1906591     16.18205   0.11080763 
  188900   -953.44224    40.470087   -912.97215    1449.4918    5310.8785    2.2072754    17.252424   0.10266151 
  189000   -958.22243    39.067239   -919.15519    1399.2468    5649.6374    2.2201053    18.041127   0.10131398 
  189100   -952.69757    39.506994   -913.19058    1414.9972   -2153.0911    2.1893637    17.595864   0.12080498 
  189200   -957.21965    42.904513   -914.31513    1536.6841   -12533.817    2.1712575    17.770797   0.11234746 
  189300   -957.17306    36.999721   -920.17334    1325.1958   -3917.3748    2.1942937    16.007771   0.11083722 
  189400   -952.41489    39.537029   -912.87786     1416.073    13387.215    2.2251058    15.171812   0.11517446 
  189500   -952.03671    38.634845   -913.40186      1383.76    15232.546    2.2310199    15.364958   0.11419145 
  189600   -956.56307    37.309055   -919.25401     1336.275    -7941.783    2.1826624    18.133662  0.095680349 
  189700   -951.89849    39.383289    -912.5152    1410.5666   -14789.628    2.1516159     15.24297   0.11028888 
  189800   -953.40746     40.53189   -912.87557    1451.7053   -732.93886    2.1891253    14.783593   0.10193889 
  189900   -956.53086     39.64509   -916.88577    1419.9434    9886.2368    2.2235862    14.517878  0.099776765 
  190000   -954.79238    42.217145   -912.57524     1512.065    6001.8876    2.2082425    15.707524   0.09697804 
  190100   -951.59513    39.606417   -911.98871    1418.5582   -4845.4068    2.1776004    17.051994  0.099773664 
  190200   -955.76627     37.23328   -918.53299    1333.5611   -5315.3275    2.1862126    15.841555    0.1002635 
  190300   -956.25994    42.584161   -913.67578    1525.2102    313.40474     2.196593    16.758307  0.097235628 
  190400   -954.34987    42.588256   -911.76162    1525.3569    4040.2003    2.2066759    13.969932   0.09713867 
  190500   -958.50054     39.32024    -919.1803    1408.3084    2773.2126    2.2132042    14.384753  0.095937794 
  190600    -951.7472     37.22689   -914.52031    1333.3322   -2170.6786    2.1869945    14.279602   0.10352678 
  190700   -955.80115    42.496798   -913.30435    1522.0812    -9615.708    2.1767745    15.014145  0.099770941 
  190800   -957.22953    36.547397   -920.68213    1308.9952    1395.4009    2.2083367    15.596133  0.096757925 
  190900   -956.02501      41.6416   -914.38341    1491.4511    7881.3475    2.2163016    14.829492  0.089279707 
  191000   -952.38545    38.806877   -913.57857    1389.9216    6289.0068     2.209156     17.53137   0.11657065 
  191100   -960.26668    40.136502   -920.13018    1437.5439   -8995.6529    2.1895646    15.521777   0.10306259 
  191200   -948.09014    34.022067   -914.06807    1218.5471   -9114.9071    2.1649686    16.432734   0.11945877 
  191300    -954.1317     40.99827   -913.13343    1468.4093     516.4915    2.1988251      15.9382   0.10528165 
  191400   -956.37695    39.521623   -916.85533    1415.5212    14901.488    2.2388786     14.93313   0.10474789 
  191500   -954.63046    38.611824   -916.01864    1382.9355    8430.3101    2.2196271    16.555697   0.11166918 
  191600   -951.05611    40.100304   -910.95581    1436.2475   -9173.4467    2.1664893    15.793499   0.10685331 
  191700   -954.12949    36.344499   -917.78499    1301.7282   -7092.6009     2.179604    14.690334   0.10342804 
  191800   -952.63298    37.321303   -915.31168    1336.7137    981.06001    2.1994817    14.071908   0.10673886 
  191900   -950.28928    40.396551   -909.89273    1446.8579    5402.7295    2.2014911    15.667309   0.12531407 
  192000   -956.14608    38.234362   -917.91172    1369.4162    2198.7431    2.2087626    18.512665   0.10817843 
  192100   -953.76014    38.044522   -915.71562    1362.6168   -2257.3547    2.1892421    16.789476     0.113675 
  192200   -953.39901    42.177782   -911.22123    1510.6552   -5048.9272    2.1798902    16.515685   0.11865907 
  192300   -955.79908    36.516612   -919.28247    1307.8926     2993.022    2.2078726    16.143597   0.10094045 
  192400   -952.06427    36.236282   -915.82799    1297.8522    6296.4986    2.2096506    15.893471   0.11635152 
  192500   -953.64894    41.189668   -912.45928    1475.2645    334.49434    2.1961194    16.193227   0.10399649 
  192600   -955.78271    35.981029   -919.80168      1288.71   -3526.4771      2.19662    15.569958  0.099118765 
  192700   -954.75713    38.171178   -916.58595    1367.1532   -5473.2657    2.1861518    14.754839  0.098513275 
  192800   -955.32676     42.47297   -912.85379    1521.2278    728.81142    2.1984203    16.287372  0.090238381 
  192900   -956.92088    38.315688    -918.6052     1372.329    7113.2392    2.2237491    15.789247   0.11529883 
  193000   -956.90946    39.539164   -917.37029    1416.1495    3206.7612    2.2114874     17.08349    0.1009977 
  193100   -950.82993    38.047924   -912.78201    1362.7387   -6910.7515    2.1758318    15.065888   0.12392425 
  193200   -954.15881    36.302535   -917.85627    1300.2251   -9367.5893    2.1774794    16.422869   0.11172478 
  193300   -952.83548    36.046164   -916.78931    1291.0429    4124.2208    2.2079691      16.4318   0.11683128 
  193400   -953.26971    43.067101   -910.20261    1542.5074    11571.215    2.2198143    16.780711   0.10920829 
  193500   -957.14253    40.827978   -916.31455    1462.3101    2676.6342    2.2083078    16.614573  0.087916759 
  193600   -955.71793    38.377367   -917.34056    1374.5381   -9654.1354    2.1780159     15.57169   0.10504676 
  193700   -950.54223    40.551469   -909.99076    1452.4066   -10815.158    2.1603813    15.408837   0.10831594 
  193800   -954.33145    37.070326   -917.26112    1327.7246    2953.6982    2.2079323    15.423388   0.10619272 
  193900   -954.70919    38.279183   -916.43001    1371.0215    8819.5375    2.2206705    15.631559   0.11054471 
  194000    -950.0895    38.980986   -911.10851    1396.1576    3197.6285    2.1963729    16.985755   0.12254217 
  194100   -955.68529    38.709696   -916.97559    1386.4409   -5224.1636    2.1893989    16.491536  0.099333662 
  194200   -956.19532    38.595849   -917.59947    1382.3634   -4654.1772    2.1904936    17.100138   0.10220449 
  194300   -953.11434    40.719779   -912.39457    1458.4348    1552.7039    2.1960164    19.426709   0.11716847 
  194400   -959.39286    41.588306   -917.80455    1489.5423     962.1849    2.2107799    15.754972   0.10328807 
  194500   -956.42301    37.744079   -918.67893     1351.856    77.462007     2.204548    14.403152   0.10848968 
  194600   -954.94791    41.819809    -913.1281    1497.8339   -3592.3059    2.1889352     15.98528  0.089958566 
  194700   -953.80982     37.06535   -916.74447    1327.5464   -2688.3916     2.193593    15.662705    0.1016849 
  194800   -958.57296     38.92176    -919.6512    1394.0363    167.57262     2.208788    15.150414   0.10510927 
  194900   -954.42434    42.043677   -912.38066     1505.852    2648.7029    2.2033061      15.1475   0.10290045 
  195000    -956.3221    40.165293    -916.1568    1438.5751    880.77886    2.2037182     13.62545   0.10975099 
  195100   -957.26827     37.11698   -920.15129    1329.3956   -5005.1919    2.1928177    15.893802   0.10304827 
  195200   -951.22905    39.189023   -912.04003    1403.6087   -7755.1635    2.1738696    17.793408   0.12546395 
  195300   -951.29063    36.141519   -915.14911    1294.4582    6424.5092    2.2098438    17.664632    0.1160183 
  195400   -954.63393    37.385778   -917.24815     1339.023    12974.169    2.2315898    15.589679   0.11402337 
  195500   -953.00557    43.434001   -909.57157    1555.6484    1239.2136    2.1947436    16.710553   0.10855234 
  195600   -951.79074    37.374093   -914.41665    1338.6045   -8292.1661    2.1722705    18.143254   0.11042296 
  195700   -952.80944     35.39971   -917.40973    1267.8892   -6033.9533    2.1797549    15.758859   0.10962022 
  195800   -955.10429    43.739569   -911.36472    1566.5927    2275.9028    2.2049103    14.666682   0.11353398 
  195900   -951.73695    38.401296   -913.33565    1375.3951    10115.565    2.2194739     14.16028    0.1177058 
  196000   -954.16325    36.374716   -917.78854    1302.8104    1505.8752    2.2015858    14.614627  0.092448456 
  196100   -951.78786    38.055115   -913.73275    1362.9962   -4403.0794    2.1799234    18.102898   0.10746167 
  196200   -954.03973    42.147286   -911.89244    1509.5629   -4730.5802     2.182684    17.237767   0.11456337 
  196300   -956.75447    37.323445   -919.43102    1336.7904    6135.4508    2.2167156     14.89866  0.094076317 
  196400   -955.84112     41.48859   -914.35253    1485.9708    4233.9835    2.2084222     15.96812   0.10891907 
  196500   -951.95956    38.291714   -913.66785    1371.4703    408.31116    2.1917671    14.940321   0.10109238 
  196600     -956.144    35.211533   -920.93247    1261.1494   -853.01552    2.1993552    17.592162   0.09121323 
  196700   -955.01914    40.323204   -914.69594    1444.2309   -2224.2154    2.1929575    16.264227   0.10295261 
  196800    -956.1594    42.568501   -913.59089    1524.6493    990.61174    2.2004171    14.802748  0.089298893 
  196900    -958.0442    38.068866   -919.97534    1363.4887    1806.6124    2.2109252     16.82636   0.10089958 
  197000   -954.96137    40.752305   -914.20907    1459.5998   -1573.7139    2.1948115    13.944357   0.10579789 
  197100   -951.67791    38.384775   -913.29314    1374.8034     519.6929    2.1908826     16.29803   0.11427753 
  197200   -956.48425    38.198561   -918.28569    1368.1339   -2008.4858    2.1976363    15.361896    0.1067485 
  197300   -954.20745    39.841871   -914.36558    1426.9913    2292.4851    2.2034555    16.086921   0.10581829 
  197400   -952.26136    40.607961    -911.6534    1454.4299    2178.5046    2.1986768     15.51559   0.10638874 
  197500   -956.39266     38.95685   -917.43581    1395.2931   -3395.3504     2.195697    17.883128   0.10020297 
  197600   -951.94995    37.328833   -914.62112    1336.9834   -4052.9288    2.1826049    15.965828   0.11321185 
  197700   -951.15849    40.717106   -910.44139    1458.3391    152.10658    2.1902004    18.137682   0.10047364 
  197800   -959.42027    42.289467   -917.13081    1514.6553    8233.4751    2.2277188    15.459268  0.089304838 
  197900   -953.72997      38.9007   -914.82927     1393.282    8390.8555    2.2176942    15.803286  0.089279118 
  198000   -951.56382    40.388478   -911.17535    1446.5688   -8925.2353    2.1745247    15.956631   0.11952872 
  198100   -953.47379    34.348798   -919.12499    1230.2494   -9601.7176    2.1788843    15.425654   0.12565667 
  198200   -955.93426    39.943946   -915.99032    1430.6473    -893.2822    2.1998863    16.275789  0.099118109 
  198300   -953.00312    41.692547   -911.31057    1493.2758    7812.0697    2.2152181    16.942406   0.11076114 
  198400   -954.34227     35.59089   -918.75138    1274.7366    6611.4403    2.2175954    14.561484   0.11126303 
  198500   -956.22592    39.189013   -917.03691    1403.6083    -5851.139    2.1870121    20.455493   0.10549106 
  198600   -952.67458    39.761071   -912.91351    1424.0974   -6760.0105    2.1751992    15.826484  0.098996081 
  198700   -954.14387    35.468591   -918.67528    1270.3563    425.78725    2.2027194    13.591028   0.11240278 
  198800   -954.87286    37.108756    -917.7641    1329.1011    9886.0194    2.2242249    14.730347  0.093674127 
  198900   -952.89545    40.715026   -912.18042    1458.2646     4503.267     2.207633    14.268588   0.10256019 
  199000   -955.66141    38.097548   -917.56387     1364.516   -5279.8386    2.1889708    15.625755   0.10592046 
  199100   -958.19351    40.041917    -918.1516    1434.1562    -9771.474    2.1820122    16.733873  0.096093662 
  199200   -949.88919    38.304996   -911.58419     1371.946    83.955702    2.1902705    16.281599    0.1142654 
  199300    -952.9419    38.366266   -914.57564    1374.1405    5789.3018    2.2110201    14.883058   0.13167243 
  199400   -957.25061    37.935228   -919.31538    1358.7023    1972.2254    2.2115136    17.271354   0.10949727 
  199500   -956.80823     37.48384   -919.32439    1342.5352     -2076.21    2.1988464    18.288974   0.10321363 
  199600   -952.87057    39.813104   -913.05747     1425.961   -2882.2476    2.1863216    18.216959   0.10831714 
  199700   -954.78329    39.557745   -915.22555     1416.815   -1214.3279    2.1933298    16.261424  0.095523716 
  199800   -957.13346    40.101719   -917.03174    1436.2981    1619.7081    2.2038486    15.485584  0.092697669 
  199900   -950.64357    41.116982   -909.52658    1472.6612    4061.2788    2.2002243    15.846821   0.11953098 
  200000   -954.34002    42.669047   -911.67098    1528.2505    1959.4019    2.1990189     14.43649   0.10958596 
  200100    -954.7319    38.745649   -915.98625    1387.7286   -2172.6962    2.1914401    16.875477  0.096055994 
  200200   -953.86782    37.829212   -916.03861    1354.9052   -2001.1373     2.190474    16.564995   0.10122903 
  200300   -950.26455    42.648375   -907.61617    1527.5101    69.184423    2.1849754    15.831408   0.11537809 
  200400   -954.56683    40.058961   -914.50787    1434.7667    5059.4734    2.2097006    16.388198   0.11806598 
  200500   -954.58301    38.258335   -916.32468    1370.2748    1423.8461    2.2044257    17.499821   0.10937898 
  200600   -951.81481     39.34111    -912.4737    1409.0559   -2663.5297     2.184784    17.601936   0.10682717 
  200700   -950.77809     40.78492   -909.99317    1460.7679   -7239.5524    2.1711107    17.220655   0.10460066 
  200800   -955.67379     38.40662   -917.26717    1375.5859    2009.1965    2.2044902     16.58573  0.094921035 
  200900   -955.04215    41.011315   -914.03083    1468.8766    13289.146    2.2302017    17.045799   0.11201527 
  201000   -954.78221    43.266156   -911.51605    1549.6368    5727.5943    2.2080708    15.527031   0.10274287 
  201100   -956.66533    39.776969   -916.88837    1424.6668   -16623.034    2.1589169    16.445374    0.1062167 
  201200   -953.81462    35.696074   -918.11854    1278.5039   -13033.627    2.1616777    15.912497   0.10711409 
  201300   -955.95601    41.581183   -914.37482    1489.2872     1968.362    2.2046929    16.884676    0.1108203 
  201400   -952.49313    37.996122   -914.49701    1360.8833    10565.814    2.2185595    17.416356    0.1128918 
  201500   -958.00184    35.785409   -922.21643    1281.7036    5354.0409    2.2167449    18.472156   0.11210445 
  201600   -953.97087    38.674487   -915.29638    1385.1799   -6631.7705    2.1792756    17.710245   0.10852263 
  201700   -951.54481    36.978934   -914.56587    1324.4513   -4417.9972    2.1802386    15.741622   0.10921023 
  201800   -957.85361    38.762209    -919.0914    1388.3218    1493.5923    2.2068908     17.72679   0.10661455 
  201900   -959.64966    40.333132   -919.31653    1444.5865    6677.6287    2.2210663    17.059073  0.096297403 
  202000   -953.49965     40.15304   -913.34661    1438.1363    746.10781    2.1962878    16.255923    0.1026273 
  202100   -954.77284    38.408894   -916.36395    1375.6673   -7341.3354    2.1763613    15.316326   0.10324758 
  202200   -958.67879    40.409369   -918.26942    1447.3171   -8268.1726    2.1833178    16.492559   0.10582034 
  202300   -951.04028    41.288348   -909.75193    1478.7989     3234.289    2.1955914    14.759355   0.11121229 
  202400   -951.28339    38.393691    -912.8897    1375.1228    12320.166    2.2198035    17.929618   0.11516396 
  202500    -955.6674    39.191402     -916.476    1403.6939    1198.6314    2.2017078    19.034611   0.10942733 
  202600   -953.11531    39.380365   -913.73494    1410.4619   -7346.0124    2.1730998    16.770182    0.1021393 
  202700   -951.98613    42.695167   -909.29096     1529.186   -8610.7136    2.1676366    16.133984   0.11774126 
  202800   -953.52361    37.101855   -916.42176    1328.8539    5985.6063    2.2058224    15.067475   0.08447979 
  202900   -954.24928    38.930752   -915.31853    1394.3583    6381.7294    2.2093872    15.940614  0.094327879 
  203000   -952.89963    43.775936   -909.12369    1567.8953   -831.20209    2.1849009    14.942834  0.091305784 
  203100   -954.74832    38.325687   -916.42263    1372.6871   -4007.3376    2.1873392    14.063647  0.097892555 
  203200   -954.99206    38.362522   -916.62954    1374.0064   -4119.9946    2.1861066    15.643777   0.10712012 
Loop time of 144.56 on 1 procs for 200000 steps with 217 atoms

Performance: 358.607 ns/day, 0.067 hours/ns, 1383.513 timesteps/s
100.0% CPU use with 1 MPI tasks x no OpenMP threads

MPI task timing breakdown:
Section |  min time  |  avg time  |  max time  |%varavg| %total
---------------------------------------------------------------
Pair    | 141.13     | 141.13     | 141.13     |   0.0 | 97.63
Neigh   | 0.34651    | 0.34651    | 0.34651    |   0.0 |  0.24
Comm    | 0.86301    | 0.86301    | 0.86301    |   0.0 |  0.60
Output  | 0.068106   | 0.068106   | 0.068106   |   0.0 |  0.05
Modify  | 1.8516     | 1.8516     | 1.8516     |   0.0 |  1.28
Other   |            | 0.3027     |            |       |  0.21

Nlocal:    217 ave 217 max 217 min
Histogram: 1 0 0 0 0 0 0 0 0 0
Nghost:    957 ave 957 max 957 min
Histogram: 1 0 0 0 0 0 0 0 0 0
Neighs:    4227 ave 4227 max 4227 min
Histogram: 1 0 0 0 0 0 0 0 0 0
FullNghs:  8454 ave 8454 max 8454 min
Histogram: 1 0 0 0 0 0 0 0 0 0

Total # of neighbors = 8454
Ave neighs/atom = 38.9585
Neighbor list builds = 584
Dangerous builds = 0
Total wall time: 0:02:26
