LAMMPS (3 Mar 2020)

# ---------- 1. Initialize simulation ----------
units metal
atom_style atomic
dimension 3
boundary p p p
read_data /home/modeler/RemLabs/Project/eval_timestep_nvt_fluc/n3_T1800_timestep5.000000e-04_steps40001/20201206-212307/lammps.data
  orthogonal box = (0 0 0) to (17.469 17.469 17.469)
  1 by 1 by 1 MPI processor grid
  reading atoms ...
  217 atoms
  read_data CPU = 0.000963058 secs

pair_style meam/c
pair_coeff * * library.meam Li Si LiSi.meam Li Si
Reading potential file library.meam with DATE: 2012-06-29
Reading potential file LiSi.meam with DATE: 2020-11-07

group Li type 1
1 atoms in group Li

velocity all create 1800 3320 dist gaussian

# ---------- 2. Describe computed properties----------
compute msdli Li msd
thermo_style custom step pe ke etotal temp press density c_msdli[4]
thermo 100

# ---------- 3. Specify ensemble  ----------
# fix 1 all npt temp 1800 1800 0.024999999999999994 tchain 2 iso 1.0 1.0 1.0 pchain 2
fix 1 all nvt temp 1800 1800 0.024999999999999994
# fix 1 all nve

# ---------- 4. Run -------------
timestep 0.0004999999999999999
run 40001
Neighbor list info ...
  update every 1 steps, delay 10 steps, check yes
  max neighbors/atom: 2000, page size: 100000
  master list distance cutoff = 6
  ghost atom cutoff = 6
  binsize = 3, bins = 6 6 6
  2 neighbor lists, perpetual/occasional/extra = 2 0 0
  (1) pair meam/c, perpetual
      attributes: full, newton on
      pair build: full/bin/atomonly
      stencil: full/bin/3d
      bin: standard
  (2) pair meam/c, perpetual, half/full from (1)
      attributes: half, newton on
      pair build: halffull/newton
      stencil: none
      bin: none
Per MPI rank memory allocation (min/avg/max) = 9.27 | 9.27 | 9.27 Mbytes
Step PotEng KinEng TotEng Temp Press Density c_msdli[4] 
       0   -951.04357    50.256344   -900.78722         1800   -114161.75    1.8918427            0 
     100   -914.37537    27.163317   -887.21206    972.89152   -81872.642    1.8918427   0.16348045 
     200   -911.11352    49.691329   -861.42219    1779.7632   -68398.389    1.8918427   0.38599553 
     300   -895.71638    51.071018   -844.64536    1829.1787   -57439.879    1.8918427   0.10990463 
     400   -906.32198    54.904866   -851.41711    1966.4932   -66382.322    1.8918427   0.16268778 
     500   -908.97431    47.226391   -861.74792    1691.4781   -71328.451    1.8918427   0.22898117 
     600   -899.16476    48.626732   -850.53802    1741.6332   -59451.245    1.8918427   0.30506191 
     700   -899.94001    45.258525   -854.68149    1620.9962   -60929.157    1.8918427   0.16745598 
     800   -904.40321    54.445381   -849.95783    1950.0361   -62714.211    1.8918427   0.31543283 
     900   -908.41182    49.444945   -858.96688    1770.9386    -69591.22    1.8918427   0.10031951 
    1000    -904.4502    50.915691   -853.53451    1823.6154    -64648.06    1.8918427   0.29680051 
    1100   -901.15324    47.008202   -854.14504    1683.6633   -61477.255    1.8918427   0.18408287 
    1200   -907.78145     45.26278   -862.51867    1621.1486   -69681.078    1.8918427   0.27259155 
    1300   -904.03759    50.739842   -853.29775    1817.3171   -60882.792    1.8918427  0.024986091 
    1400   -903.89544    55.157704   -848.73774    1975.5489   -64028.785    1.8918427  0.032994012 
    1500   -904.36514    45.786556   -858.57858    1639.9084   -63904.559    1.8918427    0.4076161 
    1600   -901.47746    48.293372   -853.18409    1729.6934   -61279.269    1.8918427   0.21058712 
    1700   -900.05399    47.524175   -852.52982    1702.1436    -62427.14    1.8918427  0.068403893 
    1800   -908.74261    45.356632   -863.38597    1624.5101   -70314.086    1.8918427  0.087830683 
    1900   -904.44718    49.780803   -854.66637    1782.9678   -65878.097    1.8918427   0.68160905 
    2000   -903.65034    55.762524   -847.88782    1997.2114   -63004.371    1.8918427  0.083156532 
    2100   -904.48418    47.998659   -856.48552    1719.1379   -64680.359    1.8918427   0.15349421 
    2200   -905.49183    51.503069   -853.98876    1844.6532   -65987.515    1.8918427  0.041801055 
    2300   -898.06817    51.232363    -846.8358    1834.9575   -57955.446    1.8918427   0.46333463 
    2400   -903.09391    51.497737   -851.59617    1844.4622   -64158.247    1.8918427   0.45191185 
    2500   -904.64024    46.817841   -857.82239    1676.8453   -64672.162    1.8918427  0.057214672 
    2600   -904.08346    53.586152   -850.49731    1919.2616    -63007.58    1.8918427   0.12248872 
    2700   -902.75228    50.307172   -852.44511    1801.8205   -64094.127    1.8918427   0.46610939 
    2800   -902.94635    46.419549   -856.52681    1662.5799   -63455.401    1.8918427  0.011624544 
    2900   -908.38691    46.351546   -862.03537    1660.1443   -69384.365    1.8918427  0.090029157 
    3000   -900.78345    47.192451   -853.59099    1690.2625   -62386.113    1.8918427  0.017434865 
    3100   -902.51405    52.999149   -849.51491    1898.2373   -62239.661    1.8918427  0.044731354 
    3200    -904.8982    49.141997   -855.75621    1760.0881   -65271.525    1.8918427  0.074231976 
    3300    -901.8437    49.637754   -852.20595    1777.8443   -62954.066    1.8918427   0.21478214 
    3400   -898.67107    49.467367    -849.2037    1771.7417   -60189.374    1.8918427  0.057108903 
    3500    -907.3406     52.04064   -855.29996     1863.907   -67060.497    1.8918427  0.073655077 
    3600   -904.64398    51.329665   -853.31431    1838.4424   -66958.291    1.8918427   0.12863785 
    3700   -904.77183    52.976984   -851.79485    1897.4434    -66477.43    1.8918427   0.15699274 
    3800   -905.31102    48.098376   -857.21265    1722.7094    -66288.01    1.8918427  0.043347785 
    3900   -901.63456     53.99517   -847.63939    1933.9112   -61766.816    1.8918427   0.14307686 
    4000   -907.47112    54.153377   -853.31774    1939.5776   -67303.818    1.8918427   0.11124034 
    4100   -906.19642    50.885968   -855.31045    1822.5508   -67598.536    1.8918427  0.075683018 
    4200   -903.33241    55.773099   -847.55931    1997.5901    -62927.61    1.8918427   0.29363991 
    4300   -898.22555    47.807954    -850.4176    1712.3075    -59943.29    1.8918427  0.035161268 
    4400   -907.18516    52.340676   -854.84449    1874.6532    -66908.29    1.8918427  0.024691937 
    4500   -904.24382    48.298001   -855.94581    1729.8592   -67613.773    1.8918427   0.22871307 
    4600   -898.49297    48.760654   -849.73232    1746.4298   -56751.182    1.8918427  0.028324392 
    4700   -902.39101    46.058795   -856.33221     1649.659    -64676.94    1.8918427   0.09212886 
    4800   -903.78048    53.170788   -850.60969    1904.3848   -64114.169    1.8918427   0.12757792 
    4900   -902.16897    46.327065   -855.84191    1659.2675   -63861.138    1.8918427   0.20421304 
    5000   -904.72912    51.760661   -852.96846    1853.8792   -64586.938    1.8918427  0.087953219 
    5100   -904.46823     47.69728   -856.77095    1708.3436   -68911.315    1.8918427   0.16865401 
    5200   -902.76943    54.787915   -847.98151    1962.3044   -63001.848    1.8918427   0.12876162 
    5300   -898.00251    44.888966   -853.11354      1607.76   -61549.383    1.8918427  0.032514315 
    5400   -906.23591    52.751685   -853.48422    1889.3741   -67026.058    1.8918427   0.03482646 
    5500   -907.38574    47.146896   -860.23884    1688.6308   -69388.935    1.8918427   0.19152183 
    5600   -905.33112    56.366138   -848.96498    2018.8306   -66351.039    1.8918427  0.091241304 
    5700   -905.40522     49.32425   -856.08097    1766.6158     -66092.6    1.8918427   0.14864142 
    5800   -906.70582    52.885764   -853.82006    1894.1763   -64989.282    1.8918427   0.41000498 
    5900   -898.09307    51.842678    -846.2504    1856.8167   -60412.289    1.8918427   0.15210936 
    6000   -899.36175    56.930895   -842.43085    2039.0582   -60779.142    1.8918427   0.25870358 
    6100   -902.46842    45.464694   -857.00372    1628.3805   -63940.392    1.8918427 0.0043134631 
    6200   -901.76445    50.624719   -851.13973    1813.1939   -62292.814    1.8918427  0.065987786 
    6300   -899.72637    44.553468   -855.17291    1595.7437    -61781.77    1.8918427   0.10476524 
    6400   -903.24732    47.398375   -855.84894    1697.6379   -64300.042    1.8918427  0.052038564 
    6500   -900.60557    50.299693   -850.30588    1801.5526   -63231.587    1.8918427  0.099119515 
    6600   -899.34217    50.871746   -848.47043    1822.0415   -61946.885    1.8918427  0.049361147 
    6700   -904.70681      46.9278   -857.77901    1680.7836   -65361.495    1.8918427  0.037262344 
    6800   -903.44255    51.252517   -852.19004    1835.6793   -64940.313    1.8918427  0.058525479 
    6900   -901.45292    48.767218   -852.68571    1746.6649   -62412.098    1.8918427   0.20230684 
    7000    -905.7732    49.853798    -855.9194    1785.5822    -66432.38    1.8918427   0.29318857 
    7100    -903.9431    56.013804   -847.92929    2006.2113   -65361.076    1.8918427  0.053066263 
    7200   -904.75398    49.685855   -855.06812    1779.5671   -66439.967    1.8918427   0.17435697 
    7300   -909.29554    54.254378   -855.04116    1943.1951    -69628.24    1.8918427  0.032643134 
    7400   -905.73604    51.608738    -854.1273    1848.4378   -68458.951    1.8918427   0.11495585 
    7500   -901.54715     53.48111   -848.06604    1915.4994   -64013.762    1.8918427  0.080131144 
    7600   -898.14561     50.97715   -847.16846    1825.8166   -58069.403    1.8918427 0.0035659189 
    7700   -906.15407     49.44188   -856.71219    1770.8288   -68298.996    1.8918427 0.0037575978 
    7800    -904.9033      48.1607    -856.7426    1724.9416   -67881.751    1.8918427  0.048330579 
    7900   -904.02039    55.413869   -848.60652    1984.7238   -66482.581    1.8918427   0.24684749 
    8000   -903.95517    49.271596   -854.68357    1764.7299   -65037.013    1.8918427  0.094178905 
    8100   -908.60256    53.852078   -854.75048    1928.7861   -69933.696    1.8918427   0.18785302 
    8200   -904.85873     48.61934   -856.23939    1741.3684   -67027.882    1.8918427    0.0557237 
    8300    -907.5152    53.252663   -854.26254    1907.3173   -69062.281    1.8918427   0.53638609 
    8400   -900.80707    51.538129   -849.26894    1845.9089     -61495.6    1.8918427   0.12779997 
    8500   -903.57382    51.975313    -851.5985    1861.5672   -63942.521    1.8918427  0.028072305 
    8600   -904.66434    50.629522   -854.03482    1813.3659   -63721.484    1.8918427  0.072835274 
    8700   -905.40553    42.573764   -862.83176    1524.8378   -67220.114    1.8918427   0.17841316 
    8800    -908.4598    52.898628   -855.56117     1894.637    -69863.28    1.8918427   0.20000604 
    8900   -905.99893    54.307578   -851.69135    1945.1005   -67554.294    1.8918427  0.022762466 
    9000   -902.82772    49.948522    -852.8792    1788.9749   -65858.092    1.8918427   0.12776344 
    9100   -904.46386    46.530019   -857.93384    1666.5365   -65592.911    1.8918427   0.22517188 
    9200   -902.81473    51.882917   -850.93181    1858.2579   -62936.301    1.8918427   0.12282359 
    9300   -900.21484    49.899616   -850.31523    1787.2233   -61265.707    1.8918427  0.038162906 
    9400   -905.33629     43.91781   -861.41848    1572.9767    -67240.64    1.8918427   0.06684204 
    9500   -905.83873    51.906626    -853.9321    1859.1071   -67383.917    1.8918427  0.092773622 
    9600   -902.65837    52.385681   -850.27269    1876.2651   -63570.558    1.8918427   0.04929115 
    9700   -904.62665    52.073785   -852.55287    1865.0941   -67640.262    1.8918427  0.066883839 
    9800   -904.33709    48.263512   -856.07358     1728.624   -67058.489    1.8918427   0.28201883 
    9900   -908.13559     46.41721   -861.71838    1662.4961   -70943.915    1.8918427  0.053154615 
   10000   -903.77202    52.296162   -851.47586    1873.0589   -66322.035    1.8918427  0.060347289 
   10100   -901.68851    51.370157   -850.31835    1839.8927   -62743.702    1.8918427   0.15457869 
   10200   -905.81255    47.658999   -858.15355    1706.9725   -67423.524    1.8918427   0.20387392 
   10300    -905.3671     49.20497   -856.16213    1762.3436   -68877.146    1.8918427  0.034206881 
   10400   -895.95897    47.266522   -848.69245    1692.9154   -58213.652    1.8918427   0.15651463 
   10500   -902.35613    48.085366   -854.27077    1722.2434   -64420.021    1.8918427  0.039878402 
   10600   -904.65174    47.113896   -857.53785    1687.4489   -66687.694    1.8918427   0.36141069 
   10700    -902.1844    52.736268   -849.44813    1888.8219   -63832.934    1.8918427   0.14486148 
   10800   -900.68924    53.584943    -847.1043    1919.2183   -62413.872    1.8918427  0.082597112 
   10900   -906.14342    53.207371   -852.93605    1905.6951   -67580.598    1.8918427  0.085233772 
   11000   -907.00055    50.163217   -856.83733    1796.6645   -69229.843    1.8918427   0.10818178 
   11100   -906.93352    52.090409   -854.84311    1865.6895   -69053.194    1.8918427   0.02598071 
   11200   -900.55698    51.869764   -848.68721    1857.7869   -62105.879    1.8918427     0.474902 
   11300   -903.26344    47.660573   -855.60287    1707.0289   -64179.026    1.8918427   0.32188973 
   11400   -903.57944    47.987436   -855.59201    1718.7359   -66102.466    1.8918427   0.15045755 
   11500   -900.09096      49.5597   -850.53126    1775.0487    -61688.16    1.8918427   0.05566759 
   11600   -902.81533    49.335435    -853.4799    1767.0164   -67352.226    1.8918427   0.14098773 
   11700   -904.92865    51.033735   -853.89491    1827.8433   -66518.466    1.8918427   0.12199046 
   11800   -906.07488    49.833526   -856.24135    1784.8562   -68291.772    1.8918427  0.015381797 
   11900   -904.55936    53.824728   -850.73463    1927.8066   -66136.599    1.8918427  0.063135854 
   12000   -902.19438    51.039091   -851.15529    1828.0352   -64260.823    1.8918427  0.096399234 
   12100   -904.52959    46.104352   -858.42524    1651.2907   -66577.593    1.8918427  0.023508199 
   12200   -904.23933    50.790649   -853.44868    1819.1369   -66027.947    1.8918427  0.067078794 
   12300    -906.9272    52.433317   -854.49388    1877.9713   -69312.771    1.8918427  0.060430529 
   12400   -903.42342     49.43906   -853.98436    1770.7278   -64765.845    1.8918427   0.32888634 
   12500   -899.80392    50.685376   -849.11854    1815.3664    -63550.77    1.8918427   0.23041872 
   12600   -899.62206     47.88628   -851.73578    1715.1129   -63310.755    1.8918427   0.20616564 
   12700   -907.65011    46.001452   -861.64866    1647.6052   -70689.367    1.8918427    0.1608279 
   12800   -901.80377    48.828075    -852.9757    1748.8446   -65100.216    1.8918427   0.42158224 
   12900     -904.518    50.170121   -854.34788    1796.9118   -66477.727    1.8918427   0.37337294 
   13000   -903.17714    48.338025   -854.83912    1731.2928   -63710.611    1.8918427  0.043757249 
   13100   -902.63865    54.703391   -847.93526    1959.2771   -67260.046    1.8918427   0.10293923 
   13200   -904.94882    45.762858   -859.18597    1639.0596   -68046.984    1.8918427   0.13581983 
   13300   -906.55355     52.97902   -853.57453    1897.5164   -67139.554    1.8918427   0.30121556 
   13400    -900.7746    50.187855   -850.58674     1797.547   -64105.258    1.8918427   0.59754698 
   13500     -900.237     53.09481    -847.1422    1901.6635   -62133.853    1.8918427  0.068045814 
   13600   -902.69673    47.480666   -855.21607    1700.5852   -65000.222    1.8918427    0.1665077 
   13700   -903.41511    51.849183   -851.56593    1857.0497   -65583.638    1.8918427   0.05436461 
   13800   -901.87379    53.944878   -847.92892    1932.1099   -63732.503    1.8918427   0.08647989 
   13900   -902.52936    45.937404   -856.59195    1645.3112   -64277.399    1.8918427  0.055106771 
   14000   -907.49005    52.795044     -854.695     1890.927   -69462.341    1.8918427  0.046577956 
   14100   -897.57867    48.429036   -849.14964    1734.5525   -60320.304    1.8918427   0.10284934 
   14200   -901.53083    53.626274   -847.90456    1920.6987   -63805.557    1.8918427    0.1594206 
   14300   -905.15694    48.147243    -857.0097    1724.4597   -68855.838    1.8918427  0.071084488 
   14400   -903.42686     49.65729   -853.76957    1778.5441    -65825.44    1.8918427  0.059322279 
   14500   -897.26904    50.107881   -847.16115    1794.6826   -60155.316    1.8918427    0.3927325 
   14600   -907.86794    50.104012   -857.76393     1794.544   -70386.101    1.8918427   0.15881547 
   14700   -904.51845    46.693147   -857.82531    1672.3792   -66338.104    1.8918427   0.13290554 
   14800   -906.60756    55.711723   -850.89584    1995.3919   -68282.846    1.8918427   0.27339466 
   14900   -903.38362    49.986358   -853.39726    1790.3301   -68285.404    1.8918427   0.50696117 
   15000    -899.2198    55.861781   -843.35802    2000.7664   -61734.531    1.8918427   0.38706789 
   15100   -905.25703    52.764985   -852.49205    1889.8504   -69052.364    1.8918427   0.32406853 
   15200   -904.47345    49.626657   -854.84679    1777.4469   -69636.462    1.8918427  0.098949253 
   15300   -897.41938     52.76432   -844.65506    1889.8266   -59052.374    1.8918427  0.067625968 
   15400   -898.96468     48.60408    -850.3606    1740.8219   -61943.233    1.8918427   0.10301223 
   15500   -903.15261    48.562881   -854.58973    1739.3463   -65512.917    1.8918427    0.2630629 
   15600    -907.3052    45.836344   -861.46886    1641.6916   -71736.446    1.8918427   0.12210262 
   15700   -903.81786    52.751751   -851.06611    1889.3764   -66878.226    1.8918427  0.035174737 
   15800   -905.61819    50.040734   -855.57746    1792.2776   -69347.411    1.8918427    0.2727685 
   15900   -905.66721       49.352   -856.31521    1767.6097   -67641.207    1.8918427    0.1768326 
   16000   -898.90919    51.123646   -847.78554    1831.0636   -61700.583    1.8918427   0.28709095 
   16100   -904.61233    49.767078   -854.84526    1782.4763   -67370.415    1.8918427  0.028717826 
   16200   -906.05649    47.948645   -858.10785    1717.3466   -69926.479    1.8918427   0.22898239 
   16300   -900.64557    52.333668    -848.3119    1874.4022   -64842.203    1.8918427  0.086104644 
   16400   -900.66486     46.31902   -854.34584    1658.9793   -65552.803    1.8918427   0.25190312 
   16500   -909.55714    52.059382   -857.49775    1864.5783   -72034.292    1.8918427   0.07764956 
   16600   -904.31612    44.178619   -860.13751    1582.3179   -69125.724    1.8918427   0.35950047 
   16700    -901.8941    52.037397    -849.8567    1863.7909   -66452.507    1.8918427   0.33256128 
   16800   -901.41571    47.399597   -854.01612    1697.6817   -65121.403    1.8918427  0.086024099 
   16900   -904.58717    49.468132   -855.11904    1771.7691   -67675.454    1.8918427  0.072790315 
   17000   -898.10183    51.165067   -846.93677    1832.5471   -61327.389    1.8918427   0.07352628 
   17100   -900.40409    52.872937   -847.53115    1893.7169   -66167.842    1.8918427   0.21436257 
   17200   -902.54956    47.230087   -855.31948    1691.6104   -67686.674    1.8918427 0.0093698095 
   17300   -902.26311    51.643061   -850.62004    1849.6672   -65109.895    1.8918427  0.061997247 
   17400   -899.54445    46.766943   -852.77751    1675.0223   -65358.942    1.8918427   0.43569488 
   17500   -902.59005    51.663178   -850.92688    1850.3877   -64332.886    1.8918427   0.38450853 
   17600    -904.4383    51.854593    -852.5837    1857.2435   -68073.032    1.8918427   0.23020591 
   17700   -905.48064    52.151244    -853.3294    1867.8684   -68430.842    1.8918427   0.25776642 
   17800   -902.06657    51.515892   -850.55067    1845.1124   -66988.618    1.8918427   0.12737445 
   17900   -900.61904    48.432748   -852.18629    1734.6854   -65241.926    1.8918427   0.12976685 
   18000   -901.22337    53.406264    -847.8171    1912.8187   -65816.444    1.8918427    0.1168491 
   18100   -906.92775    50.785046    -856.1427    1818.9362   -70173.834    1.8918427   0.17043277 
   18200   -905.43985    43.660173   -861.77967    1563.7491   -71109.732    1.8918427   0.08475745 
   18300   -904.03204    50.063489   -853.96855    1793.0926    -67682.73    1.8918427  0.068061094 
   18400   -902.02844    52.512002   -849.51644    1880.7895   -65553.625    1.8918427   0.11748379 
   18500    -900.8199    45.100011   -855.71989    1615.3188   -65099.728    1.8918427   0.11491226 
   18600   -909.47969    51.995747   -857.48394    1862.2991   -72795.205    1.8918427  0.023444737 
   18700   -898.99812    51.659242   -847.33888    1850.2467    -62335.66    1.8918427   0.12417483 
   18800   -900.50608    46.892194   -853.61389    1679.5083   -64621.835    1.8918427   0.41915863 
   18900   -905.84876    47.348269   -858.50049    1695.8433   -70630.525    1.8918427 0.0059443003 
   19000   -898.68389    50.360878   -848.32301     1803.744   -63356.074    1.8918427   0.05511689 
   19100   -901.08481    49.407007    -851.6778    1769.5798   -67115.881    1.8918427  0.027546133 
   19200   -908.14219    46.358009   -861.78418    1660.3758   -70658.373    1.8918427  0.055360092 
   19300   -902.45004    46.652263   -855.79778    1670.9149   -65964.412    1.8918427  0.071601616 
   19400   -905.81045    53.148405   -852.66205    1903.5831   -68413.547    1.8918427   0.16133162 
   19500   -905.42641    50.561379   -854.86503    1810.9252   -67894.399    1.8918427  0.013645038 
   19600   -901.99807    53.883036   -848.11504    1929.8949   -64969.849    1.8918427   0.23115508 
   19700     -903.551    52.162217   -851.38878    1868.2615   -67429.653    1.8918427   0.63651629 
   19800   -904.25678    47.362937   -856.89385    1696.3686   -67373.315    1.8918427   0.11164365 
   19900   -902.00845    46.346238   -855.66221    1659.9542   -66253.392    1.8918427  0.040668321 
   20000   -899.23627    51.035866    -848.2004    1827.9196   -60820.418    1.8918427   0.27991057 
   20100   -902.82084    45.901605   -856.91924     1644.029   -65972.267    1.8918427  0.080876117 
   20200   -906.24174    51.445216   -854.79652    1842.5811   -69460.701    1.8918427   0.33832605 
   20300   -904.08361    49.406841   -854.67677    1769.5739   -69194.955    1.8918427  0.099242415 
   20400   -902.23378    56.680032   -845.55375    2030.0732   -61490.709    1.8918427   0.10849094 
   20500   -903.32213    47.823198   -855.49893    1712.8535   -66607.891    1.8918427  0.039003716 
   20600   -902.17715    51.259095   -850.91805    1835.9149   -64897.171    1.8918427  0.074752572 
   20700   -905.42863    46.474304   -858.95432     1664.541   -69579.183    1.8918427  0.007388198 
   20800   -906.97257    52.181009   -854.79156    1868.9345    -68508.31    1.8918427  0.081998185 
   20900   -898.88659    53.770148   -845.11644    1925.8517   -63886.599    1.8918427     0.121478 
   21000   -901.90645    53.803566   -848.10289    1927.0486   -61617.949    1.8918427   0.13721335 
   21100   -903.94401     47.41166   -856.53235    1698.1137   -66507.294    1.8918427   0.34483614 
   21200   -903.77203    53.002602   -850.76943     1898.361   -65307.337    1.8918427   0.29608408 
   21300    -902.0818     52.62015   -849.46165     1884.663   -68374.555    1.8918427   0.71169611 
   21400   -905.14331    47.284403   -857.85891    1693.5558   -67715.384    1.8918427  0.088219492 
   21500   -902.91266    52.055315   -850.85735    1864.4326   -65901.628    1.8918427   0.29558722 
   21600   -901.92798    53.315558   -848.61242    1909.5699   -63992.276    1.8918427     0.236234 
   21700   -904.68704     49.16982   -855.51722    1761.0847   -69052.188    1.8918427   0.27008245 
   21800   -901.83185    53.229484   -848.60237    1906.4871   -63707.938    1.8918427   0.34327397 
   21900   -895.53713    54.496637   -841.04049    1951.8719   -58055.062    1.8918427   0.10159376 
   22000   -902.20002    50.867672   -851.33235    1821.8955   -63772.043    1.8918427   0.38304695 
   22100   -905.46386     49.81269   -855.65117    1784.1099   -68598.089    1.8918427   0.40492854 
   22200   -902.45083    50.639468   -851.81136    1813.7221   -63376.278    1.8918427    1.0879477 
   22300   -897.52968     49.31429   -848.21539     1766.259   -62679.734    1.8918427   0.44685981 
   22400   -906.38698    47.885808   -858.50117     1715.096   -68853.442    1.8918427     1.590836 
   22500   -903.72005    46.765918   -856.95413    1674.9856   -67146.063    1.8918427   0.63609119 
   22600    -900.7018    47.858802   -852.84299    1714.1287   -64074.907    1.8918427   0.47387963 
   22700   -902.09895    52.845779   -849.25317    1892.7442   -64826.078    1.8918427  0.022443543 
   22800   -905.68143     48.82819   -856.85324    1748.8487   -69736.421    1.8918427  0.037407334 
   22900   -904.23747    50.796607   -853.44087    1819.3502   -66009.748    1.8918427  0.022530948 
   23000   -904.15192    50.770647   -853.38127    1818.4205   -68703.362    1.8918427   0.13439542 
   23100   -901.68032    53.153233   -848.52708     1903.756   -64195.592    1.8918427  0.096110501 
   23200   -897.44922    48.285043   -849.16418    1729.3951     -62106.8    1.8918427   0.33737362 
   23300   -903.51072    48.773237   -854.73748    1746.8805    -65813.87    1.8918427   0.23691767 
   23400   -900.75182    43.588036   -857.16378    1561.1654   -66085.611    1.8918427   0.10319867 
   23500   -902.37674    53.176425   -849.20031    1904.5867   -63534.721    1.8918427  0.037394368 
   23600   -899.92855    42.648224   -857.28033    1527.5047   -64447.606    1.8918427   0.24857651 
   23700   -905.22097    53.926569    -851.2944    1931.4542   -64936.184    1.8918427   0.22564723 
   23800   -907.27073    51.200465   -856.07026     1833.815   -70813.245    1.8918427  0.078027268 
   23900    -901.1827     55.65448   -845.52822    1993.3417   -61069.083    1.8918427     0.348341 
   24000    -899.3379    48.176333   -851.16157    1725.5015   -61902.224    1.8918427   0.02678964 
   24100   -905.30341    54.160641   -851.14276    1939.8377    -64769.21    1.8918427   0.15059875 
   24200   -903.72431    45.385924   -858.33839    1625.5592   -65254.739    1.8918427  0.083456117 
   24300   -904.79913    51.752272   -853.04686    1853.5787   -66921.817    1.8918427   0.42460441 
   24400   -902.25138    47.073833   -855.17755     1686.014    -65642.62    1.8918427   0.24237218 
   24500   -905.20843    58.782855   -846.42558    2105.3887   -64319.346    1.8918427   0.46171125 
   24600   -897.89761      43.9864   -853.91121    1575.4333   -62404.332    1.8918427   0.58766138 
   24700   -905.74519    53.596004   -852.14918    1919.6145   -67272.141    1.8918427   0.09517957 
   24800   -905.25422    46.712889   -858.54133    1673.0863   -68837.552    1.8918427  0.064544351 
   24900   -904.94338    51.963313   -852.98007    1861.1374   -67534.874    1.8918427  0.053352133 
   25000   -902.30123    49.062656   -853.23857    1757.2464     -63683.8    1.8918427  0.022481984 
   25100   -904.54065    49.814312   -854.72634     1784.168   -66345.036    1.8918427   0.25021084 
   25200   -904.40913     49.99006   -854.41907    1790.4627   -66224.166    1.8918427    0.1160342 
   25300   -902.08505    53.887325   -848.19772    1930.0486   -62923.003    1.8918427   0.16310742 
   25400   -906.36998    47.057978     -859.312    1685.4461   -68559.226    1.8918427    0.3010972 
   25500   -904.72079    51.980753   -852.74004    1861.7621   -66039.014    1.8918427   0.16564363 
   25600   -899.36032    51.645705   -847.71461    1849.7618   -62237.137    1.8918427  0.098746316 
   25700   -904.78935    51.587164   -853.20219    1847.6651   -65241.682    1.8918427   0.16323935 
   25800   -908.05306    48.929658    -859.1234    1752.4829   -69487.103    1.8918427  0.092933247 
   25900   -900.36279    50.289382   -850.07341    1801.1833   -62133.115    1.8918427   0.18353548 
   26000   -902.56161    51.969252   -850.59235    1861.3501   -65134.132    1.8918427  0.048203152 
   26100   -907.69864    49.047422   -858.65122    1756.7008   -70813.533    1.8918427   0.16682512 
   26200   -900.13348    51.721714   -848.41176    1852.4842   -60470.916    1.8918427   0.10132111 
   26300   -902.00004    50.294887   -851.70516    1801.3805   -66195.122    1.8918427    0.0670351 
   26400   -904.05231     51.05193   -853.00038     1828.495   -64550.604    1.8918427   0.22087094 
   26500   -907.48186    45.041923   -862.43994    1613.2383   -73629.593    1.8918427   0.14043579 
   26600    -908.6721    50.203087   -858.46902    1798.0925   -68460.224    1.8918427   0.10647276 
   26700   -902.50991    46.213645   -856.29626    1655.2052   -67184.427    1.8918427   0.37156065 
   26800   -906.11468    56.605242   -849.50944    2027.3945     -66885.1    1.8918427  0.039685315 
   26900   -902.01566    47.313757    -854.7019    1694.6072   -66481.362    1.8918427   0.58705646 
   27000   -905.80407    53.477914   -852.32615    1915.3849   -65729.721    1.8918427   0.53014682 
   27100   -901.17611    46.693123   -854.48298    1672.3783   -64821.516    1.8918427    1.4652717 
   27200   -900.53485     51.70303   -848.83182     1851.815   -64906.225    1.8918427   0.80305302 
   27300    -902.8837    50.700602    -852.1831    1815.9117   -66312.983    1.8918427    3.6535685 
   27400   -903.57314    45.412568   -858.16057    1626.5135   -69143.297    1.8918427    6.8639919 
   27500   -905.55912    53.239535   -852.31959    1906.8471   -69592.814    1.8918427    6.9575728 
   27600   -904.24083    51.317895   -852.92293    1838.0209    -69492.23    1.8918427      7.44331 
   27700   -903.63056    49.027028   -854.60353    1755.9703   -67889.648    1.8918427    8.5977788 
   27800   -902.38131    52.945704   -849.43561    1896.3231   -66822.869    1.8918427    10.947345 
   27900   -902.85115    52.000108   -850.85105    1862.4553   -65996.021    1.8918427    4.2254089 
   28000   -904.07475    46.984396   -857.09036    1682.8107   -68626.764    1.8918427    7.3712408 
   28100     -904.631    48.265661   -856.36534    1728.7009   -69651.826    1.8918427    6.6703142 
   28200   -901.67021    52.775965   -848.89425    1890.2437   -65662.588    1.8918427    6.7422609 
   28300   -902.96399    49.352265   -853.61172    1767.6192    -66203.65    1.8918427    7.7804096 
   28400   -906.85427     44.41708   -862.43719    1590.8587   -69511.183    1.8918427    5.9894608 
   28500   -905.95117    53.177232   -852.77393    1904.6156   -71725.971    1.8918427    4.8021783 
   28600   -903.79154    50.297254   -853.49429    1801.4652   -68012.677    1.8918427    6.6286072 
   28700   -904.71172    50.894212   -853.81751    1822.8461   -66772.651    1.8918427    6.8913754 
   28800   -897.20888    49.529128   -847.67976    1773.9537   -58379.032    1.8918427    6.4748907 
   28900   -900.86452    49.857999   -851.00652    1785.7327   -64277.996    1.8918427    6.6098011 
   29000   -904.22169    50.875674   -853.34602    1822.1822   -68217.813    1.8918427    5.3668797 
   29100   -906.63684    51.537525   -855.09931    1845.8872     -70329.6    1.8918427    6.2583914 
   29200   -904.72015    50.166963   -854.55318    1796.7987   -69162.381    1.8918427    9.4235783 
   29300   -897.42675    47.372901   -850.05385    1696.7255   -61644.757    1.8918427    4.0402663 
   29400   -904.04984    49.518139    -854.5317    1773.5602   -68996.912    1.8918427    6.9875391 
   29500   -906.87565    47.590104   -859.28555    1704.5049   -71469.217    1.8918427     4.242241 
   29600    -904.8567    54.832511   -850.02419    1963.9017   -68408.357    1.8918427     6.647294 
   29700   -902.83841    46.087335   -856.75108    1650.6812   -70852.302    1.8918427    6.7600824 
   29800   -903.59793    55.448225    -848.1497    1985.9543   -64539.304    1.8918427    6.7160735 
   29900   -901.43374    47.508002   -853.92574    1701.5644   -66680.233    1.8918427    4.4418359 
   30000   -911.01036    50.713188   -860.29717    1816.3625   -74288.098    1.8918427    3.8101789 
   30100   -899.38708    49.748857   -849.63822    1781.8236   -64505.036    1.8918427    7.5607141 
   30200   -905.09651    51.651084   -853.44543    1849.9545   -69258.139    1.8918427    5.9885369 
   30300    -904.0826    48.260726   -855.82188    1728.5242   -68107.076    1.8918427    5.7420218 
   30400   -900.66892    49.890674   -850.77825     1786.903   -63339.677    1.8918427    2.6784702 
   30500   -905.41006    53.084145   -852.32592    1901.2816    -69213.45    1.8918427    1.5996119 
   30600   -902.01222    41.943848   -860.06837    1502.2765   -67637.804    1.8918427    5.4319517 
   30700   -902.19061    50.345887   -851.84473    1803.2071   -65309.934    1.8918427    5.4724392 
   30800    -899.2694    47.748995    -851.5204    1710.1958    -63459.59    1.8918427    4.6171856 
   30900    -903.2587     55.65779   -847.60091    1993.4602   -67073.583    1.8918427    6.2226971 
   31000   -900.82839    44.640071   -856.18831    1598.8455   -65083.812    1.8918427    4.1664701 
   31100   -903.46218    51.815601   -851.64658    1855.8469   -66572.413    1.8918427    7.8610454 
   31200   -904.14247    49.634789   -854.50768    1777.7381   -70301.418    1.8918427    8.2331335 
   31300   -909.66536     53.86274   -855.80262     1929.168   -72701.441    1.8918427    4.3208468 
   31400   -902.21922    48.333371   -853.88585    1731.1261   -66353.526    1.8918427    6.6222082 
   31500   -904.78586    49.766845   -855.01901    1782.4679   -68160.488    1.8918427    5.5442342 
   31600   -904.67221    50.467378   -854.20483    1807.5584   -66827.771    1.8918427    5.1525573 
   31700   -901.11251    53.249826   -847.86269    1907.2156   -64757.131    1.8918427    5.3423747 
   31800   -905.01151    54.293894   -850.71761    1944.6104   -68384.618    1.8918427    6.6945062 
   31900    -905.3062    52.691222   -852.61498    1887.2085   -66488.809    1.8918427    6.4724231 
   32000   -906.73054    48.828519   -857.90202    1748.8605   -70728.349    1.8918427    4.8232156 
   32100   -900.90371     53.11318   -847.79053    1902.3215   -62141.039    1.8918427    8.9259068 
   32200   -901.93932    48.168877   -853.77044    1725.2345    -64449.45    1.8918427    8.7884439 
   32300   -900.65865    50.525628   -850.13302    1809.6448   -64008.995    1.8918427    6.0127471 
   32400   -900.99784    51.363099   -849.63474    1839.6399   -64110.549    1.8918427    4.7263794 
   32500   -906.28595    49.624616   -856.66133    1777.3738   -71388.315    1.8918427    9.0383061 
   32600   -902.96262    53.746356   -849.21626    1924.9996   -65703.542    1.8918427    3.8944019 
   32700   -899.11894    51.518179   -847.60076    1845.1943   -62903.231    1.8918427    8.5450739 
   32800   -909.24545     49.78756   -859.45789    1783.2098   -72407.206    1.8918427    12.307597 
   32900   -908.17113    54.117438   -854.05369    1938.2904   -70860.831    1.8918427    4.2351909 
   33000   -901.78437    49.811932   -851.97244    1784.0828   -66390.437    1.8918427    4.9095609 
   33100   -895.67168    53.128468   -842.54321     1902.869   -59548.554    1.8918427    7.1370088 
   33200   -903.63396    52.850081   -850.78388    1892.8982   -65509.211    1.8918427    5.7979174 
   33300   -903.92694    46.712636    -857.2143    1673.0772    -69044.04    1.8918427    4.1307458 
   33400   -901.33383    50.388207   -850.94562    1804.7228   -63050.774    1.8918427    6.6964913 
   33500   -901.86539    47.947514   -853.91788    1717.3061    -67957.38    1.8918427    5.2082701 
   33600   -897.79465    53.584755    -844.2099    1919.2116   -61022.254    1.8918427    3.7080626 
   33700   -904.46411    52.904545   -851.55957    1894.8489   -67921.471    1.8918427    6.6451413 
   33800   -903.20706    46.614355   -856.59271    1669.5571   -68096.524    1.8918427    12.324677 
   33900   -898.21876    49.879594   -848.33916    1786.5062   -63492.034    1.8918427    15.338344 
   34000   -903.69363    52.485074   -851.20856     1879.825   -68215.587    1.8918427    17.528225 
   34100   -904.62434    43.434024   -861.19032    1555.6492   -72658.237    1.8918427    11.380259 
   34200   -905.14889    49.448678   -855.70021    1771.0723   -66658.176    1.8918427    6.8375619 
   34300    -900.4089    46.042637   -854.36626    1649.0803   -66441.694    1.8918427    5.8024028 
   34400   -901.51466    55.546305   -845.96836    1989.4672   -65834.895    1.8918427    4.9338865 
   34500    -899.1999    47.650622   -851.54927    1706.6725   -65410.253    1.8918427    6.2992803 
   34600   -903.37614    52.205406   -851.17073    1869.8083   -66341.408    1.8918427     3.823454 
   34700    -903.7295    49.138333   -854.59117    1759.9569   -69193.775    1.8918427     3.813197 
   34800   -899.12722    49.058978   -850.06825    1757.1147   -66045.378    1.8918427    6.8618127 
   34900   -902.45192    51.847815    -850.6041    1857.0007   -66786.836    1.8918427    9.2566559 
   35000   -903.55111    50.568907    -852.9822    1811.1949   -67423.767    1.8918427    7.8238251 
   35100   -898.89709    48.866726   -850.03036    1750.2289   -63107.446    1.8918427    3.1034972 
   35200   -900.83878    49.357234   -851.48155    1767.7971   -64537.303    1.8918427    2.6430455 
   35300   -905.23356    52.319843   -852.91371     1873.907   -68488.265    1.8918427    2.5390101 
   35400   -893.99169    50.864708   -843.12699    1821.7894   -58276.408    1.8918427    3.5399389 
   35500   -901.88057    49.168553   -852.71201    1761.0393   -65201.704    1.8918427    5.2311923 
   35600   -905.46364    52.484091   -852.97955    1879.7898   -70562.665    1.8918427    6.3629858 
   35700   -908.12154    50.278849    -857.8427     1800.806    -71589.78    1.8918427      5.31143 
   35800   -901.32285    47.265809   -854.05704    1692.8899   -68501.561    1.8918427     5.863421 
   35900    -898.6626    50.604665   -848.05793    1812.4756    -63712.46    1.8918427    7.3635457 
   36000   -907.27838    52.562812   -854.71557    1882.6093    -70600.52    1.8918427    4.2691055 
   36100   -902.93749    46.791128   -856.14636    1675.8885   -67236.116    1.8918427    4.6515773 
   36200   -903.24568    50.757337   -852.48834    1817.9437   -68113.521    1.8918427    4.1114972 
   36300   -899.98938    56.175894   -843.81349    2012.0168   -63222.419    1.8918427    5.9469355 
   36400    -902.8204    50.755635   -852.06476    1817.8828    -68271.73    1.8918427    5.6917338 
   36500   -907.66608    55.594724   -852.07136    1991.2014   -67966.879    1.8918427    6.6294356 
   36600   -902.29433     43.70924   -858.58509    1565.5065   -67889.214    1.8918427    5.3931123 
   36700   -901.57405    52.845434   -848.72862    1892.7318   -62376.278    1.8918427    6.8602924 
   36800   -904.85226    51.502547   -853.34972    1844.6345   -67596.814    1.8918427    6.3293359 
   36900   -908.84528    45.992663   -862.85262    1647.2904   -74196.668    1.8918427    6.3699543 
   37000   -902.02158    45.476788   -856.54479    1628.8136   -65300.217    1.8918427    6.0469146 
   37100   -901.83455    48.631631   -853.20292    1741.8086   -65113.934    1.8918427    6.1597391 
   37200   -903.21641    47.382953   -855.83346    1697.0855   -67008.405    1.8918427    7.0046076 
   37300   -902.11182    52.935568   -849.17625    1895.9601   -63837.133    1.8918427    7.0912762 
   37400    -904.1655    46.875795    -857.2897     1678.921   -69374.954    1.8918427    7.9945631 
   37500   -902.17862    54.007719    -848.1709    1934.3606    -63799.31    1.8918427      5.15822 
   37600   -900.62013    50.321545   -850.29858    1802.3352   -67171.646    1.8918427    5.8622389 
   37700   -905.80972    52.011986   -853.79774    1862.8807   -71262.649    1.8918427    5.9882656 
   37800   -904.63604     48.32492   -856.31112    1730.8234   -69529.044    1.8918427    5.5253456 
   37900   -901.82371    52.898751   -848.92496    1894.6414   -65543.915    1.8918427    6.8665172 
   38000   -902.68885    49.662757   -853.02609    1778.7399    -69021.83    1.8918427    7.3804615 
   38100   -901.95468    50.061886   -851.89279    1793.0352   -65263.756    1.8918427    7.3090145 
   38200   -903.33746    50.635084   -852.70238    1813.5651   -67242.633    1.8918427    5.9826275 
   38300   -906.33398    54.374203   -851.95978    1947.4867   -68897.002    1.8918427    5.2406888 
   38400   -904.26151    46.872347   -857.38917    1678.7975   -71787.568    1.8918427    7.5158744 
   38500   -900.12279    50.493829   -849.62896    1808.5058    -63155.32    1.8918427    6.6601084 
   38600   -903.00451    50.151101   -852.85341    1796.2306   -65619.871    1.8918427    6.7272639 
   38700   -908.95691    48.474037   -860.48287    1736.1642   -74866.573    1.8918427    5.7207242 
   38800   -905.96007    54.670077   -851.28999    1958.0839   -67110.175    1.8918427    6.3631821 
   38900   -902.58732    49.514262   -853.07306    1773.4213   -67823.118    1.8918427    7.0514976 
   39000    -900.1317    54.755663   -845.37604    1961.1493   -61501.593    1.8918427    8.3603182 
   39100   -899.80565    45.690953    -854.1147    1636.4843    -61769.19    1.8918427    7.5413544 
   39200   -902.02905    47.494627   -854.53443    1701.0853   -64343.173    1.8918427    7.0417116 
   39300   -904.25311    53.392705   -850.86041    1912.3331   -66556.173    1.8918427     6.947835 
   39400   -903.34233    49.167765   -854.17457     1761.011    -67931.61    1.8918427     8.066131 
   39500    -900.4722    48.051338   -852.42086    1721.0247   -64495.806    1.8918427     6.674768 
   39600   -899.68342    45.554738   -854.12868    1631.6055   -64790.822    1.8918427    7.6018569 
   39700   -903.72826    46.510918   -857.21734    1665.8524   -67601.967    1.8918427    6.6358445 
   39800   -904.06408    54.620723   -849.44335    1956.3162   -68650.501    1.8918427    7.1323983 
   39900   -903.40628    49.397118   -854.00916    1769.2256    -65056.99    1.8918427    7.0367178 
   40000   -907.43905    47.931317   -859.50773     1716.726   -71296.644    1.8918427    5.4290558 
   40001   -907.34035    47.825919   -859.51443     1712.951   -71182.815    1.8918427    5.3964631 
Loop time of 22.0948 on 1 procs for 40001 steps with 217 atoms

Performance: 78.210 ns/day, 0.307 hours/ns, 1810.424 timesteps/s
98.7% CPU use with 1 MPI tasks x no OpenMP threads

MPI task timing breakdown:
Section |  min time  |  avg time  |  max time  |%varavg| %total
---------------------------------------------------------------
Pair    | 21.548     | 21.548     | 21.548     |   0.0 | 97.53
Neigh   | 0.1502     | 0.1502     | 0.1502     |   0.0 |  0.68
Comm    | 0.16587    | 0.16587    | 0.16587    |   0.0 |  0.75
Output  | 0.011393   | 0.011393   | 0.011393   |   0.0 |  0.05
Modify  | 0.16743    | 0.16743    | 0.16743    |   0.0 |  0.76
Other   |            | 0.05157    |            |       |  0.23

Nlocal:    217 ave 217 max 217 min
Histogram: 1 0 0 0 0 0 0 0 0 0
Nghost:    887 ave 887 max 887 min
Histogram: 1 0 0 0 0 0 0 0 0 0
Neighs:    3633 ave 3633 max 3633 min
Histogram: 1 0 0 0 0 0 0 0 0 0
FullNghs:  7266 ave 7266 max 7266 min
Histogram: 1 0 0 0 0 0 0 0 0 0

Total # of neighbors = 7266
Ave neighs/atom = 33.4839
Neighbor list builds = 270
Dangerous builds = 0
Total wall time: 0:00:22
