LAMMPS (3 Mar 2020)

# ---------- 1. Initialize simulation ----------
units metal
atom_style atomic
dimension 3
boundary p p p
read_data /home/modeler/RemLabs/Project/arrhenius_4/T1800.0/n3_T1800.0_timestep3.000000e-03_eqsteps3200_time600_rseed3336/20201205-151714/lammps.data
  orthogonal box = (0 0 0) to (17.469 17.469 17.469)
  1 by 1 by 1 MPI processor grid
  reading atoms ...
  217 atoms
  read_data CPU = 0.00102561 secs

pair_style meam/c
pair_coeff * * library.meam Li Si LiSi.meam Li Si
Reading potential file library.meam with DATE: 2012-06-29
Reading potential file LiSi.meam with DATE: 2020-11-07

group Li type 1
1 atoms in group Li
group Si type 2
216 atoms in group Si

velocity all create 1800.0 3336 dist gaussian

# ---------- 2. Specify equilibration ensemble  ----------
fix 1 all npt temp 1800.0 1800.0 0.15 tchain 2 iso 1.0 1.0 1.0 pchain 2
# fix 1 all nvt temp 1800.0 1800.0 0.15

# ---------- 3. Run equilibration -------------
timestep 0.003
run 3200
Neighbor list info ...
  update every 1 steps, delay 10 steps, check yes
  max neighbors/atom: 2000, page size: 100000
  master list distance cutoff = 6
  ghost atom cutoff = 6
  binsize = 3, bins = 6 6 6
  2 neighbor lists, perpetual/occasional/extra = 2 0 0
  (1) pair meam/c, perpetual
      attributes: full, newton on
      pair build: full/bin/atomonly
      stencil: full/bin/3d
      bin: standard
  (2) pair meam/c, perpetual, half/full from (1)
      attributes: half, newton on
      pair build: halffull/newton
      stencil: none
      bin: none
Per MPI rank memory allocation (min/avg/max) = 8.895 | 8.895 | 8.895 Mbytes
Step Temp E_pair E_mol TotEng Press Volume 
       0         1800   -951.04357            0   -900.78722   -114161.75    5330.9442 
    3200    1739.5598   -939.46534            0   -890.89649    6254.9157    4635.8614 
Loop time of 2.30653 on 1 procs for 3200 steps with 217 atoms

Performance: 359.605 ns/day, 0.067 hours/ns, 1387.366 timesteps/s
100.0% CPU use with 1 MPI tasks x no OpenMP threads

MPI task timing breakdown:
Section |  min time  |  avg time  |  max time  |%varavg| %total
---------------------------------------------------------------
Pair    | 2.1824     | 2.1824     | 2.1824     |   0.0 | 94.62
Neigh   | 0.071972   | 0.071972   | 0.071972   |   0.0 |  3.12
Comm    | 0.015697   | 0.015697   | 0.015697   |   0.0 |  0.68
Output  | 2.7697e-05 | 2.7697e-05 | 2.7697e-05 |   0.0 |  0.00
Modify  | 0.030982   | 0.030982   | 0.030982   |   0.0 |  1.34
Other   |            | 0.005432   |            |       |  0.24

Nlocal:    217 ave 217 max 217 min
Histogram: 1 0 0 0 0 0 0 0 0 0
Nghost:    949 ave 949 max 949 min
Histogram: 1 0 0 0 0 0 0 0 0 0
Neighs:    4126 ave 4126 max 4126 min
Histogram: 1 0 0 0 0 0 0 0 0 0
FullNghs:  8252 ave 8252 max 8252 min
Histogram: 1 0 0 0 0 0 0 0 0 0

Total # of neighbors = 8252
Ave neighs/atom = 38.0276
Neighbor list builds = 121
Dangerous builds = 0

# ---------- 4. Describe computed properties----------
compute msdli Li msd
compute msdsi Si msd
thermo_style custom step pe ke etotal temp press density c_msdli[4] c_msdsi[4]
thermo 100

# ---------- 3. Run production -------------
timestep 0.003
run 200000
Per MPI rank memory allocation (min/avg/max) = 9.663 | 9.663 | 9.663 Mbytes
Step PotEng KinEng TotEng Temp Press Density c_msdli[4] c_msdsi[4] 
    3200   -939.46534    48.568843   -890.89649    1739.5598    6254.9157    2.1754982            0 4.0501593e-32 
    3300     -942.185    49.630245   -892.55476    1777.5754   -8893.7911    2.1378915   0.21062512   0.12669616 
    3400   -937.33728    54.237677    -883.0996    1942.5969    -2756.504    2.1468355  0.059495913   0.16933858 
    3500   -937.12993    46.064048   -891.06588    1649.8471    14912.748     2.193139   0.20959373   0.16127982 
    3600   -941.78937    48.587996   -893.20138    1740.2458    -7386.817    2.1463513   0.25777224   0.15348918 
    3700   -937.99133     50.95843    -887.0329    1825.1462   -5489.1347    2.1413261   0.26925427   0.14102033 
    3800   -941.39979      49.3832   -892.01659    1768.7271    11106.907    2.1901045  0.092973331   0.12080935 
    3900   -944.57421    48.795824   -895.77839    1747.6894   -952.77057     2.170948  0.033299237   0.14500685 
    4000   -937.10168     47.86026   -889.24142    1714.1809   -6427.7996    2.1363301  0.017626977   0.12361669 
    4100    -936.6685    49.902322   -886.76618    1787.3202    7426.8827    2.1708994   0.14290531    0.1493111 
    4200   -945.23988    49.253911   -895.98597    1764.0965    3461.2756    2.1860613  0.052733412   0.13038014 
    4300   -936.88275    48.724532   -888.15821     1745.136    -8913.259    2.1333508   0.63827838   0.15107347 
    4400   -942.27321    54.949134   -887.32408    1968.0787    1010.1076    2.1613227  0.054068629   0.14817046 
    4500   -942.48975    49.741786   -892.74797    1781.5704    7944.5107    2.1903543   0.11325984    0.1610322 
    4600   -943.18243    50.789968   -892.39246    1819.1125   -7423.2039    2.1509793   0.18968598   0.16787424 
    4700   -936.78982    51.793661   -884.99616    1855.0611   -8906.4632    2.1308323  0.041512227   0.16890749 
    4800   -941.92455    51.154109   -890.77044    1832.1547     8737.098    2.1856789  0.024996798   0.14283087 
    4900   -941.98652     49.29835   -892.68817    1765.6881    4932.2528    2.1732111   0.78463128   0.13393654 
    5000   -933.62304    49.771483   -883.85156     1782.634   -7943.6551    2.1243629   0.18090123   0.15717248 
    5100   -942.90093    50.635768   -892.26516    1813.5896    1750.5203    2.1717988   0.29751145     0.160511 
    5200   -943.62172    51.166513   -892.45521    1832.5989    4780.9913    2.1808287  0.061449271   0.14662346 
    5300   -935.14893    47.965331    -887.1836    1717.9442   -3265.9056    2.1421901   0.11980822   0.13107978 
    5400   -937.50056    51.940728   -885.55983    1860.3285   -4745.8378    2.1440001  0.067495077   0.15485905 
    5500   -941.45899    47.371355   -894.08764    1696.6702    10346.207    2.1911408   0.52524767   0.12406649 
    5600    -939.4782     50.99662   -888.48158     1826.514   -870.22701    2.1525589   0.20665291   0.15364925 
    5700   -940.64552    52.654824    -887.9907    1885.9048   -10804.273    2.1335876   0.39620945   0.15817064 
    5800   -946.16714    49.849119   -896.31803    1785.4147    6226.4568    2.1915793   0.18839939   0.13383367 
    5900   -934.82536    46.474494   -888.35087    1664.5478    7729.1178    2.1700757  0.074606564   0.16216155 
    6000   -937.84471    49.519334   -888.32537    1773.6029   -10547.578    2.1361545   0.02724826   0.15048169 
    6100   -941.54921    47.509212   -894.03999    1701.6077    83.265119    2.1644751  0.033992216   0.14067558 
    6200   -945.27129    51.424889    -893.8464     1841.853    9598.2042      2.19223  0.025185394   0.12908096 
    6300   -940.55337    54.841168   -885.71221    1964.2118   -9026.7255    2.1368897  0.053951614   0.13552342 
    6400   -937.97759    45.408772   -892.56882    1626.3775   -4987.4337    2.1437961   0.14844166   0.15311946 
    6500   -941.79089    50.950299   -890.84059    1824.8549    10119.318    2.1927801   0.10211633   0.14927515 
    6600   -936.56024    55.020501   -881.53974    1970.6348   -2896.8883    2.1468912   0.13999509   0.17773909 
    6700   -939.64495    49.803137   -889.84182    1783.7678   -6714.2873    2.1406056   0.18844717   0.16141146 
    6800   -936.85391    47.673618   -889.18029    1707.4961    5329.4507    2.1726259   0.14265855   0.15528712 
    6900   -939.03741    55.789325   -883.24808    1998.1713     2461.498    2.1600567   0.09579065   0.13325617 
    7000   -940.54051    50.122616   -890.41789    1795.2103   -5758.0735     2.143217 0.0096694849   0.12826335 
    7100   -944.23104    51.377838    -892.8532    1840.1678   -2642.3097    2.1646552   0.10218566   0.13879605 
    7200   -940.62185    52.515557   -888.10629    1880.9168    3473.6868    2.1708595   0.39527164   0.14153165 
    7300   -939.93181    51.853034   -888.07878    1857.1876   -4518.4977    2.1515812   0.20422454   0.16142085 
    7400   -947.12931    49.447563   -897.68175    1771.0324   -503.47897    2.1756444   0.11305392   0.13158591 
    7500   -941.51078    51.046764   -890.46401      1828.31    2020.0677     2.168585  0.030770898   0.14960973 
    7600   -938.19652    50.136989   -888.05953    1795.7251   -2240.6949     2.155616   0.23151459    0.1566765 
    7700   -944.16254     48.58254      -895.58    1740.0504   -4259.5386    2.1619635   0.11934558   0.14805532 
    7800   -945.31538    50.174102   -895.14128    1797.0544    2096.5371    2.1785484   0.19716291   0.13646936 
    7900   -936.66784    48.820647   -887.84719    1748.5785    6053.9183    2.1682022   0.24403828   0.15673205 
    8000   -938.91211     47.41037   -891.50174    1698.0675   -6454.1178    2.1473368   0.18881827   0.14707395 
    8100   -944.24011     45.87045   -898.36966    1642.9132    1564.9701    2.1788478  0.049148034    0.1349865 
    8200   -939.80062    51.690869   -888.10975    1851.3795    6591.8514    2.1764315   0.11557162   0.12832762 
    8300   -939.09181    50.209983   -888.88182    1798.3395   -3548.2811    2.1505985   0.18747083   0.15713017 
    8400    -941.7018    48.775983   -892.92582    1746.9788   -6461.4751    2.1513931  0.060575782   0.14715416 
    8500   -944.80475    48.226638   -896.57812    1727.3033    11396.896    2.1991266   0.36613668   0.15194022 
    8600   -937.64297    52.631317   -885.01166    1885.0629   -5306.1803    2.1415758   0.32928079   0.13049666 
    8700   -938.14214    48.774215   -889.36792    1746.9155   -8188.2226    2.1384298    0.2777714   0.14919178 
    8800   -939.98836     49.32988   -890.65848    1766.8174    11631.812    2.1938024  0.068809625   0.12772297 
    8900   -945.40337    48.616173   -896.78719     1741.255   -2910.5803    2.1654661  0.050759361   0.14040965 
    9000   -933.69952     48.22121   -885.47831    1727.1089   -10436.592    2.1228628  0.049464254   0.15472589 
    9100   -942.08333    54.965793   -887.11754    1968.6754    10485.008    2.1897337   0.16795194   0.14227792 
    9200   -940.44176    49.051282   -891.39048     1756.839     1187.426    2.1642971   0.21659235   0.14229313 
    9300   -941.93626     50.84428   -891.09198    1821.0577   -8261.1852    2.1399414   0.71530545   0.13948317 
    9400   -936.03293    56.165931     -879.867      2011.66    3029.0419    2.1550629   0.18404886    0.1311411 
    9500   -940.14207    52.978908   -887.16316    1897.5124     5148.776     2.168499   0.16578328   0.13514638 
    9600   -943.77076    51.437474   -892.33328    1842.3038   -8662.3396    2.1450529 0.0077532745   0.12691264 
    9700   -938.37924    50.368935   -888.01031    1804.0326    3110.4267    2.1602367   0.11909104   0.12824089 
    9800   -934.06882    54.590725   -879.47809    1955.2418    4545.4726    2.1528187   0.12189522   0.14421292 
    9900   -942.48735    51.812582   -890.67477    1855.7388   -1143.2322    2.1577985   0.16870357   0.13557563 
   10000   -940.01473    48.899125    -891.1156    1751.3893   -4142.4543    2.1482058  0.086204323   0.12089842 
   10100   -942.71186    56.659676   -886.05219    2029.3441    3316.3834     2.167349   0.12757513   0.15435526 
   10200   -938.37183    56.665698   -881.70613    2029.5598   -2120.1436    2.1442148   0.21615606   0.14893405 
   10300   -943.96603     50.56373    -893.4023    1811.0094   -1353.3782    2.1620353   0.10758057   0.12483903 
   10400   -941.91246     50.65871   -891.25375    1814.4113    2006.4874     2.169402   0.12893088   0.14190264 
   10500   -939.78139    51.015378   -888.76601    1827.1858    -1626.135    2.1534198  0.043457155   0.12575694 
   10600   -935.44436    52.463218   -882.98115    1879.0422   -6521.0954    2.1361075 0.0077508774   0.13750111 
   10700   -940.82029    49.187726   -891.63257     1761.726    4032.2123    2.1714504 0.0035964435   0.15304266 
   10800   -942.03301    49.475797   -892.55721    1772.0436   -1298.6489    2.1608217   0.20171648   0.13139036 
   10900   -940.69665    49.974357    -890.7223    1789.9002   -4048.1196    2.1499485   0.39112737   0.12885115 
   11000   -940.05984    52.728547   -887.33129    1888.5453    3335.1545    2.1656653    0.2860693   0.14417043 
   11100   -935.16461    51.173147   -883.99146    1832.8365    5020.5617      2.15707   0.14278218   0.13917726 
   11200   -930.24832    59.803958   -870.44436    2141.9609   -7160.3306    2.1102319    0.1290276   0.13477094 
   11300   -939.91564    57.658972   -882.25667    2065.1353    8321.5088     2.173091  0.071698537   0.14509209 
   11400   -940.13424    53.448246   -886.68599    1914.3223   -2927.4963    2.1494537   0.13217836   0.12415751 
   11500    -940.5219    49.416377   -891.10553    1769.9154   -8191.5823    2.1382683  0.010438268   0.13058502 
   11600    -938.2633    48.695899    -889.5674    1744.1105      9841.29    2.1790151  0.055981736   0.14886258 
   11700   -932.88662    53.915547   -878.97108    1931.0594    4486.8703    2.1559131   0.63866469   0.15748926 
   11800   -934.93685     47.93875    -886.9981    1716.9922   -5830.2913     2.136243   0.16016497    0.1564161 
   11900   -938.40558    47.173221   -891.23236    1689.5737   -176.78902    2.1590559   0.11341709   0.14322819 
   12000   -942.73485    53.810858   -888.92399    1927.3098    7799.2291    2.1832317   0.18052063   0.12541979 
   12100   -932.53973     52.57071   -879.96902    1882.8922   -7016.5307    2.1285457   0.20702726   0.15858855 
   12200   -940.28789    50.465272   -889.82261     1807.483   -3913.5506    2.1508709   0.11415009   0.12747507 
   12300   -946.23904    55.684611   -890.55443    1994.4208    5886.9709    2.1863619   0.41260348   0.13480615 
   12400   -939.00331    49.378765   -889.62454    1768.5683   -35.769053    2.1617099   0.21641025   0.15528192 
   12500   -935.21401    51.731077   -883.48294    1852.8196    -13551.58    2.1173992   0.04906926    0.1652386 
   12600   -942.57473    54.022347   -888.55238    1934.8846     8912.942    2.1863434   0.71303031   0.16255171 
   12700    -943.7717    51.599332   -892.17236     1848.101    6635.4611    2.1840113  0.086472609   0.14863234 
   12800   -938.39245     47.63417   -890.75828    1706.0832   -12321.837    2.1275481   0.10878028   0.13523963 
   12900   -940.13506    51.254841   -888.88021    1835.7625    608.73395    2.1591301   0.33324653   0.13907959 
   13000    -943.8435    46.996349   -896.84715    1683.2388    13509.161    2.2025678   0.17866695   0.13385465 
   13100   -945.84959    49.670776   -896.17882    1779.0271   -8663.1713    2.1533268  0.041566822   0.13655582 
   13200    -940.3642      50.1142      -890.25    1794.9089   -5118.9853    2.1535715  0.098714531   0.15547168 
   13300   -942.73947    53.270191   -889.46927     1907.945    3437.0319    2.1747559   0.29010155   0.14639015 
   13400   -944.19928    48.419462   -895.77982    1734.2095   -1947.6229    2.1660056   0.15296298   0.15180879 
   13500   -942.44966    44.287797   -898.16186    1586.2283   -836.26876    2.1681095   0.25985409   0.15944267 
   13600   -943.82117     54.08432   -889.73685    1937.1042   -993.49896    2.1639167  0.084908735   0.13396942 
   13700    -939.1252    49.158718   -889.96648     1760.687    542.98703    2.1606864  0.088123126   0.14307037 
   13800   -939.66483    47.152806   -892.51202    1688.8425    -756.6398    2.1577539   0.15771919    0.1381094 
   13900   -948.45603    47.246443   -901.20959    1692.1962    3036.3747    2.1899974   0.11195939   0.12810239 
   14000   -944.78729     53.49399    -891.2933    1915.9607   -4252.3072    2.1579178   0.16104325   0.12569037 
   14100   -942.79543    52.866109   -889.92933    1893.4723   -5127.1944    2.1558219   0.14276743   0.14153262 
   14200   -943.78295    54.576565   -889.20639    1954.7347    796.71627    2.1724382  0.046462212   0.14245205 
   14300   -946.75455    48.757693   -897.99685    1746.3237   -3868.4448    2.1673513   0.14167543    0.1417824 
   14400   -941.15965    44.426111   -896.73354    1591.1822   -2720.3515    2.1584497   0.51142168   0.13865978 
   14500   -947.04023    56.488512   -890.55171    2023.2136    216.48421    2.1718371   0.20054853   0.14436567 
   14600   -939.01736    50.074672   -888.94269    1793.4932    1160.1321     2.157858   0.49628319   0.13562915 
   14700   -937.88496     46.11457   -891.77039    1651.6567   -3.3859119    2.1554402   0.16573818   0.14535824 
   14800   -946.81561    49.115183   -897.70043    1759.1277    3207.9519    2.1824181  0.099675046   0.12912373 
   14900   -942.10725    51.781513   -890.32573     1854.626   -2122.7752    2.1632127  0.071627561   0.13427007 
   15000   -940.56456    51.594618   -888.96994    1847.9321   -5017.3532    2.1493913   0.16473777   0.14333563 
   15100   -939.29698    42.350923   -896.94605    1516.8565     4402.428    2.1732808    0.5834777    0.1521583 
   15200   -940.96383    46.367855   -894.59598    1660.7284    6526.0495    2.1815488   0.12371269   0.13586629 
   15300   -939.80127    51.246779   -888.55449    1835.4738    -2507.074    2.1550377    0.1102126   0.15871788 
   15400   -938.79817    47.490961    -891.3072     1700.954    -5886.438    2.1478711   0.06043792   0.15152947 
   15500   -945.35938    47.611755   -897.74763    1705.2804    7569.9016      2.19255   0.24633373   0.13584382 
   15600   -939.18351    52.314621   -886.86888      1873.72   -5.5046588    2.1563862   0.29384133   0.14471251 
   15700   -939.94437    50.732554   -889.21182    1817.0561   -5987.9832     2.147056  0.041768836   0.14194272 
   15800   -943.08697    50.463968   -892.62301    1807.4363    2129.6519    2.1748672   0.22068904   0.13327315 
   15900   -946.05677    48.275857   -897.78091    1729.0661    3320.8531    2.1839687   0.05643503   0.14756325 
   16000   -935.55073    49.689196   -885.86153    1779.6868   -9293.4592    2.1235511   0.13564029   0.15699772 
   16100   -941.44549    52.781495   -888.66399    1890.4417    6672.6818    2.1800706   0.15468487   0.15176447 
   16200   -945.51366    55.010928   -890.50274    1970.2919    6514.5618    2.1858668   0.30967168   0.14066397 
   16300   -939.10815    46.413526   -892.69463    1662.3642   -13846.804    2.1243803   0.12534042   0.15014484 
   16400   -949.48878    45.751011   -903.73777    1638.6353    2614.0527    2.1870049   0.14368568   0.13059402 
   16500   -943.35489    48.706363   -894.64853    1744.4853    9312.9405    2.1902794   0.11931819   0.13611255 
   16600   -938.65601    47.511441   -891.14457    1701.6875   -3263.8659    2.1477976  0.076840168     0.138723 
   16700   -937.52048    48.574722   -888.94576    1739.7704   -779.60499    2.1504281   0.19474496   0.14339544 
   16800   -944.59253    50.394309   -894.19822    1804.9414    2543.7564    2.1789446   0.14742538   0.13616816 
   16900   -943.31044    45.859727   -897.45071    1642.5291     2312.041     2.172288  0.099343616   0.13816524 
   17000   -941.76316    51.299682   -890.46348    1837.3686   -4109.2972     2.154858  0.012278318   0.14381918 
   17100   -938.43148    49.658612   -888.77287    1778.5914    1034.1679     2.162809   0.16502378   0.16269219 
   17200   -944.92705    47.604338   -897.32272    1705.0148   -396.47736    2.1740973  0.050878091   0.14817715 
   17300   -942.73566    48.009718   -894.72594     1719.534    -1315.736    2.1660173   0.20749161   0.13506176 
   17400   -938.09178    49.510712   -888.58107    1773.2942    1027.3553    2.1585785   0.19517338   0.14105464 
   17500    -942.2464    51.145744   -891.10065    1831.8551   -2320.7992    2.1588808  0.028162355   0.13768145 
   17600   -945.65643    46.605335    -899.0511    1669.2341    1205.3398    2.1765443   0.18473712   0.14415032 
   17700   -939.66002     49.77316   -889.88686    1782.6941   -383.47116    2.1588509   0.11077307    0.1476918 
   17800   -938.77628    50.008364   -888.76791    1791.1182    5098.6845     2.168733   0.51463559   0.14150313 
   17900   -936.52636    44.447662   -892.07869    1591.9541   -59.568893    2.1544388   0.28548328    0.1544765 
   18000   -940.78612    47.043768   -893.74235    1684.9372   -5037.9321     2.153272   0.22995254   0.14266337 
   18100   -941.24405    57.922552    -883.3215    2074.5758    8239.2766    2.1849561   0.59092822   0.15604133 
   18200   -935.58367    50.588555   -884.99512    1811.8986    1363.2606    2.1569642   0.13970568   0.15142701 
   18300   -938.26042    48.310816    -889.9496    1730.3182    -13836.44    2.1220116   0.18963599   0.12757958 
   18400   -945.21521    55.074122   -890.14109    1972.5553    3526.3313    2.1785163   0.14803519   0.13390721 
   18500   -944.32403    46.882953   -897.44108    1679.1774    8238.7902    2.1894407   0.16885424   0.12815221 
   18600   -946.49968    48.077906   -898.42177    1721.9762   -10031.664    2.1483453   0.22984876   0.11864954 
   18700   -941.75383    50.545255   -891.20857    1810.3477   -1850.7926    2.1570795   0.20237237   0.12635391 
   18800   -941.08301    51.635219    -889.4478    1849.3863    8062.1892    2.1797536   0.10539149   0.13243574 
   18900   -939.43713    48.103448   -891.33369    1722.8911   -804.36236    2.1578824   0.24802741   0.13993411 
   19000   -949.45639    47.783929   -901.67246    1711.4471   -7031.2013    2.1661852   0.12863527   0.13671925 
   19100   -944.36739    49.854251   -894.51314    1785.5985    1894.0047    2.1771248   0.11238979   0.13352466 
   19200   -940.44269    51.171553   -889.27113    1832.7795    5441.8737    2.1760054   0.13635046   0.13073943 
   19300   -938.03879    47.731314   -890.30747    1709.5626    -6978.959    2.1411294   0.25734039   0.14371455 
   19400   -944.32958    45.810378    -898.5192    1640.7616   -2121.0921    2.1709298  0.039361602   0.14007305 
   19500   -944.61032    48.922145   -895.68818    1752.2138    11048.092    2.1967036  0.072929716   0.14043203 
   19600   -939.96338    50.375411   -889.58797    1804.2645   -3845.8209    2.1514436  0.031493543     0.144119 
   19700    -933.7547    43.175779   -890.57892    1546.3998   -9010.7771    2.1357529  0.039261303   0.15956589 
   19800   -946.17017    50.852816   -895.31736    1821.3634    10668.399    2.2036131   0.20654208   0.14371787 
   19900   -948.02944    48.829512   -899.19993     1748.896    7199.6347     2.197772   0.18946627   0.13217056 
   20000   -939.99966    49.536857    -890.4628    1774.2306   -21085.023    2.1114739  0.098091549   0.16265223 
   20100   -944.07855    54.157959   -889.92059    1939.7417    139.03595    2.1713201  0.011223048    0.1533172 
   20200    -938.5513    46.800275   -891.75102    1676.2161    12415.276    2.1927901  0.080303836   0.13352278 
   20300     -936.436    56.218662   -880.21734    2013.5486   -8924.3381    2.1250431  0.029123002   0.16506184 
   20400    -940.0843    52.443976   -887.64033     1878.353    290.60458    2.1604017   0.54270813   0.15317022 
   20500   -938.30356    47.469454    -890.8341    1700.1837    5933.3031    2.1670027    0.4381162   0.14502675 
   20600   -939.79847    49.867424   -889.93105    1786.0703   -1418.0234    2.1541999   0.50656947   0.15104495 
   20700   -933.16295    54.068452    -879.0945    1936.5359   -2366.5713    2.1340182    3.0652797   0.19619916 
   20800   -937.70498    48.525823   -889.17916     1738.019    6734.2864    2.1731944    6.2582563   0.19715502 
   20900   -936.57657    45.978277    -890.5983    1646.7751   -2242.6294    2.1509444    12.211773   0.19118138 
   21000    -938.3854    53.979656   -884.40575    1933.3555   -6071.2679     2.141409    5.8059569    0.1780564 
   21100   -939.24627    54.363816   -884.88245    1947.1147    5121.9966    2.1701226    5.4431089   0.17892247 
   21200   -940.37147    48.958348   -891.41313    1753.5105   -272.46071    2.1657105    3.1356738   0.17573269 
   21300   -939.30399    49.921214   -889.38278    1787.9968   -4435.1612    2.1503999    7.2873379   0.17587723 
   21400   -937.50509    51.966951   -885.53814    1861.2677    1360.6372     2.159566    1.8852102   0.18041123 
   21500   -941.79527    47.853857   -893.94141    1713.9516    2178.8729     2.172913    2.7064389   0.16367967 
   21600   -941.85199    48.259372   -893.59262    1728.4757    -8087.034    2.1459508   0.42966485   0.13055414 
   21700   -942.68242    54.864402   -887.81801    1965.0439     6136.141    2.1757918    10.712298   0.14139112 
   21800   -940.60521    52.597821   -888.00739    1883.8632    3710.5027    2.1680792    3.7344828   0.15773143 
   21900   -945.73658     48.02729   -897.70929    1720.1634   -9708.1773    2.1453159     6.158483   0.16773241 
   22000    -939.4332    49.366928   -890.06627    1768.1443    4799.9579    2.1625303    4.1796057   0.17469486 
   22100   -936.83175    51.894082   -884.93767    1858.6578    12417.512    2.1828746    1.0625705   0.18407323 
   22200   -944.19189    50.835313   -893.35658    1820.7366   -10200.304    2.1467888   0.15651572   0.14362676 
   22300   -941.49796    47.478385   -894.01957    1700.5036   -4744.0043    2.1482466   0.15481707   0.13643678 
   22400   -941.06101    56.165961   -884.89505     2011.661    6624.8694    2.1794171  0.031902199   0.14032683 
   22500   -941.32399    50.581614   -890.74237      1811.65    197.85352    2.1636951 0.0027171682   0.13019106 
   22600   -942.77648    47.307129   -895.46935    1694.3698   -7872.6517    2.1507325  0.090439733   0.12930602 
   22700   -938.51831    52.833902   -885.68441    1892.3188    3921.5904    2.1666387   0.08864416   0.14784881 
   22800   -936.00202    48.999444   -887.00257    1754.9824    7731.1368    2.1726632   0.12620352    0.1446552 
   22900   -941.00294    47.010404   -893.99254    1683.7422   -4668.6097    2.1519528   0.32275655   0.14716194 
   23000   -936.28924    49.193674   -887.09556     1761.939   -28.252247    2.1566187   0.32138459   0.15747008 
   23100   -937.33152    52.678325    -884.6532    1886.7466    3369.2268    2.1643316  0.046216601   0.15132567 
   23200   -938.55221    45.125527   -893.42668    1616.2327    705.61115    2.1650559   0.16506752   0.15690561 
   23300   -942.80788    53.596986   -889.21089    1919.6497   -3629.0691     2.155051  0.054356542   0.13975985 
   23400   -935.38282    52.641782   -882.74104    1885.4377     2836.855    2.1512528   0.24734727   0.14961968 
   23500   -945.35363    51.407068   -893.94657    1841.2148    3508.7621    2.1762146   0.24030264    0.1499793 
   23600   -940.19442    48.472702   -891.72171    1736.1164   -5170.3443    2.1525954   0.29112677   0.15591966 
   23700   -938.22793    51.431675   -886.79625    1842.0961    698.66918    2.1573714   0.14992321   0.15892106 
   23800   -943.19646     47.85004   -895.34642    1713.8149    5430.4182    2.1816761  0.052964901   0.15245797 
   23900   -941.36097    46.905109   -894.45586    1679.9709   -4092.7296    2.1543023   0.10878341   0.15500811 
   24000   -943.48041     54.48866   -888.99176    1951.5862   -4011.8356    2.1554282   0.19701755   0.15415132 
   24100   -940.50165    50.763699   -889.73795    1818.1716    9097.6698    2.1825043  0.032792985     0.140245 
   24200   -946.38954    47.689031   -898.70051    1708.0482   -2509.7806    2.1641967   0.18197229    0.1380588 
   24300   -938.59304    48.523774   -890.06927    1737.9456   -10002.664    2.1320286   0.47657228   0.16370765 
   24400   -939.72365    52.705285   -887.01836    1887.7122    12070.496    2.1869844  0.089364979   0.17954632 
   24500   -941.70671    47.403983   -894.30273    1697.8387    4770.4027    2.1799309    0.9350023   0.15310345 
   24600   -940.31441    51.307931   -889.00647     1837.664   -11316.584    2.1271093   0.13624566   0.14154446 
   24700   -939.36063    54.092305   -885.26832    1937.3902    2131.6307    2.1596699   0.10577101   0.14882472 
   24800   -941.12274    50.441693   -890.68105    1806.6385    6007.9135    2.1745845   0.41958652   0.14288863 
   24900   -940.13152     46.00221   -894.12931    1647.6323   -2387.3694    2.1508157  0.060393216   0.14675099 
   25000   -933.97606    50.379368   -883.59669    1804.4063   -1623.4649    2.1420006   0.06903203   0.15887171 
   25100    -940.5966    51.903632   -888.69297    1858.9999    8718.1767    2.1795783  0.091463618   0.13422054 
   25200    -943.9956    50.824278   -893.17132    1820.3413     -4320.87    2.1545689    0.1656173   0.14213061 
   25300   -938.84573     52.21577   -886.62996    1870.1795   -5862.4483    2.1412547   0.11486806   0.15124245 
   25400   -935.29013    51.823705   -883.46642    1856.1372    7607.7803    2.1689734  0.024008789   0.14217367 
   25500   -942.47187    49.270586   -893.20128    1764.6937    3724.5099    2.1728965    0.3564878   0.13614286 
   25600   -940.84931    50.260125   -890.58919    1800.1354   -9291.3385     2.138695   0.17210903   0.13504848 
   25700   -937.93019    52.603601   -885.32659    1884.0702      1066.05    2.1581922   0.16991383   0.15128013 
   25800   -945.64122    50.246054   -895.39516    1799.6314     13848.99    2.2039088   0.35800186   0.15038967 
   25900   -939.26312    47.032304   -892.23081    1684.5266   -17585.851    2.1166389   0.16944066   0.16503879 
   26000   -939.49081    50.232402    -889.2584    1799.1425   -4639.2765     2.148382   0.15322674   0.15404039 
   26100   -945.38608    57.412703   -887.97338    2056.3148     17584.53    2.2162758   0.17284582   0.15313314 
   26200   -942.09201    45.091658   -897.00035    1615.0197   -8752.3762     2.147241  0.026516297   0.14169492 
   26300   -939.60075     48.31021   -891.29054    1730.2965   -5603.9247    2.1470186  0.043364845   0.14670295 
   26400   -936.72715    50.148062   -886.57909    1796.1217    8856.0665    2.1767441  0.099451923   0.16415432 
   26500   -941.49228     49.19308    -892.2992    1761.9177   -1566.0219     2.162106    0.3393737   0.13822791 
   26600   -940.66558    48.206892   -892.45869     1726.596   -5980.3891    2.1515886   0.11183147   0.16445892 
   26700    -936.0871    53.340645   -882.74646    1910.4684   -568.58461    2.1506712   0.21722678   0.16294715 
   26800   -941.31082    51.744484   -889.56633    1853.2998    4022.6839    2.1701763   0.19023924   0.14676225 
   26900   -939.80671    46.984519   -892.82219    1682.8151   -767.50015    2.1551144   0.11479536   0.14758532 
   27000   -934.22587    50.641095   -883.58478    1813.7804    522.91777    2.1459959   0.18148124   0.15697682 
   27100   -940.19039    51.808567   -888.38182     1855.595    3305.9564    2.1687093   0.16900532   0.15045363 
   27200   -942.60242    49.818863   -892.78356     1784.331   -3583.4796    2.1551451   0.24662793   0.13845387 
   27300   -937.17219    49.363996    -887.8082    1768.0393   -443.91214    2.1517402   0.42867438   0.13524485 
   27400   -937.39522    54.701742   -882.69348     1959.218    3887.3855    2.1627719   0.30439106   0.16537523 
   27500   -940.05143    46.230546   -893.82089    1655.8105    3346.9042    2.1732205   0.14983827   0.17074993 
   27600   -941.24433    49.441036   -891.80329    1770.7986   -12595.086    2.1312296   0.43323942   0.16803012 
   27700   -937.70615     50.67748   -887.02867    1815.0836     6306.624    2.1676981   0.14883743   0.13455864 
   27800    -941.6375    46.098683   -895.53882    1651.0877    11430.668     2.195056   0.50968722   0.12889766 
   27900   -942.08393    46.808727    -895.2752    1676.5188   -10790.936    2.1361398   0.28004157   0.13164815 
   28000   -938.79018    49.621748   -889.16843    1777.2711    1370.3478    2.1581955  0.054841095   0.14117678 
   28100    -939.4734     50.00557   -889.46783    1791.0182    9706.0779    2.1842331   0.29025384   0.15431254 
   28200   -945.57955     48.45448   -897.12507    1735.4638   -7169.5637    2.1557478   0.30397976   0.14045124 
   28300   -940.84779    48.993988   -891.85381     1754.787   -2077.9583     2.157249   0.23601126   0.14301361 
   28400   -940.30045    52.998941   -887.30151    1898.2299    5832.6864    2.1752295   0.10782365   0.13105091 
   28500   -943.09511    51.350311    -891.7448    1839.1819   -3525.6883     2.155686  0.082351594   0.14038926 
   28600   -941.86422    50.096659   -891.76756    1794.2806   -3334.4625    2.1565776  0.033906792   0.14399532 
   28700   -935.37653    53.608284   -881.76824    1920.0543    1169.3154    2.1476025  0.058769471   0.15369368 
   28800   -939.24329    50.151846   -889.09145    1796.2572    2764.4355    2.1620626  0.053569904   0.12460445 
   28900   -942.86291     50.25929   -892.60362    1800.1055   -2178.1782    2.1562127    0.1235113   0.11169633 
   29000   -935.70587     50.84127    -884.8646    1820.9499    2378.1642    2.1537756   0.19732394   0.15299773 
   29100   -936.60996    50.721658    -885.8883    1816.6658     1239.634    2.1553257   0.26933823   0.17325522 
   29200   -941.30005    48.469672   -892.83037    1736.0079   -2519.9922    2.1569094   0.14581441   0.15238173 
   29300   -937.24929      48.7834   -888.46589    1747.2445    4978.5655    2.1629227   0.18368933   0.15282768 
   29400   -934.18776     52.01864   -882.16912     1863.119    821.01905     2.147014  0.063428325   0.13369287 
   29500   -938.58686    45.551216   -893.03565    1631.4794    208.47521    2.1606882    5.0223927   0.16100851 
   29600   -938.30956    47.594096   -890.71546    1704.6479     -2457.59    2.1479769    5.1330319   0.15891123 
   29700     -934.977    50.441376   -884.53563    1806.6272    8183.3213    2.1620538    6.1593968   0.16281185 
   29800   -938.35494    45.532454   -892.82248    1630.8074    2911.6005    2.1599193     5.370558   0.17982183 
   29900   -941.57906     47.99121   -893.58785    1718.8711   -11538.323     2.132876    5.8548897   0.17367173 
   30000   -935.62197     49.50536   -886.11661    1773.1025    12363.482    2.1797932     3.760142   0.16971741 
   30100   -940.60248     50.94083   -889.66165    1824.5158    3277.0828    2.1664818    5.2101473    0.1631055 
   30200   -946.02802    48.905243   -897.12278    1751.6084   -13821.527    2.1405106    5.3276027   0.16224482 
   30300   -938.75349    51.240631   -887.51286    1835.2536     2827.769    2.1561882    10.346742   0.17729839 
   30400   -940.87186    54.609572   -886.26229    1955.9168    9030.1626    2.1796993    6.2498421    0.1546251 
   30500    -943.7084    49.107097    -894.6013    1758.8381   -7262.6285    2.1458487    2.3111695   0.15127807 
   30600   -935.62028     48.72906   -886.89122    1745.2982   -1753.5878    2.1396707    3.5447955   0.16309242 
   30700   -934.68017     52.06336   -882.61681    1864.7208     8825.302    2.1659142    3.1769868   0.14484669 
   30800   -934.86443    43.108905   -891.75553    1544.0047    2766.9501    2.1576768    4.7173312   0.16746193 
   30900   -937.74873    47.758141   -889.99059    1710.5234   -5250.2938    2.1416215    5.5624762   0.17717443 
   31000   -936.70919    54.897839   -881.81135    1966.2415    3939.8692    2.1552469    4.2223723   0.17207926 
   31100   -940.16872    48.846046   -891.32267    1749.4882    3731.7303    2.1711351    3.7801398   0.16485106 
   31200   -940.92372    49.486387   -891.43733    1772.4229   -7970.5588    2.1433641    3.2892816   0.15058672 
   31300   -935.75307    52.716633   -883.03644    1888.1186   -2003.6221    2.1439937    4.1141785   0.16941482 
   31400   -943.81813    52.064222   -891.75391    1864.7516    3503.0091    2.1767662    3.7691341   0.15396637 
   31500   -937.82136    45.963944   -891.85742    1646.2618   -535.59771     2.151605    4.2041671    0.1830535 
   31600   -935.34313    51.335438   -884.00769    1838.6492    1166.2118    2.1491768    2.5369921   0.16969916 
   31700    -940.6495    48.212078   -892.43742    1726.7818    3971.2919    2.1756911    4.5243832   0.14930825 
   31800   -941.75459    49.583816   -892.17078    1775.9125    -2394.978    2.1564656      5.84807   0.16263852 
   31900   -938.69402    52.983514    -885.7105    1897.6773   -4130.7921    2.1438061     3.652391   0.18082072 
   32000   -943.68446    50.692407   -892.99206    1815.6182   -600.22697    2.1653048    9.2081653   0.14587538 
   32100   -942.55803    49.388738   -893.16929    1768.9255    2320.6426    2.1675703    4.1054105   0.16462022 
   32200   -936.56566    50.925159    -885.6405    1823.9545   -3715.0415     2.144301    4.8818985   0.16341596 
   32300   -937.44506    45.633635   -891.81143    1634.4313    420.11625    2.1552278    4.8431969   0.15721669 
   32400     -943.877     50.70539   -893.17161    1816.0832    2233.1276    2.1728275    3.8898877   0.13277926 
   32500    -939.5216    55.690281   -883.83132    1994.6239   -3833.4044    2.1450715     3.269053   0.15530874 
   32600    -936.6023    45.718518   -890.88378    1637.4715    1647.8687    2.1539919    8.4388099   0.16976536 
   32700   -941.25671    49.769145   -891.48757    1782.5503    1348.5034    2.1686855    7.0129656   0.18210064 
   32800   -935.57071    54.906602   -880.66411    1966.5554   -768.96578    2.1434684    2.8231397   0.17975537 
   32900   -939.90735    50.702628   -889.20472    1815.9843   -2917.5258    2.1502632    3.6880326   0.15766188 
   33000   -938.05744    46.907725   -891.14972    1680.0646     1095.862    2.1568492    4.6301279   0.17006856 
   33100   -937.03063    53.183544   -883.84709    1904.8417    1493.9588    2.1528991    2.9014627   0.17710783 
   33200   -938.49401     51.79758   -886.69643    1855.2015    -4923.738    2.1413177    3.4657802   0.16249547 
   33300   -943.59224    52.098181   -891.49405    1865.9679    -5813.541    2.1521942    16.624596   0.16074631 
   33400   -936.09564    50.317783   -885.77786    1802.2005    7893.7437    2.1743483    12.538169    0.1745633 
   33500   -935.97352    50.596516   -885.37701    1812.1837    120.73593    2.1510329    13.936938   0.15708958 
   33600   -943.93412    48.415115     -895.519    1734.0539   -1525.9467    2.1664873    12.718412   0.15365554 
   33700   -947.46701    56.958975   -890.50803    2040.0639    1035.4356    2.1736612    14.533826   0.14129484 
   33800   -937.83958    50.508203   -887.33138    1809.0207    502.30215    2.1555524    14.583517   0.15307168 
   33900   -939.81147    46.364119   -893.44735    1660.5946   -3561.4594    2.1529337    14.309203   0.15304853 
   34000    -943.5524    48.056546   -895.49585    1721.2112    5926.4199    2.1819362    14.435965   0.13810403 
   34100   -940.86749    52.584033   -888.28345    1883.3694    4114.2609    2.1687023     12.55265    0.1220696 
   34200   -937.23966    46.638044   -890.60161    1670.4056    -10066.85    2.1331863    15.940601   0.15152516 
   34300   -946.17736    46.918974   -899.25839    1680.4675    1512.2688    2.1771507    14.983522   0.12909725 
   34400    -938.0327    46.694558   -891.33814    1672.4297     12854.28    2.1867358    10.037737   0.16676704 
   34500     -939.114    50.220954   -888.89305    1798.7324   -5643.0021    2.1423856    14.972156   0.15953793 
   34600   -936.39332    46.403488   -889.98984    1662.0046   -8412.7459    2.1311028    16.756557    0.1605699 
   34700   -941.37771    45.896384   -895.48133     1643.842    15137.555    2.1996991    16.587951   0.16139045 
   34800   -944.24081    46.088129   -898.15268    1650.7096    6887.6731    2.1884015     15.31801   0.14999691 
   34900   -938.93734    48.001401   -890.93594    1719.2361   -12740.742    2.1203465    15.569134   0.14241951 
   35000   -939.15837    50.082905   -889.07546     1793.788    2155.2352    2.1666423    26.287896   0.18444425 
   35100    -934.0044     44.63162   -889.37278    1598.5428    8638.0552      2.17917    24.493808   0.18118482 
   35200   -931.49017     53.47891   -878.01126    1915.4206    -6119.212    2.1269246    27.411267   0.19731697 
   35300   -936.26821    50.166086   -886.10213    1796.7673    1528.1666     2.156084    34.239498   0.19952074 
   35400    -940.1669    50.778316   -889.38858    1818.6951    1156.3239    2.1633541    32.795512    0.1814822 
   35500   -937.73242    46.893749   -890.83867     1679.564    455.09917    2.1534739    37.914678   0.16124162 
   35600   -933.39217    52.636568    -880.7556     1885.251    2864.3482    2.1508005    31.610069   0.17465304 
   35700   -935.48267    51.196379   -884.28629    1833.6686    5140.8588    2.1635728    40.703584   0.16831075 
   35800   -936.78167    46.372453   -890.40922    1660.8931   -5675.2255    2.1362373    47.226453   0.14869467 
   35900   -937.53532    50.015207   -887.52011    1791.3633    4416.6453    2.1652759    36.517904   0.15700268 
   36000   -929.61637    52.287197   -877.32917    1872.7378      10780.3    2.1617837    40.503099   0.17697049 
   36100   -938.02538     50.18256   -887.84282    1797.3573   -5759.6361    2.1423028     30.47701   0.17294894 
   36200   -938.21168    47.316627   -890.89505      1694.71   -6073.2011    2.1421015    32.896731   0.17468995 
   36300   -936.93069     51.12841   -885.80228    1831.2342    11292.053     2.177902    25.609412   0.17098527 
   36400   -932.33055    51.209029   -881.12152    1834.1217    4150.7555    2.1519794    30.610721   0.17476392 
   36500    -936.6482    44.669041   -891.97916     1599.883      -7184.6    2.1365046    29.974368   0.15160616 
   36600   -941.20996    50.517358    -890.6926    1809.3486   -319.93485    2.1619684    29.312573   0.16727379 
   36700   -942.42823    56.130906   -886.29732    2010.4055    10116.762    2.1866363    16.421103   0.15987979 
   36800   -937.41108    46.491774   -890.91931    1665.1667   -11525.382    2.1241852    29.229421   0.17871293 
   36900   -943.04526    45.398528   -897.64673    1626.0106   -11401.503    2.1422825    26.293733    0.1569516 
   37000   -940.09481    52.709826   -887.38499    1887.8748    18954.454    2.2082422    27.108625   0.15452914 
   37100   -936.72814    49.451826   -887.27632    1771.1851   -2441.6568    2.1483625    25.980063   0.16884902 
   37200   -941.54004    49.814651   -891.72539    1784.1801     -7542.56    2.1407768    29.681628   0.16821764 
   37300   -941.34869     49.68903   -891.65966    1779.6809    6933.2206    2.1838632    27.003788   0.18708265 
   37400   -933.98834    50.328777   -883.65956    1802.5943    1869.7102    2.1528084    23.660699     0.175565 
   37500   -939.58698    48.215774    -891.3712    1726.9142   -5190.7208    2.1456499    28.750498   0.17353167 
   37600   -941.68139    51.279721   -890.40167    1836.6537    1678.4233    2.1712828    25.478961   0.16158434 
   37700   -940.38652    58.460785   -881.92573    2093.8533    558.43887    2.1619717    31.453771   0.15597837 
   37800   -939.32897    47.796514   -891.53245    1711.8978   -2966.1456    2.1546753    33.069122   0.16923909 
   37900   -938.09366    47.835612   -890.25804    1713.2982   -413.69496    2.1567892    30.061086   0.16498344 
   38000   -935.65936    52.874371   -882.78499    1893.7682    4753.0033    2.1634973    28.825261   0.16579343 
   38100   -941.56735    50.014922   -891.55242    1791.3531   -874.93036    2.1634125    28.618916    0.1742104 
   38200   -941.60934    48.676243    -892.9331    1743.4065   -9444.7194    2.1423905    29.495216   0.18509023 
   38300   -936.56894    49.801317   -886.76762    1783.7026    11559.147    2.1825481    27.111195   0.16321189 
   38400   -939.08957    46.047347   -893.04223     1649.249    6868.9414    2.1818563    27.900794   0.15523496 
   38500   -945.63687    48.116848   -897.52002     1723.371   -14032.025    2.1397081    30.201933   0.13325689 
   38600    -941.6003    51.751044   -889.84926    1853.5347    1798.4175    2.1702371    29.969183   0.14634953 
   38700   -941.37509    53.222823   -888.15226    1906.2485    8509.3605     2.187281    36.387587   0.16995309 
   38800   -939.81777    47.232417   -892.58535    1691.6939   -5815.9351    2.1472309    31.634925   0.15788523 
   38900   -943.51453    44.966726    -898.5478     1610.545   -2698.9886    2.1703712    32.183555   0.16180906 
   39000   -937.97538    49.238003   -888.73738    1763.5267    3674.0065       2.1708     32.56405   0.17601609 
   39100   -939.65907    51.741681   -887.91739    1853.1994   -3105.1812      2.15239    35.305658   0.17209256 
   39200    -938.9719     52.15348   -886.81842    1867.9485   -2018.2248    2.1511473     35.47081   0.16721458 
   39300   -943.36934     45.43617   -897.93317    1627.3588    3197.3306    2.1813658    34.320014   0.14125193 
   39400   -940.09053    48.209156   -891.88138    1726.6771    -3874.756    2.1538572    32.490833   0.15911229 
   39500   -937.59301    50.860276   -886.73273    1821.6306    319.46144    2.1533617    18.791998   0.15985162 
   39600   -938.58406    51.035883   -887.54817    1827.9203    2223.2014    2.1645041    21.530013   0.15527959 
   39700   -937.93488    40.221797   -897.71308    1440.5989    2029.2779    2.1704868    25.481513     0.141297 
   39800   -938.15067    47.800943   -890.34972    1712.0564   -4594.2362    2.1465728    20.731419   0.14697703 
   39900   -939.05818    51.436787   -887.62139    1842.2792    5948.0955    2.1722364    19.815882   0.14950373 
   40000   -941.37857    45.581411   -895.79716    1632.5608    4092.8533    2.1766191     21.30493   0.14646893 
   40100   -937.31415    47.228321   -890.08583    1691.5472   -5338.2859      2.14403    20.380541    0.1548495 
   40200   -933.68881    46.714748   -886.97406    1673.1529     5972.229    2.1616677    14.173262   0.17229283 
   40300   -938.79062     48.87042    -889.9202    1750.3612     7051.248    2.1756146    6.7202631     0.168734 
   40400   -937.63511    49.732573   -887.90254    1781.2404   -2407.8474     2.150351    13.930773   0.16804295 
   40500   -932.90584     50.99647   -881.90937    1826.5086   -6018.3383    2.1257235    16.996585   0.16960794 
   40600   -939.05638    49.895774   -889.16061    1787.0857    9710.2485    2.1891314    15.800851   0.13837892 
   40700    -941.2408    50.598596    -890.6422    1812.2582    3771.1776    2.1715217    18.408581   0.12883951 
   40800   -933.43365    49.966679   -883.46697    1789.6253   -13427.003    2.1109845    18.456594   0.14268803 
   40900   -938.62165    56.891454   -881.73019    2037.6455    2336.1072    2.1633555     14.91933   0.16201501 
   41000   -943.22744    54.689502   -888.53794    1958.7796    9239.7583     2.192383    15.834023   0.16835506 
   41100   -939.60406    48.614098   -890.98996    1741.1807   -10512.397    2.1339037    15.087533    0.1668033 
   41200   -938.14127    50.600152   -887.54112    1812.3139   -2545.0596    2.1493973     13.70426   0.15667804 
   41300   -935.70658    59.439977   -876.26661    2128.9244    10302.149    2.1694933    15.035486   0.14760126 
   41400   -939.82612    53.032979   -886.79315     1899.449   -2475.1442    2.1513281    15.638609   0.14696023 
   41500   -937.84925    47.121492   -890.72775     1687.721   -6689.3909    2.1425591    14.604381   0.14934131 
   41600   -939.35192    49.426943   -889.92498    1770.2939    6841.8307    2.1759225    16.453067   0.15063254 
   41700   -939.45692    50.405157   -889.05176    1805.3299    3434.1923    2.1656486    12.995096   0.15232958 
   41800   -932.31084    54.197929   -878.11291    1941.1733   -9644.5227    2.1133554    14.743569   0.17081438 
   41900   -938.92027    51.873278   -887.04699    1857.9127    6873.2423     2.171636     12.65612   0.16570312 
   42000   -939.06291     49.08822   -889.97469     1758.162    5336.6542    2.1698945    13.297942   0.16451146 
   42100   -940.25511    47.627444   -892.62767    1705.8423   -4331.0163    2.1445669    15.758988   0.14284675 
   42200   -944.81246    49.079223   -895.73324    1757.8398    1554.7614    2.1735995    12.971284   0.15838159 
   42300   -949.56421     45.72884   -903.83537    1637.8412    8700.8641    2.2048594    12.214397   0.12791601 
   42400   -944.58352    50.361732   -894.22179    1803.7746   -9598.4912    2.1437061     14.32843   0.12123955 
   42500   -942.70701    51.407859   -891.29915    1841.2431   -2893.9016    2.1569013    15.284844   0.12413023 
   42600    -939.6357    52.493869   -887.14183      1880.14    9539.9989    2.1805269    15.487875   0.13453865 
   42700   -943.21322    50.405255   -892.80796    1805.3334   -5809.9971    2.1517969    13.092047   0.15457622 
   42800   -941.48495    45.075988   -896.40896    1614.4584     -173.098    2.1654026     13.29061   0.18220914 
   42900   -940.40368    51.905856   -888.49782    1859.0795    3392.2786     2.171286    12.606908   0.16589525 
   43000   -940.41493    50.241852   -890.17308    1799.4809   -2023.3165    2.1566219    13.421006   0.14408627 
   43100   -945.78364    46.479887   -899.30375     1664.741   -2656.9896    2.1716505     14.82137   0.13187565 
   43200   -941.20351    50.237391   -890.96612    1799.3211   -192.17107    2.1656515    16.177536   0.14161711 
   43300   -937.40928    48.876917   -888.53236    1750.5939    4847.7293      2.16661    12.501901   0.14842309 
   43400    -944.7194    51.095406   -893.62399    1830.0521   -3998.7371    2.1599228    15.167657   0.12337771 
   43500   -940.99912    42.987558   -898.01156    1539.6584    1229.2517    2.1699415    13.228433   0.14544396 
   43600   -936.70328    49.533388    -887.1699    1774.1063    185.76014    2.1506375    14.617625   0.14620928 
   43700   -940.59434    51.171529   -889.42281    1832.7786    3317.8253    2.1662665    15.790822   0.15728133 
   43800   -940.84861    47.752184   -893.09642    1710.3101    1304.7102    2.1638982    14.779146   0.14139897 
   43900   -935.86972    50.325473   -885.54424    1802.4759   -1926.5461    2.1464842    14.794241   0.13730172 
   44000   -936.20386    51.565191   -884.63867    1846.8781    4804.8959    2.1644104    13.474377   0.14646917 
   44100   -939.29688    48.668879     -890.628    1743.1428    889.40328    2.1610364    15.533424   0.12764499 
   44200   -939.10403    46.903204   -892.20083    1679.9027   -3010.8669     2.155501    12.508831   0.14579878 
   44300   -935.54844     54.07064    -881.4778    1936.6142    5522.5966     2.162637    17.869587   0.16500372 
   44400   -940.06739     52.54286   -887.52453    1881.8947    5355.5127    2.1741985    16.361178   0.14467175 
   44500   -940.77095    47.935076   -892.83587    1716.8606   -10045.504    2.1410631    12.372437   0.15973587 
   44600   -938.16549    50.759645   -887.40584    1818.0264    3915.4943    2.1651373    15.200531   0.15480533 
   44700   -940.97972    57.308451   -883.67127    2052.5809     6328.261     2.178586    12.978587   0.15486627 
   44800    -940.9708    46.379386   -894.59141    1661.1414   -4994.9196    2.1563686    16.358348   0.14918084 
   44900   -942.65682    50.324213    -892.3326    1802.4308   -8701.5151    2.1451158    16.249804   0.14761098 
   45000   -939.33623    52.012521    -887.3237    1862.8999    9793.4066    2.1820812    13.950259   0.15885028 
   45100    -938.5315    46.080641   -892.45086    1650.4415    419.26809     2.163029    13.805261   0.15687931 
   45200   -941.89359    43.625732   -898.26785    1562.5155   -7890.7284    2.1536359    34.950103   0.16434114 
   45300    -934.3166    45.387161   -888.92944    1625.6035    5572.6595    2.1668703    31.993727   0.16632119 
   45400   -938.39488    50.502069   -887.89281     1808.801    2301.8579    2.1680143    20.355616   0.19661205 
   45500   -939.59363    47.479053   -892.11458    1700.5275   -2681.2406     2.156722    14.127878   0.18488176 
   45600   -943.87309     47.94849    -895.9246     1717.341    186.91261    2.1703864    9.1799734    0.1606631 
   45700   -940.00129    52.771608   -887.22968    1890.0876     3103.566    2.1707668    7.7265498   0.15137365 
   45800    -940.6895    50.501003    -890.1885    1808.7628   -1503.0619    2.1575207    5.2639691   0.14117399 
   45900   -948.74949      51.2242   -897.52529    1834.6651    -5242.644    2.1651985    7.3033627   0.11989907 
   46000   -938.86938    49.183369   -889.68601    1761.5699    6890.7849    2.1773584    7.0186219   0.13763264 
   46100   -944.05587    56.490144   -887.56572    2023.2721    -329.9229    2.1663524    6.5860748   0.14547879 
   46200   -943.77285    49.943551    -893.8293    1788.7969   -15483.299    2.1312325    7.2346345   0.14991854 
   46300   -941.43335    52.468997   -888.96436    1879.2492    4483.6877    2.1783165    5.6808909   0.15109469 
   46400    -937.4994    57.054552   -880.44485    2043.4871    16328.306    2.1905101     5.424297   0.16381302 
   46500   -939.28489    49.719641   -889.56525    1780.7772   -18481.161    2.1136247    7.3653688   0.15491496 
   46600   -938.59487    47.168437   -891.42643    1689.4024   -1328.9253    2.1567783    7.5247733    0.1472962 
   46700   -937.60953    49.045438    -888.5641    1756.6297    15530.213    2.1953926    6.6796846   0.14104282 
   46800   -933.23671    51.764197   -881.47251    1854.0058   -5782.2591    2.1323276    7.5678362   0.15521641 
   46900   -939.11293    46.170801   -892.94212    1653.6707    -2527.488    2.1592744    4.5152982   0.15409279 
   47000   -936.86995    46.214756   -890.65519    1655.2449    7794.2776    2.1795845    6.3312843   0.16546379 
   47100   -934.73848    48.067387    -886.6711    1721.5995    1747.0306    2.1606378    4.8958085   0.15485948 
   47200   -933.27789    50.530798   -882.74709    1809.8299   -5797.5809    2.1333452    6.0834383   0.16548442 
   47300   -943.65875    50.158697   -893.50005    1796.5026    7957.0321    2.1909122    6.4701244    0.1446195 
   47400   -941.94777    52.231834   -889.71593    1870.7549    2708.9156    2.1737399    5.5263103   0.14709882 
   47500   -940.38266    52.195346   -888.18731     1869.448   -9360.6945    2.1359679    4.8138296   0.13481869 
   47600   -945.17495    46.172482   -899.00247    1653.7309    2581.7571    2.1857873    5.7016042   0.13153526 
   47700   -945.30262    52.248273   -893.05435    1871.3436      2248.97    2.1805843    6.1121687   0.13928183 
   47800   -942.22999    53.294126   -888.93586    1908.8023     -6252.21    2.1476917    5.6756791   0.15550639 
   47900   -942.32146    52.101737   -890.21972    1866.0953   -4472.7156    2.1525288    4.9683282   0.14390322 
   48000   -949.23022    51.304732   -897.92548    1837.5494    9360.6245    2.2016455    6.0341886   0.12980739 
   48100   -937.09424    49.300812   -887.79343    1765.7763    -2184.402    2.1468787    8.8087337    0.1485044 
   48200   -941.21041    51.319859   -889.89055    1838.0912   -11881.941     2.135366    6.5970639   0.15023172 
   48300   -941.79542    50.335281   -891.46014    1802.8272    14907.502     2.201343    5.9126667   0.14743425 
   48400   -948.62955     48.79101   -899.83854     1747.517    3503.7357    2.1886192    6.4068117   0.13337181 
   48500   -937.86459    49.977797    -887.8868    1790.0234   -22249.696    2.0943735    6.5261306   0.14963376 
   48600   -938.96799    50.359607   -888.60838    1803.6985    9805.8456    2.1827933    6.1109447   0.15278393 
   48700   -938.87021    47.523476   -891.34673    1702.1186    10789.795    2.1806913    6.2925434   0.16948659 
   48800   -937.10347    52.205819   -884.89765    1869.8231   -9243.6529    2.1309361    5.3268617   0.15557717 
   48900   -935.40271    51.408666   -883.99404     1841.272   -4758.9609    2.1389234    8.2522275   0.16749232 
   49000   -939.71746    49.705316   -890.01214    1780.2642    7330.7918    2.1778593    4.0479907   0.15793174 
   49100   -939.72715    49.827725   -889.89943    1784.6484    2826.0003    2.1600901     4.226452   0.14689197 
   49200   -934.34807    52.858491   -881.48958    1893.1995    -7642.279    2.1205919    6.2985004   0.15381337 
   49300   -943.45521    50.696629   -892.75858    1815.7694    9006.8281    2.1860522    5.7447596   0.15539652 
   49400   -938.66676    47.642362    -891.0244    1706.3766    4230.3174    2.1695669    6.7095805   0.14054448 
   49500   -935.66453    47.834188   -887.83034    1713.2472   -6324.4124    2.1357175    5.4175633   0.15510713 
   49600   -934.17723      50.9784   -883.19883    1825.8614    5380.8458    2.1634884     5.390023   0.17069072 
   49700   -930.10663    59.009025    -871.0976    2113.4893    5559.0952    2.1498715    6.5046093   0.16270381 
   49800   -936.99223     53.74499   -883.24724    1924.9506   -3679.9148    2.1425179      6.73407   0.14279395 
   49900   -939.68071    51.887073   -887.79364    1858.4068   -6940.6042    2.1444651    8.4792326   0.16491365 
   50000   -940.41628    50.323873   -890.09241    1802.4186    8406.3846    2.1818148    5.6689505   0.14890822 
   50100   -943.43734    49.201614   -894.23572    1762.2234   -44.542532    2.1699609    5.3457637   0.16171007 
   50200   -934.52523    51.842172   -882.68306    1856.7986   -10943.427    2.1191111    4.5085215   0.16076366 
   50300   -941.97431    54.195828   -887.77848     1941.098    10115.635    2.1888791    5.4594447   0.13526745 
   50400     -943.697    52.580847   -891.11615    1883.2553    3342.8177    2.1732586    4.9672064   0.14166239 
   50500   -940.34644    49.694256   -890.65219     1779.868   -17258.779    2.1196112    6.0349294   0.14508008 
   50600   -938.23589    57.348648   -880.88724    2054.0206    5200.2958    2.1661962    6.2064572    0.1422355 
   50700   -943.76301    55.383081   -888.37993    1983.6211    9211.0822    2.1875311    6.9149857   0.14291534 
   50800   -943.48526    50.214356    -893.2709    1798.4961   -11971.843    2.1346492    5.6580188   0.13562536 
   50900   -940.48836    52.649715   -887.83864    1885.7219     170.1146    2.1572681    3.6905646   0.13035807 
   51000   -937.28575    47.792522   -889.49323    1711.7548    5562.3185    2.1709469    7.1052992   0.13709436 
   51100    -944.2864    47.209276   -897.07712    1690.8651      335.369    2.1697657    6.6669123   0.13103511 
   51200   -940.37054     50.29033   -890.08021    1801.2172   -4328.8165    2.1500471    4.9586935   0.16077978 
   51300   -936.56087    48.575279   -887.98559    1739.7903    3253.0853    2.1631626     6.821346   0.14210623 
   51400   -947.33745    49.904392   -897.43306    1787.3943    1933.8088     2.180327    5.6401707   0.12820586 
   51500   -935.17362    44.848678   -890.32494     1606.317   -1921.8364       2.1477     7.524359   0.12844737 
   51600   -937.01092     48.90228   -888.10864    1751.5023    3147.4485    2.1624899    6.3524921   0.14574987 
   51700   -943.62862    50.321082   -893.30754    1802.3187    1787.8669    2.1722063    6.6920452   0.15079604 
   51800   -942.02395    46.122151    -895.9018    1651.9282   -3280.3912    2.1579608    4.1043102   0.16197917 
   51900   -935.38453     49.95321   -885.43132    1789.1428   -2465.4954    2.1428441    5.0987491   0.15505258 
   52000   -940.53709    51.938635   -888.59846    1860.2536    8716.3114    2.1841259    5.3086531   0.14781812 
   52100   -942.43559     48.82822   -893.60737    1748.8498   -2379.1972    2.1622237    5.4463612   0.13551608 
   52200    -934.9855    50.546771   -884.43873     1810.402     -8208.92    2.1276561    7.5497208   0.15810025 
   52300   -936.67811    51.054638   -885.62347     1828.592    11406.248    2.1791214    5.9882973   0.14825838 
   52400   -945.41236    54.245584   -891.16677    1942.8801   -1580.3585    2.1670051    6.2577566   0.14372969 
   52500   -939.27204     48.51723   -890.75481    1737.7112   -10121.506    2.1332582    6.0786414   0.14709626 
   52600   -939.27105    57.789221   -881.48183    2069.8003    1587.4965    2.1593492    4.1630273   0.14156631 
   52700   -943.55068    53.562312   -889.98837    1918.4078    9544.0127    2.1859186    6.3718254   0.14394569 
   52800   -938.93089    46.252245   -892.67865    1656.5877   -12828.996    2.1264227    6.5559987   0.15239861 
   52900   -938.26853    50.367769   -887.90076    1803.9908    260.37407    2.1577547    7.5500811    0.1470148 
   53000   -944.75815    52.488833   -892.26932    1879.9596    6549.2748    2.1844063    6.5546287   0.13912241 
   53100   -945.91028    48.149246   -897.76103    1724.5314   -2504.9222    2.1638803    5.9992054   0.11343085 
   53200   -941.81418    51.757175     -890.057    1853.7543   -2877.4565    2.1499627    6.0501411   0.12721835 
   53300    -939.1113    51.071554   -888.03974    1829.1978      4309.75    2.1652477    4.1820973   0.15212321 
   53400   -944.08049    46.639337   -897.44116    1670.4519      997.548     2.169467    6.7468682   0.14785636 
   53500    -940.9034    48.812273   -892.09112    1748.2786   -3901.6889    2.1515774    5.6270027   0.16483752 
   53600   -938.53062    50.705348   -887.82527    1816.0817    2456.2303     2.162629    5.2753119   0.13807287 
   53700   -943.81835    51.214525   -892.60383    1834.3185    313.46314    2.1639995     5.639179   0.13511039 
   53800   -943.07973    44.491379   -898.58835    1593.5198   -1153.6915    2.1655768    4.9945128   0.12464566 
   53900   -936.94351    48.970445   -887.97306    1753.9437    1912.1153    2.1556932    6.5941545   0.14512131 
   54000   -938.32634    49.781802   -888.54454    1783.0036    7912.0266    2.1776142    4.7026338   0.14449859 
   54100   -940.66225     47.99775    -892.6645    1719.1054   -3929.8959    2.1500892    5.7692545   0.13270935 
   54200   -939.28075    53.267868   -886.01288    1907.8619   -6838.4801    2.1393377    5.2994624   0.14898145 
   54300   -936.83603    53.886544   -882.94949    1930.0206    10954.136    2.1770598    5.1236349   0.17811631 
   54400   -940.99998    51.026536   -889.97344    1827.5855   -6151.1543    2.1461242    7.1945141   0.14552528 
   54500   -942.69123    50.164859   -892.52637    1796.7233   -10681.375    2.1392586     6.154915   0.15567993 
   54600   -940.56346    55.007567   -885.55589    1970.1716      13457.5    2.1937451    7.3345373   0.14466804 
   54700   -938.00324    53.310937    -884.6923    1909.4044   -1642.8925    2.1522414    5.2800426    0.1460929 
   54800   -939.52768    45.710623   -893.81705    1637.1888    -10576.19    2.1330468    5.8620016    0.1492749 
   54900   -939.61554     50.82636   -888.78918    1820.4159    6197.7921    2.1778576    6.5263671   0.17441885 
   55000   -937.39069    52.592604   -884.79808    1883.6763    3989.6898    2.1632028    4.7117364   0.17525621 
   55100   -943.90517    54.396294   -889.50888     1948.278   -11439.368    2.1369113    4.9817096   0.15945344 
   55200   -942.27832    48.902564   -893.37575    1751.5125    3028.3057    2.1759548    4.7868273   0.15950126 
   55300   -939.99863    52.219031    -887.7796    1870.2963    6130.1882    2.1765448    6.1130203   0.14171833 
   55400   -938.16177    48.799653   -889.36212    1747.8266   -4813.9157    2.1470914    5.2806038   0.14872591 
   55500   -946.21675    48.517301   -897.69944    1737.7138   -1002.6153    2.1719371    4.2689222   0.12838824 
   55600   -940.26398    51.435194   -888.82879    1842.2221    4915.0029    2.1723097    5.2057427   0.14470694 
   55700   -941.20967    51.930458   -889.27921    1859.9607   -1757.9531    2.1544429    5.4223861   0.14676876 
   55800     -944.453    46.697265   -897.75574    1672.5267   -4703.9593    2.1634588     4.406115   0.13423726 
   55900   -939.40326    47.663708   -891.73955    1707.1412    4359.0901    2.1704269    5.8983553   0.14766559 
   56000   -941.80256    54.203002   -887.59956    1941.3549    701.28853    2.1654846     4.305148   0.15518397 
   56100   -940.16662    46.131016    -894.0356    1652.2457   -7093.1942    2.1455069    3.8126168   0.14337077 
   56200   -940.01123    48.113254   -891.89797    1723.2423    2185.4924    2.1643212    4.3543712    0.1516094 
   56300   -936.32628    52.532116   -883.79416    1881.5099    9311.5136    2.1718755    5.5592549   0.13086486 
   56400   -944.20122    53.113282   -891.08794    1902.3251   -13341.171    2.1309665    5.3545746   0.11778733 
   56500   -942.98183    50.664341   -892.31749     1814.613   -5403.4448    2.1492971    4.5534902   0.12558225 
   56600   -937.70681     53.64377   -884.06304    1921.3253    21664.578    2.2029254    5.8206361   0.13223931 
   56700   -938.18115    52.146836   -886.03431    1867.7106   -7152.9687    2.1295889     4.567733   0.14190891 
   56800   -942.45225    47.456197   -894.99606    1699.7089   -10090.054    2.1398527    5.1945428   0.15681977 
   56900   -940.26708    51.227465   -889.03962     1834.782    10110.356    2.1822841    8.0398869   0.15173008 
   57000   -936.80499    50.303786   -886.50121    1801.6992    1886.4899    2.1573109    7.0020795   0.13987335 
   57100   -941.30856    44.501999   -896.80656    1593.9002   -4813.3174    2.1492065    6.4943414   0.12574058 
   57200    -942.1878    49.302973   -892.88483    1765.8537    666.34206    2.1627728     6.734784   0.13213523 
   57300     -934.924    48.405897   -886.51811    1733.7237    9448.1745    2.1679434    5.2911965   0.14472954 
   57400   -943.56845    50.539659   -893.02879    1810.1473   -5840.7161    2.1483809    6.6002894    0.1356721 
   57500   -942.43562    45.972232   -896.46338    1646.5586   -1067.4234    2.1651097    5.5769941    0.1527201 
   57600   -936.52771    49.560966   -886.96674    1775.0941    4705.8348    2.1678225    6.5784384   0.17014251 
   57700   -940.12946    49.299744   -890.82971    1765.7381   -4512.1801    2.1548395    4.6138713   0.17190294 
   57800   -944.24012    47.853984   -896.38613    1713.9562   -3543.0243    2.1625622    6.9906678    0.1576519 
   57900   -943.13702    53.610891   -889.52612    1920.1477    5848.4048     2.180877     4.369723   0.15858584 
   58000   -938.70942    51.637148   -887.07227    1849.4554    203.02158    2.1563785    4.6601774   0.15274493 
   58100   -941.46442    48.497944   -892.96648    1737.0205   -13350.541    2.1288132    4.6613152   0.13935114 
   58200   -939.49231    51.434711    -888.0576    1842.2048    10027.553    2.1831866    4.1846615   0.14113402 
   58300    -937.1527    56.782225   -880.37047    2033.7334    5648.1622    2.1651495    3.6627369   0.14973239 
   58400    -935.6307    44.884487   -890.74621    1607.5996   -10802.007    2.1265819    5.9470493   0.16490548 
   58500   -938.25534    46.989854   -891.26549    1683.0062    2566.0996    2.1625056    4.2884419   0.16562977 
   58600   -941.30712    54.760599   -886.54653    1961.3261    11025.941    2.1850972    5.5199506   0.15266696 
   58700   -936.08679    51.448359   -884.63843    1842.6936   -6014.0974    2.1287492    5.2012028   0.14937031 
   58800   -943.51537     48.38798   -895.12739     1733.082    350.77548    2.1689554    5.0530674   0.13845524 
   58900   -939.66282      49.7177   -889.94512    1780.7077    4234.5177    2.1731186    3.7326209   0.12361322 
   59000   -938.73612    50.986414   -887.74971    1826.1484    -2240.892    2.1492915    5.2576721   0.13423455 
   59100   -945.79257    47.544356   -898.24821    1702.8664   -2779.6061    2.1670597    3.8239339   0.13966376 
   59200   -942.75854    49.512904   -893.24563    1773.3727    165.09046    2.1658856     5.213467    0.1252529 
   59300   -941.29131    53.367381   -887.92393    1911.4261    1108.2249    2.1631211    5.3933092   0.14482887 
   59400   -941.14935    48.450663   -892.69869     1735.327   -2766.4743    2.1565154    5.8252957   0.12910455 
   59500   -945.83575    48.275072   -897.56068     1729.038    -198.6067    2.1696367    4.9532084   0.11488857 
   59600   -938.90761    51.186825   -887.72079    1833.3264    1695.3567     2.158725    4.5656808   0.13685721 
   59700    -943.5836    53.794028   -889.78957     1926.707   -1472.2668    2.1601014    5.1595451   0.12819834 
   59800   -944.07744    46.931029   -897.14641    1680.8993   -1667.9576    2.1630878    5.1930694   0.11313704 
   59900   -940.58457    52.201301   -888.38327    1869.6613    290.32606    2.1597329    6.7799579   0.13123177 
   60000   -939.33648    51.802205   -887.53427    1855.3671    5154.7854    2.1671022    4.0936132   0.11752546 
   60100   -942.91984    48.560819   -894.35903    1739.2724   -8185.5575    2.1456085    4.3186284   0.13059947 
   60200    -939.9676    52.232289   -887.73531    1870.7712   -2017.2962    2.1525732    4.6044817   0.13508633 
   60300   -936.83628    53.132257   -883.70402    1903.0047    9693.1827    2.1741795    4.6958761   0.13573611 
   60400   -941.47399    49.281353   -892.19264    1765.0794   -6731.2578    2.1422419    6.3878506   0.13215688 
   60500   -939.52339    49.115614   -890.40778    1759.1432   -5659.8297    2.1463474    5.8311002   0.13939088 
   60600   -936.06496    55.039776   -881.02519    1971.3252    11700.251    2.1776375    6.0670105   0.14546492 
   60700   -943.19549     53.23417   -889.96132    1906.6549   -2060.0897    2.1557948    5.5539851   0.11738111 
   60800   -935.64526     42.45352   -893.19174    1520.5311    -6012.605    2.1367033    5.2278715   0.15368928 
   60900   -937.46565    51.833275   -885.63238    1856.4799    6531.9012    2.1742466    5.7498002   0.16122962 
   61000   -940.43277    48.791469   -891.64131    1747.5335    3260.6579    2.1729718    5.4336779   0.15285647 
   61100   -942.79103    46.863114   -895.92791    1678.4668   -6521.9998    2.1511507    5.0794472   0.14795487 
   61200   -939.65581    51.609412    -888.0464     1848.462    2136.4616    2.1619659     4.685096   0.13370556 
   61300   -938.80884    49.099736    -889.7091    1758.5745     4769.018    2.1690128    6.1813861   0.15165107 
   61400   -946.99658    48.492667   -898.50391    1736.8315   -2216.9138    2.1692213    4.5251477   0.13573763 
   61500   -940.12604    51.053556   -889.07248    1828.5532   -1775.9029    2.1493502    5.0412635    0.1303832 
   61600    -939.6481    51.457014   -888.19109    1843.0036    6287.2124    2.1697708    5.0756164   0.13991122 
   61700   -945.51707    49.599565    -895.9175    1776.4766     -1785.68    2.1656322      5.74682   0.13741085 
   61800   -940.06968      52.6196   -887.45008    1884.6432   -7615.4215    2.1403335    4.3842245   0.14220429 
   61900   -937.85404    50.828066   -887.02597     1820.477    5192.8098    2.1641899    6.2028989   0.15276632 
   62000   -943.49799     49.76004   -893.73795    1782.2242    890.97089    2.1672149     4.570532   0.14514868 
   62100   -939.48614    52.384229   -887.10192    1876.2131   -3865.5578    2.1422604    5.7097075   0.13959052 
   62200   -938.92025    53.251045   -885.66921    1907.2593    936.90988    2.1528322    5.1114881   0.13416606 
   62300   -941.09063    48.420631      -892.67    1734.2514    6013.6718    2.1735511    5.5321188   0.13274957 
   62400   -939.22702    50.305993   -888.92103    1801.7782   -6094.4575    2.1390866    5.2863113   0.12884485 
   62500   -938.24392    54.436893   -883.80702    1949.7321   -6814.4057    2.1319292    4.5503372   0.15003471 
   62600   -945.54599    52.224159   -893.32183      1870.48    10127.572    2.1912717    5.0570034   0.13948502 
   62700   -942.62042    51.592204   -891.02822    1847.8457   -3153.0567    2.1504086    5.2620267   0.13151635 
   62800   -936.82731    49.946207    -886.8811     1788.892   -9815.9282    2.1230524    5.8080141    0.1452121 
   62900    -944.9593    49.447927   -895.51137    1771.0454    8874.4702    2.1897587    4.2941633   0.12944785 
   63000   -939.56131    46.355283   -893.20602    1660.2781    5806.4446    2.1723833    4.9542953    0.1319807 
   63100   -939.29471    50.911353   -888.38336      1823.46   -12025.149    2.1250727    5.5567903   0.14361793 
   63200   -941.13787    50.232604   -890.90527    1799.1497    2285.8365    2.1625387    3.5371005   0.14260955 
   63300   -942.49232    46.736815    -895.7555    1673.9432    13393.524    2.1949227    6.7162731   0.15188911 
   63400    -937.0036    50.425773   -886.57782    1806.0683   -7487.8769      2.13106    7.0596896   0.15867381 
   63500    -941.4111    51.647773   -889.76332    1849.8359   -5655.1334    2.1467773     6.058722   0.13056702 
   63600   -946.96697    53.382551   -893.58442    1911.9694    7211.5057    2.1852714    4.4531182   0.13479893 
   63700   -933.68161    49.967136   -883.71447    1789.6416    1660.2815    2.1409947    4.5958127    0.1338039 
   63800    -937.3265    48.726667   -888.59983    1745.2125   -1463.7109    2.1441999    5.2627544   0.14991912 
   63900   -943.24691    50.364678   -892.88223    1803.8801    1924.0402    2.1723935    6.4869605   0.15083898 
   64000   -941.60397    56.133292   -885.47068    2010.4909    30.325472    2.1606495    7.2228622   0.15278011 
   64100   -939.95064    53.053989   -886.89665    1900.2015   -6168.4551    2.1404332    6.0659997   0.14336523 
   64200   -943.84796    50.031902   -893.81605    1791.9613   -990.30118    2.1654279    5.0706866   0.14470948 
   64300   -937.22237    50.189076    -887.0333    1797.5907    7730.8647    2.1706753    5.4944378   0.14234702 
   64400   -937.08971    49.676388   -887.41333    1779.2281   -3772.5584    2.1447827    3.7250815   0.14795707 
   64500   -941.13562    45.537842   -895.59778    1631.0004    137.96045    2.1649132    5.6610927   0.14285322 
   64600    -940.0654     51.92524   -888.14016    1859.7738    1448.2008     2.164229    4.0597365   0.14263988 
   64700   -943.65713     55.11169   -888.54544    1973.9009   -3405.5506    2.1541235    5.2415239   0.12787283 
   64800   -946.07175    48.881861   -897.18989     1750.771    -1129.728    2.1698023    5.6081141   0.13428373 
   64900   -942.66725    54.386794   -888.28045    1947.9377   -2678.1444    2.1539318     5.113052   0.15864931 
   65000   -941.75824    53.372592   -888.38565    1911.6127    415.34528    2.1606437    4.6208511   0.15164629 
   65100   -946.17397    50.007307   -896.16666    1791.0804   -2115.2202    2.1684678    5.7170313   0.13534543 
   65200   -936.82334    49.389813   -887.43352     1768.964   -756.22138    2.1510483    4.2060555   0.12752683 
   65300   -938.65701    50.948998   -887.70801    1824.8084    2616.5895    2.1623446    5.0153128    0.1258261 
   65400   -942.01215    47.926102   -894.08605    1716.5392    260.46098    2.1662857     5.361948   0.13425385 
   65500    -940.0308    54.005209    -886.0256    1934.2707   -5524.4492    2.1484481    4.2925854   0.16262484 
   65600   -939.18577     52.45415   -886.73162    1878.7174    1122.1054    2.1561823    5.9228512   0.14522148 
   65700   -945.61889    52.230667   -893.38822    1870.7131   -1135.1611    2.1669577    4.7774981   0.13331129 
   65800   -938.39413    51.309347   -887.08479    1837.7147    -1797.706    2.1494987    5.5599686   0.12268736 
   65900   -938.92322    53.977046   -884.94618     1933.262   -1683.6165    2.1509333    4.9124922   0.12684659 
   66000   -943.76658    50.288835   -893.47774    1801.1637    3242.2096    2.1741802    4.4774963   0.12302539 
   66100   -941.83417     52.95001   -888.88416    1896.4773   -2860.1385    2.1543846    4.6381938    0.1581474 
   66200   -936.39423    51.385137   -885.00909    1840.4293   -5086.5237    2.1403511    5.0945775   0.14430896 
   66300   -946.03783    50.892147   -895.14569    1822.7722    5535.3306    2.1846625    5.5122757   0.12980713 
   66400   -940.53479    51.243051   -889.29173    1835.3403    420.81848    2.1587854    5.6120612   0.13322797 
   66500   -942.54203    54.777053   -887.76497    1961.9154   -9734.3895    2.1387457    5.6020388   0.13421546 
   66600   -947.63165    50.991919   -896.63973    1826.3456    1787.5152    2.1844767    6.8497705    0.1477424 
   66700    -942.5301    52.201194    -890.3289    1869.6575    3258.2606    2.1758651    4.6006066   0.15059838 
   66800   -938.71227    50.762157   -887.95011    1818.1164   -8094.5537    2.1347503    4.9936168   0.14416702 
   66900   -942.27627    47.719071    -894.5572    1709.1241      -2651.8    2.1630553    4.9938229   0.13952355 
   67000   -942.27193    49.251093   -893.02084    1763.9955    10283.408    2.1922397    4.2335789   0.14373004 
   67100   -932.16196    46.356347   -885.80561    1660.3162   -1131.9364    2.1392127     4.639633   0.15359332 
   67200   -935.66543     42.63618   -893.02925    1527.0733   -4321.4438    2.1419165    5.2977385   0.15304845 
   67300   -938.27819    46.427759   -891.85043     1662.874      13025.6    2.1911485    6.0634228   0.14088346 
   67400   -937.25382    54.094878   -883.15894    1937.4823    704.49668    2.1539717    5.4641933   0.14252515 
   67500   -940.19647    49.317723   -890.87875     1766.382    -11495.96    2.1322215    5.2999333   0.14248648 
   67600   -941.75389    49.430611   -892.32328    1770.4252    3318.2445    2.1729358    5.7896301   0.13964315 
   67700   -937.26247    53.584208   -883.67826     1919.192    9567.1878    2.1783918    6.3205132   0.16481177 
   67800   -939.79277    51.146424   -888.64635    1831.8794   -9522.2837    2.1376079    4.4176173   0.15949746 
   67900    -941.2302    46.522277   -894.70792    1666.2593   -3779.4834    2.1549799    5.3994275   0.16214521 
   68000   -937.10159    50.825126   -886.27646    1820.3717    8500.0829    2.1771427     3.937381   0.14145304 
   68100     -936.542    47.992345   -888.54965    1718.9118   -78.041593    2.1551422     6.034135   0.13916077 
   68200   -944.79106    48.615919   -896.17514    1741.2459   -3120.2612    2.1653228     6.615894   0.13520745 
   68300   -937.43836    50.194475   -887.24389    1797.7841    1671.0093    2.1610618    4.6306463   0.15798749 
   68400   -939.83487    51.321878   -888.51299    1838.1636   -1371.7392    2.1631956     4.601584    0.1706702 
   68500   -942.77231    46.606341   -896.16597    1669.2701    507.30731    2.1687061    4.0215677   0.15320979 
   68600    -939.1728    51.994579   -887.17822    1862.2572   -977.49287    2.1580559    5.2807186   0.13848789 
   68700   -939.50495    51.503137   -888.00181    1844.6556    1503.9238    2.1637148    4.6347002   0.12904365 
   68800   -941.23908    45.649125   -895.58995    1634.9861    1459.2239    2.1685489    5.7271857   0.14525793 
   68900    -936.5813    49.562443   -887.01886     1775.147    118.17432     2.154261    5.1097566   0.16029957 
   69000   -937.54932    49.847912   -887.70141    1785.3714    2766.9391    2.1685319    4.7189298   0.17151468 
   69100   -939.02373    44.092431    -894.9313     1579.231    1441.3124    2.1711205    5.2314039   0.14867295 
   69200   -933.73074    46.738682   -886.99206    1674.0101   -1734.4111    2.1481718    4.5287773   0.16155303 
   69300   -940.97843     53.82586   -887.15257    1927.8471    560.41683    2.1683529     5.815586   0.15537182 
   69400   -947.86693    53.567934     -894.299    1918.6091   -1650.2949    2.1727227    6.6317749   0.12912529 
   69500   -939.01814    51.655978   -887.36216    1850.1298   -6606.1503    2.1407742    4.7748796   0.15627353 
   69600   -938.71505    52.423447   -886.29161    1877.6178    357.60989    2.1580582    5.2891035   0.14090483 
   69700   -942.83725    49.096098   -893.74115    1758.4442    8476.9125     2.188024    4.9279718   0.13264225 
   69800   -939.24525    51.515912   -887.72934    1845.1132   -6406.7085    2.1443487    5.9784618   0.13590871 
   69900   -936.94189    50.067087    -886.8748    1793.2215   -6242.7486    2.1397595    5.6812828   0.13433143 
   70000    -944.4153    50.626438   -893.78886    1813.2554     9273.055    2.1936895    7.1457009   0.15422292 
   70100   -938.54781    49.795075   -888.75274     1783.479    3216.6254    2.1643743    4.6340685   0.15819165 
   70200   -938.53263    51.680726    -886.8519    1851.0162   -10968.944    2.1240497    6.8735991   0.14544278 
   70300   -944.89411    50.632231   -894.26188    1813.4629    4541.8205    2.1805652    4.9676294    0.1095732 
[...]
  186800   -941.99928    48.978431   -893.02085    1754.2298   -2267.1478    2.1552763    195.16115   0.13856863 
  186900   -940.19038    51.012491   -889.17789    1827.0824    3508.0477    2.1621978    191.89613   0.13658601 
  187000   -932.72734    49.353821   -883.37352    1767.6749    2666.6221    2.1522002    208.45932   0.16812175 
  187100   -942.98211    51.318955   -891.66315    1838.0589   -7081.6087    2.1458767    195.50966   0.15469084 
  187200   -943.16672    50.522612   -892.64411    1809.5367   -2057.4895     2.157748    191.90481    0.1431442 
  187300   -940.66205    52.401003   -888.26105    1876.8139    6933.5868    2.1789181    195.32667   0.14770067 
  187400   -939.77947    48.415516   -891.36395    1734.0682   -5558.6247    2.1473011    196.64784   0.14226364 
  187500   -942.87897    43.456388   -899.42258    1556.4502   -3340.2166    2.1634376    194.18528   0.14222558 
  187600   -941.53018    51.231621   -890.29856    1834.9309    5903.7442    2.1763267     190.6211   0.14191211 
  187700   -938.40588    49.306041   -889.09984    1765.9636    1258.2794     2.154946    177.52882   0.15800597 
  187800   -938.64686    53.017118   -885.62974    1898.8809   -8261.4468    2.1377841    204.72191   0.15432812 
  187900   -928.06082    53.178952   -874.88187    1904.6772    6288.7073     2.150392    205.63369   0.16519874 
  188000   -935.69149    49.608285    -886.0832    1776.7889    7691.5525     2.168858    203.40138   0.14836819 
  188100   -937.38929    47.618275   -889.77101    1705.5139   -15889.779    2.1126352    197.88176   0.16464349 
  188200   -941.86357    50.800052   -891.06351    1819.4736    3329.2619    2.1723763    186.42467   0.15628013 
  188300   -940.84482    47.540116    -893.3047    1702.7146    17305.808    2.2061463    186.73169   0.16267122 
  188400   -932.04503    49.557492   -882.48753    1774.9696   -12544.085    2.1098311    200.45544    0.1543231 
  188500   -942.00272    51.317751   -890.68497    1838.0157   -2506.0407    2.1550479    192.03113   0.12851424 
  188600   -940.95455    49.885846   -891.06871    1786.7301    9124.1846    2.1806984    186.03418   0.14027992 
  188700   -936.03178    48.887646   -887.14414    1750.9782    -1410.537    2.1480288    192.39011   0.15723315 
  188800   -936.86889    54.262665   -882.60622    1943.4919   -7705.6722    2.1290495    186.84951    0.1666389 
  188900   -942.52238    49.930696   -892.59168    1788.3364    9887.7484    2.1894389    191.92153   0.14923956 
  189000   -941.25976    51.690965    -889.5688    1851.3829    346.50787    2.1629046    194.68579   0.14725865 
  189100   -936.18392    49.538092   -886.64583    1774.2748   -8862.0587    2.1250131    196.47781   0.15271811 
  189200   -944.75876    47.271744   -897.48701    1693.1024     7575.622    2.1888571    190.99033   0.15195962 
  189300   -939.12816     48.61323   -890.51493    1741.1496    5316.7088    2.1705176    183.30271   0.14026287 
  189400   -940.50689    51.564906   -888.94199    1846.8679   -9224.8484    2.1357396    196.08142   0.16311348 
  189500   -942.55654     48.73644    -893.8201    1745.5625    535.36842    2.1626666    200.98634   0.12499265 
  189600   -944.15571    47.874836   -896.28087     1714.703    8482.7685    2.1909205    193.07207    0.1306813 
  189700   -935.84324    47.914009   -887.92923    1716.1061   -3131.8768     2.142173    198.65883   0.14946551 
  189800   -939.00104    48.475661   -890.52537    1736.2224   -5596.9376    2.1441834    192.59269   0.15317134 
  189900   -943.61002    47.896322   -895.71369    1715.4726    9085.0533      2.19252    185.35217   0.16711886 
  190000   -938.20069    53.302221   -884.89847    1909.0922   -1983.6745    2.1481596    192.37018   0.15840621 
  190100   -937.84938    49.105301   -888.74407    1758.7738   -4574.8848    2.1455337    195.80729   0.14812515 
  190200   -941.53804    48.766591   -892.77144    1746.6424    3535.5311    2.1711613    202.23651   0.14092988 
  190300   -940.68163    48.312011   -892.36962     1730.361      3242.55    2.1694472     202.5405   0.14362593 
  190400   -937.82013    53.444282   -884.37585    1914.1804   -7872.8409    2.1311795    206.97722    0.1549916 
  190500   -942.70618    51.505896   -891.20028    1844.7544    1205.2921    2.1639775    186.54053    0.1434624 
  190600   -940.82944    48.471986   -892.35745    1736.0907    3022.9825    2.1669383    194.80397   0.14826083 
  190700   -934.43473    51.945796   -882.48893      1860.51   -674.17202    2.1368439    192.63209   0.14871904 
  190800   -942.56282    51.071489   -891.49133    1829.1955    3195.5502    2.1670292     195.3155   0.13158447 
  190900   -940.27545    48.015837   -892.25961    1719.7532    2183.5286     2.160104    193.22077   0.13572469 
  191000   -936.04421    50.798256   -885.24595    1819.4093   -387.61621    2.1449826    201.73642   0.13096342 
  191100   -939.99395    49.679376   -890.31457    1779.3351   -1343.0997    2.1563878     200.9097   0.13075774 
  191200   -938.60365     44.75324   -893.85041    1602.8988    3955.4128    2.1655606    199.44028   0.11460772 
  191300    -939.9938    52.388043   -887.60576    1876.3497    1932.9839    2.1581275    194.63125   0.12591362 
  191400   -939.82656    50.576061    -889.2505    1811.4511   -2431.2374    2.1516345    196.38345   0.14318662 
  191500   -944.34798    47.414187   -896.93379    1698.2042    1340.3726    2.1747806    186.72856   0.16080949 
  191600   -938.16714    49.800828   -888.36631    1783.6851    2760.5935    2.1599638    192.52496   0.14510246 
  191700   -940.50723     50.78629   -889.72094    1818.9807   -4864.8419    2.1455564    193.89775   0.13371724 
  191800    -946.3958    48.306161   -898.08964    1730.1515    1730.5634    2.1761238    192.02139   0.12378221 
  191900   -938.89724    49.624022   -889.27322    1777.3525    4049.5163    2.1697467    199.86534   0.13486783 
  192000   -938.11071    49.313779   -888.79693    1766.2407   -3632.2311    2.1520956    196.50652   0.15203816 
  192100   -940.70321    46.054145   -894.64907    1649.4924   -2081.8691    2.1578864    192.93322   0.14271892 
  192200   -945.61745    51.644754    -893.9727    1849.7278    6888.2844    2.1844273    190.26581   0.13252785 
  192300   -937.71797    51.667632   -886.05034    1850.5472   -2566.0527    2.1494264    190.72251   0.16798666 
  192400   -941.00623    48.758371   -892.24786     1746.348   -8541.7745    2.1427859    192.09856   0.15702023 
  192500   -942.23335    51.223753   -891.00959    1834.6491     8673.524    2.1837803    188.67159   0.13872917 
  192600    -938.6005    57.587406    -881.0131     2062.572    1279.7335    2.1549323    188.86613   0.15131135 
  192700    -940.8655    50.605852   -890.25965    1812.5181   -8713.8713    2.1421674    194.78544   0.15302589 
  192800   -941.08013    49.366992   -891.71313    1768.1466    1091.7121    2.1684204    200.26515   0.16271731 
  192900    -938.8106    52.972681   -885.83792    1897.2893     9851.104    2.1776227    198.34109   0.16375483 
  193000   -935.50759     50.89442   -884.61317    1822.8535   -9809.7732    2.1247375    192.83086   0.16962901 
  193100   -941.52996    47.482562   -894.04739    1700.6532   -3738.3345    2.1559163    196.37855   0.16254101 
  193200   -938.79683    50.320619   -888.47621    1802.3021    13484.196    2.1916811    185.85999   0.16444611 
  193300   -938.87923     51.23823     -887.641    1835.1676    -4008.209    2.1465977    192.09446   0.16912086 
  193400   -947.04521    48.659121   -898.38609    1742.7932   -10683.588    2.1478241    200.81608   0.14657279 
  193500   -942.64832    49.537337   -893.11098    1774.2478    7078.9338    2.1844206    192.92435   0.14012892 
  193600   -940.52369    52.832858   -887.69083    1892.2814    4137.2352    2.1699647     204.0504   0.14674679 
  193700   -941.08817    49.678089   -891.41008     1779.289   -10111.832    2.1384611    199.64464   0.15394038 
  193800   -945.02199    47.771674   -897.25032    1711.0081     3273.643    2.1817462    186.47805   0.14454502 
  193900   -940.08556    53.006758    -887.0788    1898.5098     1900.486    2.1632457    187.89243   0.16376137 
  194000   -942.27418    52.074394   -890.19979     1865.116   -3008.0223    2.1550948    188.47267   0.13123041 
  194100   -941.45054    45.942112   -895.50843    1645.4798    496.62724    2.1671193    194.62233   0.13792816 
  194200   -937.12539    50.717325   -886.40807    1816.5107    1847.2066    2.1645501    196.63268   0.16340115 
  194300     -937.731    50.586352   -887.14465    1811.8197    652.06048    2.1618592    195.73572   0.16044363 
  194400   -943.29912    50.116109   -893.18301    1794.9773   -6880.1837     2.152708    190.51097   0.14985012 
  194500   -941.40354     53.26184    -888.1417    1907.6459    2373.9917    2.1687283    190.65428   0.14445055 
  194600   -934.97832    51.275788   -883.70253    1836.5128    4093.3144    2.1558772    183.71563   0.15632276 
  194700   -944.47089    51.420149   -893.05074    1841.6833    -5320.912    2.1571699    181.89077   0.14060357 
  194800   -939.81216    50.059346   -889.75282    1792.9442    2364.4504    2.1612457     177.6521    0.1406015 
  194900    -936.0008    54.179024   -881.82178    1940.4962    2373.5104    2.1527062    190.53161   0.14140953 
  195000   -941.17192    48.919189   -892.25273    1752.1079   -2258.8691    2.1600943    194.21597   0.14663404 
  195100   -936.65588    44.657251   -891.99863    1599.4608   -2308.1513    2.1472142    196.46787   0.15945152 
  195200   -937.60539    52.311106   -885.29428    1873.5941    7436.1534    2.1727659    193.38905   0.14266152 
  195300   -944.54307    50.790074     -893.753    1819.1162    1283.6524    2.1715818     194.6578   0.15077664 
  195400   -941.52422    46.526567   -894.99765    1666.4129   -12132.974    2.1332866    190.10576    0.1618272 
  195500   -935.56329    47.590648   -887.97264    1704.5244    8233.0265    2.1737161    187.83235   0.15694466 
  195600   -943.86974    53.674244   -890.19549    1922.4168    6224.7628     2.181243    184.05446   0.14977687 
  195700   -947.63003    48.663446   -898.96659    1742.9482   -14324.883    2.1419626    193.61248   0.13615075 
  195800   -941.17998    50.299494   -890.88048    1801.5455   -3602.4675     2.158082    191.69823   0.15075034 
  195900   -938.77771    52.051642   -886.72607    1864.3011    9370.2877    2.1836189    201.21993   0.15745244 
  196000   -940.92253    46.001656   -894.92087    1647.6125   -3809.9283    2.1517371    198.56606   0.14463009 
  196100   -944.34696    54.311084   -890.03587    1945.2261   -6550.0289    2.1467959    200.57025   0.13586684 
  196200   -936.92898    51.765833   -885.16314    1854.0644     2506.399    2.1617962    195.69425   0.15574399 
  196300   -942.35847    49.609964    -892.7485     1776.849   -1514.8106    2.1643803    197.15388   0.14561144 
  196400   -940.60136    50.093451   -890.50791    1794.1658   -2871.3886    2.1550158    190.44588   0.14912115 
  196500    -936.7218    53.698582   -883.02322    1923.2885   -953.75469    2.1475082    192.11217   0.14314363 
  196600   -941.94085    49.637504   -892.30335    1777.8354    4422.7286    2.1728897    197.70707   0.15337248 
  196700   -939.15822    47.923781   -891.23444     1716.456   -185.38616    2.1578283     195.7865    0.1392043 
  196800   -935.46175    51.605024   -883.85673    1848.3048   -3014.6196    2.1399065    199.13284   0.14861602 
  196900   -946.10536    51.987092   -894.11827    1861.9891    4425.3827    2.1820969    192.56946   0.13561235 
  197000   -941.23513    49.429051   -891.80608    1770.3693   -2213.9964    2.1559235    188.27576   0.14037894 
  197100   -935.50959     48.76163   -886.74796    1746.4648   -3681.6482    2.1397537    189.87205   0.15444611 
  197200   -944.26699    48.592866   -895.67413    1740.4202    6288.3547    2.1840269     184.4798    0.1258693 
  197300   -941.79771    48.390852   -893.40686    1733.1848    1645.1205    2.1668387    194.91461   0.12889151 
  197400   -940.50558    52.252102   -888.25348    1871.4808   -10411.138    2.1337577    198.11236    0.1424227 
  197500   -942.01107    50.729184   -891.28188    1816.9354   -88.341394    2.1693409    189.41071   0.13242916 
  197600   -941.99339    46.683093    -895.3103    1672.0191    13928.733      2.20026    193.61157   0.14253795 
  197700    -936.8538    50.632949   -886.22085    1813.4886   -10243.811    2.1251645    199.57056   0.13897281 
  197800   -937.36753    47.385872   -889.98166    1697.1901   -3082.8363    2.1491356    191.68133   0.15009113 
  197900    -940.7815    48.108473   -892.67303     1723.071    14560.651     2.196633    194.22143   0.16177564 
  198000    -936.4731    53.267529   -883.20558    1907.8497   -621.47464    2.1470755    192.04444   0.14821901 
  198100   -938.68349    50.068811   -888.61468    1793.2832   -7792.6181    2.1360805    200.15897   0.13389539 
  198200   -939.98544     47.52415   -892.46129    1702.1427    7445.0836    2.1785439    200.14609   0.13532711 
  198300   -935.97147    48.993099   -886.97837    1754.7551    6675.9293     2.169448    198.74443   0.14738923 
  198400   -936.85995    51.498316   -885.36163    1844.4829   -9226.7834    2.1281177    197.63137   0.13820245 
  198500   -942.85809    48.707598    -894.1505    1744.5295    1299.3648     2.168855    191.90919   0.13584507 
  198600   -938.71707    50.104652   -888.61242    1794.5669    7229.3385    2.1747512    191.90857   0.14696824 
  198700   -937.23637    50.952183   -886.28419    1824.9224   -4682.0656    2.1409599    193.19747   0.14660285 
  198800    -944.0028    47.527656   -896.47514    1702.2683     -7.52506    2.1684553    193.82039   0.14456451 
  198900   -941.96869    51.707325   -890.26137    1851.9689    1498.3214    2.1684825    191.24046   0.14126283 
  199000   -939.49931    52.341078   -887.15823    1874.6676   -2924.0143    2.1519861    202.45126   0.13800112 
  199100   -944.33122    47.152195   -897.17902    1688.8206   -1669.2156    2.1658458    197.42329   0.13156523 
  199200   -942.55586    51.069873   -891.48599    1829.1377    1275.2731    2.1624267    136.12523   0.14004337 
  199300   -943.07795    56.270181   -886.80777    2015.3938    113.24685    2.1646836      136.302   0.13845591 
  199400   -943.40618    48.554492   -894.85169    1739.0458   -3932.2766    2.1594118    144.09521   0.16174363 
  199500   -939.85831     48.92894   -890.92937    1752.4572   -1337.4283    2.1596126     139.8221   0.15836129 
  199600   -936.78896    50.905308   -885.88365    1823.2435      4240.08    2.1592833    141.79142   0.15300047 
  199700   -944.15589    50.741023   -893.41487    1817.3594   -2356.1056    2.1602354    143.96491   0.13534533 
  199800   -939.69599    49.411571   -890.28442    1769.7433    724.32975    2.1593625     129.4296   0.12101665 
  199900   -934.01994    50.167326   -883.85262    1796.8117     2244.797    2.1501173    138.99411   0.14471013 
  200000   -940.94912    48.171938   -892.77719    1725.3441   -378.53544    2.1649004    140.80519   0.14613211 
  200100   -941.57849    50.912035   -890.66646    1823.4845   -556.31529    2.1616842    135.24047   0.14780576 
  200200   -937.66701    55.179185   -882.48782    1976.3183   -3255.4395    2.1450377    134.82684   0.15843736 
  200300   -942.11038    49.207563   -892.90281    1762.4364     2837.795     2.171015    138.03248   0.15151377 
  200400   -938.83511    47.605011    -891.2301    1705.0389    878.40778    2.1613332    135.23505   0.13813856 
  200500   -934.95804    50.040785   -884.91725    1792.2794   -1970.6122    2.1461882    133.98451   0.14665321 
  200600   -945.09079     50.55235   -894.53844    1810.6018    775.60758    2.1753506    126.00711   0.13157276 
  200700   -945.83374    52.608847   -893.22489    1884.2581   -3159.6201    2.1641415    139.71192   0.12504899 
  200800   -942.40551    55.139779   -887.26574    1974.9069   -3226.6604    2.1549216    136.27576    0.1352936 
  200900   -939.75281    48.223686   -891.52912    1727.1975    2487.8091    2.1652806    139.96209   0.14708445 
  201000   -943.83156    47.535887   -896.29568    1702.5631     1268.574    2.1743874    137.58527   0.14302191 
  201100     -939.289     51.25727   -888.03173    1835.8495   -2166.6109     2.156342    136.60872   0.15921444 
  201200   -942.37898    52.236959   -890.14202    1870.9384   -694.84573    2.1583493    143.06574   0.14325788 
  201300   -946.88994    49.407258   -897.48268    1769.5888    1492.2671    2.1819593    133.75722   0.13922633 
  201400   -937.26124    49.887885   -887.37336    1786.8031   -3021.2591     2.151615    132.20538   0.15798168 
  201500   -940.40948    51.365162   -889.04432    1839.7138   -313.19273    2.1598972    133.78827   0.16117263 
  201600   -941.35304    46.799425   -894.55362    1676.1857    4569.5436    2.1771148    143.04689   0.14820425 
  201700   -935.64839    48.038468   -887.60992    1720.5637    48.508059    2.1578661    134.04984   0.18754092 
  201800   -940.86276     54.67222   -886.19054    1958.1606   -3953.6608     2.150699    154.16572   0.15706336 
  201900   -940.90694    48.692108   -892.21483    1743.9747    1236.8811    2.1653422    140.62017   0.16578206 
  202000   -942.01842    50.568184   -891.45023     1811.169    4783.0169    2.1749007    138.20472   0.15019838 
  202100    -934.1613     51.83854   -882.32276    1856.6685   -6084.0594    2.1308882    139.68138   0.15319743 
  202200   -941.34551      49.0185   -892.32701    1755.6649   -934.97901    2.1618794     137.0114   0.15747526 
  202300    -945.9996    55.175147   -890.82445    1976.1737    4892.1602    2.1803839    132.99454   0.13256124 
  202400   -936.20996    51.600989   -884.60897    1848.1603   -2935.5185    2.1392278    141.88927   0.13737952 
  202500   -937.49753    50.553634   -886.94389    1810.6478   -6138.4546    2.1337285    144.44004   0.14316823 
  202600   -942.01156    49.802783   -892.20878    1783.7551    8653.5663    2.1873908    132.96026   0.14139341 
  202700   -938.73468    50.585182    -888.1495    1811.7778    4455.0954     2.165273    129.77869   0.16958778 
  202800   -937.02059    49.392564   -887.62803    1769.0625   -11719.499    2.1192614    136.84747   0.15290858 
  202900   -948.87886    52.062948   -896.81591     1864.706    3445.9282    2.1867281    130.79227   0.12526481 
  203000   -939.51864    51.257276   -888.26137    1835.8498    8995.4315    2.1799011    145.26799   0.13507071 
  203100   -938.66842    50.952199   -887.71622     1824.923   -9288.4224    2.1354394     190.0209   0.16337518 
  203200   -937.99332    46.186073   -891.80724    1654.2176   -753.76778     2.153985    212.94107    0.1795129 
Loop time of 140.965 on 1 procs for 200000 steps with 217 atoms

Performance: 367.752 ns/day, 0.065 hours/ns, 1418.795 timesteps/s
100.0% CPU use with 1 MPI tasks x no OpenMP threads

MPI task timing breakdown:
Section |  min time  |  avg time  |  max time  |%varavg| %total
---------------------------------------------------------------
Pair    | 134.1      | 134.1      | 134.1      |   0.0 | 95.13
Neigh   | 3.6576     | 3.6576     | 3.6576     |   0.0 |  2.59
Comm    | 0.95654    | 0.95654    | 0.95654    |   0.0 |  0.68
Output  | 0.070845   | 0.070845   | 0.070845   |   0.0 |  0.05
Modify  | 1.8755     | 1.8755     | 1.8755     |   0.0 |  1.33
Other   |            | 0.3066     |            |       |  0.22

Nlocal:    217 ave 217 max 217 min
Histogram: 1 0 0 0 0 0 0 0 0 0
Nghost:    951 ave 951 max 951 min
Histogram: 1 0 0 0 0 0 0 0 0 0
Neighs:    4166 ave 4166 max 4166 min
Histogram: 1 0 0 0 0 0 0 0 0 0
FullNghs:  8332 ave 8332 max 8332 min
Histogram: 1 0 0 0 0 0 0 0 0 0

Total # of neighbors = 8332
Ave neighs/atom = 38.3963
Neighbor list builds = 6228
Dangerous builds = 76
Total wall time: 0:02:23
