LAMMPS (3 Mar 2020)
Reading data file ...
  orthogonal box = (0 0 0) to (12.27 12.27 12.27)
  1 by 1 by 1 MPI processor grid
  reading atoms ...
  108 atoms
  read_data CPU = 0.000929638 secs
Reading potential file /usr/share/lammps-stable/potentials/Ag_u3.eam with DATE: 2007-06-11
Neighbor list info ...
  update every 1 steps, delay 10 steps, check yes
  max neighbors/atom: 2000, page size: 100000
  master list distance cutoff = 7.55
  ghost atom cutoff = 7.55
  binsize = 3.775, bins = 4 4 4
  2 neighbor lists, perpetual/occasional/extra = 1 1 0
  (1) pair eam, perpetual
      attributes: half, newton on
      pair build: half/bin/atomonly/newton
      stencil: half/bin/3d/newton
      bin: standard
  (2) compute rdf, occasional, copy from (1)
      attributes: half, newton on
      pair build: copy
      stencil: none
      bin: none
Setting up Verlet run ...
  Unit style    : metal
  Current step  : 0
  Time step     : 0.0130367
Per MPI rank memory allocation (min/avg/max) = 3.723 | 3.723 | 3.723 Mbytes
Step PotEng KinEng TotEng Temp Press Density c_msdall[4] 
       0       -307.8    4.1492507   -303.65075          300     2399.079    10.472245            0 
     100   -305.88675    2.2781904   -303.60856    164.71821     8150.602    10.472245 0.0087171744 
     200     -305.655    2.0507439   -303.60426    148.27332    8951.6392    10.472245 0.0097239186 
     300   -305.63104    2.0298309   -303.60121    146.76126    9041.9271    10.472245 0.0088972668 
     400   -305.76213    2.1571964   -303.60494    155.97007    8525.2647    10.472245  0.008916727 
     500   -305.72309    2.1204603   -303.60263    153.31397    8650.3149    10.472245 0.0094542975 
     600   -305.32471    1.7298046   -303.59491     125.0687    9870.6963    10.472245   0.01106492 
     700   -305.84363    2.2390881   -303.60454    161.89102    8318.0974    10.472245 0.0086316499 
     768    -305.7903    2.1835538   -303.60675    157.87577    8486.4948    10.472245  0.010199407 
Loop time of 0.147838 on 1 procs for 768 steps with 108 atoms

Performance: 5851.373 ns/day, 0.004 hours/ns, 5194.879 timesteps/s
97.1% CPU use with 1 MPI tasks x no OpenMP threads

MPI task timing breakdown:
Section |  min time  |  avg time  |  max time  |%varavg| %total
---------------------------------------------------------------
Pair    | 0.099351   | 0.099351   | 0.099351   |   0.0 | 67.20
Neigh   | 0          | 0          | 0          |   0.0 |  0.00
Comm    | 0.0032204  | 0.0032204  | 0.0032204  |   0.0 |  2.18
Output  | 0.00012394 | 0.00012394 | 0.00012394 |   0.0 |  0.08
Modify  | 0.044404   | 0.044404   | 0.044404   |   0.0 | 30.04
Other   |            | 0.0007384  |            |       |  0.50

Nlocal:    108 ave 108 max 108 min
Histogram: 1 0 0 0 0 0 0 0 0 0
Nghost:    990 ave 990 max 990 min
Histogram: 1 0 0 0 0 0 0 0 0 0
Neighs:    4644 ave 4644 max 4644 min
Histogram: 1 0 0 0 0 0 0 0 0 0

Total # of neighbors = 4644
Ave neighs/atom = 43
Neighbor list builds = 0
Dangerous builds = 0
Total wall time: 0:00:00
