LAMMPS (3 Mar 2020)
Reading data file ...
  orthogonal box = (0 0 0) to (12.27 12.27 12.27)
  1 by 1 by 1 MPI processor grid
  reading atoms ...
  108 atoms
  read_data CPU = 0.00091927 secs
Reading potential file /usr/share/lammps-stable/potentials/Ag_u3.eam with DATE: 2007-06-11
Neighbor list info ...
  update every 1 steps, delay 10 steps, check yes
  max neighbors/atom: 2000, page size: 100000
  master list distance cutoff = 7.55
  ghost atom cutoff = 7.55
  binsize = 3.775, bins = 4 4 4
  2 neighbor lists, perpetual/occasional/extra = 1 1 0
  (1) pair eam, perpetual
      attributes: half, newton on
      pair build: half/bin/atomonly/newton
      stencil: half/bin/3d/newton
      bin: standard
  (2) compute rdf, occasional, copy from (1)
      attributes: half, newton on
      pair build: copy
      stencil: none
      bin: none
Setting up Verlet run ...
  Unit style    : metal
  Current step  : 0
  Time step     : 0.001
Per MPI rank memory allocation (min/avg/max) = 3.723 | 3.723 | 3.723 Mbytes
Step PotEng KinEng TotEng Temp Press Density c_msdall[4] 
       0       -307.8    16.043769   -291.75623         1160    9276.6056    10.472245            0 
     100   -297.55895    9.8343168   -287.72464    711.04286    40390.828    10.472245  0.063015613 
     200   -294.44512    16.395712    -278.0494    1185.4462    55106.692    10.472245  0.072734423 
     300   -290.87794    19.820603   -271.05734    1433.0734    69189.496    10.472245  0.085252527 
     400   -291.75941    15.115004    -276.6444    1092.8482    63167.811    10.472245  0.091102032 
     500   -293.84452    17.903816    -275.9407    1294.4855    59380.958    10.472245  0.068669909 
     600   -292.60364    14.837814   -277.76582    1072.8068    59382.292    10.472245  0.083713621 
     700   -291.13179    16.847685    -274.2841    1218.1249    66945.461    10.472245  0.090542413 
     800   -292.45315    16.558215   -275.89493    1197.1955    61714.695    10.472245  0.078382688 
     900   -291.38112    14.058745   -277.32237    1016.4784    63579.074    10.472245  0.086733482 
    1000   -290.74362    16.218082   -274.52554    1172.6032    68419.008    10.472245  0.081518861 
    1100   -292.18817    15.886733   -276.30144    1148.6459    63509.326    10.472245  0.080762451 
    1200   -292.36736    14.006198   -278.36116    1012.6791    61668.623    10.472245  0.086890544 
    1300   -291.57464    16.926816   -274.64783    1223.8463    65465.366    10.472245  0.075689262 
    1400   -293.16668    16.666153   -276.50052    1204.9998    60800.361    10.472245  0.068346324 
    1500   -293.16801    16.040232   -277.12778    1159.7442    59671.574    10.472245  0.085408891 
    1600   -291.01408    17.420141   -273.59394    1259.5147    67458.483    10.472245  0.098372252 
    1700    -291.8544    17.112136   -274.74226    1237.2453    63893.966    10.472245  0.087545174 
    1800    -293.3749    15.579794   -277.79511    1126.4536    58387.448    10.472245  0.084155582 
    1900   -291.66673    15.167419   -276.49931     1096.638    63232.554    10.472245  0.084972217 
    2000   -291.98353    16.349299   -275.63423    1182.0905    64055.961    10.472245  0.073117849 
    2100   -292.59162    13.572813   -279.01881    981.34438    59452.061    10.472245  0.080295612 
    2200   -290.91119    14.642494    -276.2687    1058.6847    65450.534    10.472245  0.091423915 
    2300   -290.56574    17.367949   -273.19779    1255.7411    68935.015    10.472245   0.08890674 
    2400   -291.57483    15.156299   -276.41853    1095.8339    63696.102    10.472245  0.084397255 
    2500   -292.44714    15.991425   -276.45572    1156.2154    61465.097    10.472245  0.082645486 
    2600   -292.86088    18.470609   -274.39027    1335.4659    61329.368    10.472245  0.074259131 
    2700   -291.91243    15.398303   -276.51413    1113.3314    64409.435    10.472245  0.083175931 
    2800   -292.15278     16.58811   -275.56467     1199.357    62607.798    10.472245   0.08014317 
    2900   -290.13725    16.633304   -273.50395    1202.6247    70556.005    10.472245  0.092335276 
    3000   -292.66966    15.582092   -277.08756    1126.6197    61069.075    10.472245  0.081583109 
    3100   -293.98024     17.34888   -276.63136    1254.3624    57381.286    10.472245  0.071513363 
    3200   -292.11278    17.997633   -274.11515    1301.2687    64146.448    10.472245  0.083096575 
    3300    -290.3686     16.17944   -274.18916    1169.8093    68419.323    10.472245  0.092684277 
    3400   -293.33724    16.767542    -276.5697    1212.3304    59186.552    10.472245  0.077144804 
    3500   -292.50835    13.832326   -278.67602    1000.1077     59588.21    10.472245  0.086869281 
    3600   -292.02895    17.524419   -274.50453    1267.0543    64434.996    10.472245  0.082379481 
    3700     -292.142    14.930419   -277.21158    1079.5023    60459.184    10.472245  0.093290147 
    3800   -290.16836    15.831946   -274.33642    1144.6847    69892.783    10.472245   0.10675842 
    3900   -290.47517    17.229442   -273.24573    1245.7267    68727.847    10.472245   0.11824118 
    4000   -290.75952    16.548358   -274.21116    1196.4829    66864.225    10.472245   0.10424885 
    4100   -293.05825    15.089512   -277.96874    1091.0051    58978.846    10.472245  0.085982563 
    4200   -292.91196    15.447461    -277.4645    1116.8856    59289.323    10.472245  0.090169989 
    4300   -289.85617    15.070041   -274.78613    1089.5973    69930.098    10.472245   0.10637323 
    4400    -291.7956     16.75022   -275.04538     1211.078    63632.635    10.472245  0.099677243 
    4500   -291.11901    15.419569   -275.69944    1114.8689    64971.479    10.472245   0.10396416 
    4600   -291.49939    16.547353   -274.95204    1196.4102    65911.705    10.472245  0.086708548 
    4700   -294.54011     15.04676   -279.49335     1087.914    54428.773    10.472245  0.077370828 
    4800   -291.96506    14.955073   -277.00998    1081.2849    62037.861    10.472245  0.088912856 
    4900   -291.75317    17.153238   -274.59993     1240.217    65118.712    10.472245   0.09395641 
    5000   -291.01684    15.790951   -275.22589    1141.7207    65914.184    10.472245  0.094321544 
    5100   -290.36352    16.853535   -273.50999    1218.5478    68753.584    10.472245  0.089782095 
    5200   -292.53576    15.641734   -276.89402     1130.932    60314.055    10.472245  0.083390047 
    5300    -292.3589    17.304999    -275.0539    1251.1897    63545.655    10.472245  0.085356353 
    5400   -289.48819    18.884445   -270.60374    1365.3872     73094.72    10.472245  0.097692378 
    5500   -291.92367    17.102834   -274.82083    1236.5727    64337.097    10.472245  0.092129839 
    5600    -292.1075    16.039087   -276.06841    1159.6615    63750.878    10.472245  0.074965813 
    5700   -292.68284    14.384206   -278.29863    1040.0099    60758.053    10.472245  0.073230222 
    5800   -291.42622    15.289129   -276.13709    1105.4379    65221.507    10.472245  0.090974281 
    5900    -290.6368    16.015339   -274.62146    1157.9444    68847.985    10.472245  0.095920803 
    6000   -291.85175    17.195834   -274.65591    1243.2969    64467.085    10.472245  0.082641471 
    6100   -293.00527    14.506555   -278.49871     1048.856    57599.528    10.472245  0.083292081 
    6200   -291.09847    15.966006   -275.13247    1154.3775    66959.416    10.472245  0.088450946 
    6300   -290.64334     15.87127   -274.77207    1147.5279    67860.089    10.472245  0.098138049 
    6400   -291.58618     14.41708    -277.1691    1042.3868    63730.096    10.472245  0.093147601 
    6500   -292.08337    13.943598   -278.13977     1008.153    61509.258    10.472245   0.08739458 
    6600   -290.61157    15.414715   -275.19685     1114.518    68136.178    10.472245  0.084146544 
    6700   -292.33315    15.748019   -276.58513    1138.6166    61946.087    10.472245  0.080940345 
    6800   -291.28124     15.69763   -275.58361    1134.9733    65018.367    10.472245   0.10465736 
    6900   -289.51677     16.14321   -273.37356    1167.1898    69552.721    10.472245   0.10380776 
    7000   -291.52821    15.695299   -275.83291    1134.8048    64113.074    10.472245  0.086376261 
    7100   -292.15698    13.887597   -278.26938     1004.104    61622.873    10.472245  0.082566542 
    7200   -289.81588    15.974658   -273.84123    1155.0031    70476.571    10.472245  0.095924189 
    7300   -290.92922    15.056757   -275.87246    1088.6369    66234.834    10.472245   0.11060134 
    7400    -290.5718    17.813515   -272.75828    1287.9566    68752.445    10.472245  0.094377183 
    7500   -291.63048    14.788841   -276.84164    1069.2659    62304.644    10.472245  0.090224567 
    7600   -292.94616    16.069335   -276.87683    1161.8485    59888.158    10.472245  0.076722843 
    7700    -290.8193      14.6549    -276.1644    1059.5817    64746.999    10.472245  0.094149914 
    7800   -291.27311    18.098964   -273.17414    1308.5951    65858.793    10.472245  0.086518674 
    7900   -292.07857    15.551958   -276.52661    1124.4409    63681.853    10.472245  0.085211339 
    8000   -291.17245    15.241269   -275.93118    1101.9775    65223.037    10.472245  0.086399818 
    8100   -292.58283    15.900478   -276.68235    1149.6397    61189.339    10.472245  0.082597264 
    8200   -290.44433    17.530345   -272.91399    1267.4827    69454.455    10.472245  0.094046157 
    8300    -290.8614    13.900457   -276.96095    1005.0338    65450.025    10.472245    0.1012664 
    8400   -292.77223    16.394994   -276.37724    1185.3943     62047.77    10.472245  0.081333295 
    8500   -292.74482    16.727524    -276.0173     1209.437    60850.027    10.472245  0.079687228 
    8600   -293.19173     19.99256   -273.19917    1445.5063    61463.046    10.472245  0.077951933 
    8700    -291.1131    15.628516   -275.48459    1129.9762    65694.475    10.472245   0.10112831 
    8800   -290.17739    17.569274   -272.60811    1270.2973    68797.296    10.472245  0.092467682 
    8900   -291.36752    15.820649   -275.54687    1143.8679    65112.732    10.472245   0.08093774 
    9000   -293.27077    15.297242   -277.97353    1106.0244    58946.243    10.472245  0.073333944 
    9100   -292.58851    16.940788   -275.64772    1224.8564    61676.433    10.472245  0.075751552 
    9200   -292.27047    16.246648   -276.02382    1174.6686      63220.3    10.472245   0.08142472 
    9300   -291.38601    16.847571   -274.53844    1218.1167    65055.222    10.472245  0.085014301 
    9400   -291.77695    18.515033   -273.26192    1338.6778    65038.117    10.472245  0.081248797 
    9500   -292.01524    14.919755   -277.09549    1078.7313    62138.448    10.472245  0.092811382 
    9600   -292.70496    18.328419   -274.37654    1325.1853    62590.591    10.472245  0.078775873 
    9700   -291.89795     15.24314   -276.65481    1102.1127     64261.26    10.472245  0.091797075 
    9800    -292.3179    18.418111   -273.89979    1331.6702    63517.597    10.472245  0.086755611 
    9900    -292.2677    16.516635   -275.75106    1194.1892    62670.848    10.472245  0.084359471 
   10000   -292.43412    14.571098   -277.86303    1053.5226    61058.658    10.472245  0.081190336 
Loop time of 2.11462 on 1 procs for 10000 steps with 108 atoms

Performance: 408.584 ns/day, 0.059 hours/ns, 4728.978 timesteps/s
100.0% CPU use with 1 MPI tasks x no OpenMP threads

MPI task timing breakdown:
Section |  min time  |  avg time  |  max time  |%varavg| %total
---------------------------------------------------------------
Pair    | 1.4025     | 1.4025     | 1.4025     |   0.0 | 66.32
Neigh   | 0          | 0          | 0          |   0.0 |  0.00
Comm    | 0.04214    | 0.04214    | 0.04214    |   0.0 |  1.99
Output  | 0.0017159  | 0.0017159  | 0.0017159  |   0.0 |  0.08
Modify  | 0.65871    | 0.65871    | 0.65871    |   0.0 | 31.15
Other   |            | 0.009579   |            |       |  0.45

Nlocal:    108 ave 108 max 108 min
Histogram: 1 0 0 0 0 0 0 0 0 0
Nghost:    990 ave 990 max 990 min
Histogram: 1 0 0 0 0 0 0 0 0 0
Neighs:    4644 ave 4644 max 4644 min
Histogram: 1 0 0 0 0 0 0 0 0 0

Total # of neighbors = 4644
Ave neighs/atom = 43
Neighbor list builds = 0
Dangerous builds = 0
Total wall time: 0:00:02
