LAMMPS (3 Mar 2020)

# ---------- 1. Initialize simulation ----------
units metal
atom_style atomic
dimension 3
boundary p p p
read_data /home/modeler/RemLabs/Project/eval_timestep_npt/n3_T1800_timestep3.079241e-03_steps4872/20201205-224016/lammps.data
  orthogonal box = (0 0 0) to (17.469 17.469 17.469)
  1 by 1 by 1 MPI processor grid
  reading atoms ...
  217 atoms
  read_data CPU = 0.000977255 secs

pair_style meam/c
pair_coeff * * library.meam Li Si LiSi.meam Li Si
Reading potential file library.meam with DATE: 2012-06-29
Reading potential file LiSi.meam with DATE: 2020-11-07

group Li type 1
1 atoms in group Li

velocity all create 1800 3320 dist gaussian

# ---------- 2. Describe computed properties----------
compute msdli Li msd
thermo_style custom step pe ke etotal temp press density c_msdli[4]
thermo 100

# ---------- 3. Specify ensemble  ----------
fix 1 all npt temp 1800 1800 0.15396205276650665 tchain 2 iso 1.0 1.0 1.0 pchain 2
# fix 1 all nvt temp 1800 1800 0.15396205276650665
# fix 1 all nve

# ---------- 4. Run -------------
timestep 0.003079241055330133
run 4872
Neighbor list info ...
  update every 1 steps, delay 10 steps, check yes
  max neighbors/atom: 2000, page size: 100000
  master list distance cutoff = 6
  ghost atom cutoff = 6
  binsize = 3, bins = 6 6 6
  2 neighbor lists, perpetual/occasional/extra = 2 0 0
  (1) pair meam/c, perpetual
      attributes: full, newton on
      pair build: full/bin/atomonly
      stencil: full/bin/3d
      bin: standard
  (2) pair meam/c, perpetual, half/full from (1)
      attributes: half, newton on
      pair build: halffull/newton
      stencil: none
      bin: none
Per MPI rank memory allocation (min/avg/max) = 9.27 | 9.27 | 9.27 Mbytes
Step PotEng KinEng TotEng Temp Press Density c_msdli[4] 
       0   -951.04357    50.256344   -900.78722         1800   -114161.75    1.8918427            0 
     100    -952.1927    36.223694     -915.969    1297.4014    13149.022    2.2207496   0.50065855 
     200   -953.19476    44.045879   -909.14888    1577.5637    26857.197     2.252567   0.30225416 
     300    -946.2794     41.62012   -904.65928    1490.6818   -17497.732    2.1295624   0.51748257 
     400    -950.4465    49.682559   -900.76394    1779.4491   -17139.048    2.1347585   0.46201756 
     500   -946.74574    51.076346   -895.66939    1829.3695    21628.062    2.2228923   0.13053025 
     600   -940.66338    48.980682    -891.6827    1754.3104     2517.055    2.1651012  0.035419297 
     700   -939.68626    49.233169   -890.45309    1763.3536   -18444.619    2.1112278   0.29387643 
     800   -939.45031    53.803421   -885.64689    1927.0434    3241.2226    2.1632495   0.10085945 
     900   -940.77642    45.310156   -895.46626    1622.8455    16486.304    2.2047316    0.3010661 
    1000   -937.76765    44.048422   -893.71923    1577.6547   -10227.231    2.1314374  0.070473219 
    1100    -942.4219     53.13497   -889.28693    1903.1019   -8041.6099    2.1393739    0.1585896 
    1200   -945.21833    56.368303   -888.85003    2018.9082    12164.571    2.1976767    0.4128268 
    1300    -946.8939    48.806646   -898.08725    1748.0771    7.9254521    2.1758784   0.20226798 
    1400   -937.87044    49.151801   -888.71864    1760.4393   -14124.435    2.1178317   0.27567531 
    1500   -936.44151    48.587495   -887.85401    1740.2279    9326.6144     2.176168   0.22595537 
    1600   -941.80435    49.833759    -891.9706    1784.8645    13607.641    2.1933876   0.34739903 
    1700   -938.54778    49.595954   -888.95183    1776.3472   -10769.212    2.1272841   0.42612329 
    1800   -935.98061    51.786411    -884.1942    1854.8014   -7877.8313    2.1295763   0.40045613 
    1900   -941.49951    51.526091   -889.97342    1845.4777    11876.823    2.1914524   0.18451629 
    2000   -940.51508    48.260978    -892.2541    1728.5332    3864.9584     2.169519   0.29269844 
    2100   -936.41256    52.880888   -883.53168    1894.0016   -14070.966    2.1133507   0.11923873 
    2200    -936.4558    47.905471   -888.55032    1715.8003    6508.2655    2.1690643   0.15233519 
    2300   -940.38427    49.848919   -890.53535    1785.4075    8313.1365    2.1833353   0.08353196 
    2400   -935.53445    49.567892   -885.96656    1775.3421   -8300.2686    2.1371736    2.9819444 
    2500   -939.46281    54.902193   -884.56062    1966.3974   -5493.8108    2.1375778    4.3391917 
    2600   -940.49077    47.363722   -893.12705    1696.3968    11548.514    2.1872104    3.4968047 
    2700   -937.15433    51.530003   -885.62433    1845.6178   -1675.2521    2.1504451    2.7991378 
    2800    -938.5161    51.917459   -886.59864    1859.4951   -9082.7481    2.1302026   0.52624209 
    2900   -942.63351    49.410366   -893.22314    1769.7001    3770.2455    2.1720127   0.15077823 
    3000   -940.41848    48.183773   -892.23471     1725.768     11374.02    2.1894682   0.44717253 
    3100   -932.42158    47.290592   -885.13099    1693.7775   -5540.9492    2.1314193    1.1125314 
    3200   -943.24482    50.608663   -892.63615    1812.6188   -10499.184    2.1460823   0.94457945 
    3300   -937.34436    47.954408   -889.38995     1717.553     11983.08    2.1860235     4.918458 
    3400   -931.69796    49.486071   -882.21188    1772.4116     2937.839     2.152288    6.6745199 
    3500   -940.00257    47.784239   -892.21833    1711.4582   -5657.9442    2.1395946    5.3278919 
    3600   -941.16875    51.160461   -890.00829    1832.3822    1437.9698     2.162994    6.4319767 
    3700   -936.72366    54.256041   -882.46762    1943.2546    5439.0403    2.1679853    14.813475 
    3800   -937.77769    47.261818   -890.51587    1692.7469   -6784.9438    2.1414213    14.372516 
    3900   -941.54972    48.129951   -893.41977    1723.8403    -6620.444     2.150036    19.248468 
    4000    -939.4058    54.073561   -885.33224    1936.7188    9985.5551    2.1838482    19.031941 
    4100   -938.11876     46.96569   -891.15307    1682.1407    2821.4127    2.1658818    16.900868 
    4200   -944.05652    47.588889   -896.46763    1704.4614   -10952.125    2.1424551    21.192307 
    4300   -941.58533    53.510863   -888.07447     1916.565    221.65815    2.1609261    18.696282 
    4400   -939.84578    51.318073   -888.52771    1838.0273    8385.4747    2.1814823    19.604296 
    4500   -945.43099    48.002102   -897.42889    1719.2612   -5875.4778    2.1572661    20.277665 
    4600   -938.35662     49.30578   -889.05084    1765.9542    -7680.365    2.1373037    17.107333 
    4700   -940.31008    53.514117   -886.79596    1916.6816    6897.0918    2.1772849    17.540107 
    4800   -942.19816    47.963614   -894.23454    1717.8827    3110.8654    2.1785944    21.043588 
    4872   -946.02628     54.75309   -891.27319    1961.0571   -6232.2526    2.1533578    15.999614 
Loop time of 3.45413 on 1 procs for 4872 steps with 217 atoms

Performance: 375.255 ns/day, 0.064 hours/ns, 1410.486 timesteps/s
100.0% CPU use with 1 MPI tasks x no OpenMP threads

MPI task timing breakdown:
Section |  min time  |  avg time  |  max time  |%varavg| %total
---------------------------------------------------------------
Pair    | 3.2745     | 3.2745     | 3.2745     |   0.0 | 94.80
Neigh   | 0.10311    | 0.10311    | 0.10311    |   0.0 |  2.99
Comm    | 0.023536   | 0.023536   | 0.023536   |   0.0 |  0.68
Output  | 0.0013499  | 0.0013499  | 0.0013499  |   0.0 |  0.04
Modify  | 0.044236   | 0.044236   | 0.044236   |   0.0 |  1.28
Other   |            | 0.007415   |            |       |  0.21

Nlocal:    217 ave 217 max 217 min
Histogram: 1 0 0 0 0 0 0 0 0 0
Nghost:    957 ave 957 max 957 min
Histogram: 1 0 0 0 0 0 0 0 0 0
Neighs:    4219 ave 4219 max 4219 min
Histogram: 1 0 0 0 0 0 0 0 0 0
FullNghs:  8438 ave 8438 max 8438 min
Histogram: 1 0 0 0 0 0 0 0 0 0

Total # of neighbors = 8438
Ave neighs/atom = 38.8848
Neighbor list builds = 176
Dangerous builds = 1
Total wall time: 0:00:03
