LAMMPS (3 Mar 2020)

# ---------- 1. Initialize simulation ----------
units metal
atom_style atomic
dimension 3
boundary p p p
read_data /home/modeler/RemLabs/Project/Si_3x3x3_supercell_MD/1800.0/20201204-011620/lammps.data
  orthogonal box = (0 0 0) to (17.469 17.469 17.469)
  1 by 1 by 1 MPI processor grid
  reading atoms ...
  217 atoms
  read_data CPU = 0.000987584 secs

pair_style meam/c
pair_coeff * * library.meam Li Si LiSi.meam Li Si
Reading potential file library.meam with DATE: 2012-06-29
Reading potential file LiSi.meam with DATE: 2020-11-07

group Li type 1
1 atoms in group Li

velocity all create 1800.0 3320 dist gaussian

# ---------- 2. Describe computed properties----------
compute msdli Li msd
thermo_style custom step pe ke etotal temp press density c_msdli[4]
thermo 100

# ---------- 3. Specify ensemble  ----------
#fix 1 all nve
fix 1 all nvt temp 1800.0 1800.0 0.25
#fix 1 all npt temp 1800.0 1800.0 0.25 tchain 2 iso 1.0 1.0 1.0 pchain 2

# ---------- 4. Run -------------
timestep 0.005
run 1000
Neighbor list info ...
  update every 1 steps, delay 10 steps, check yes
  max neighbors/atom: 2000, page size: 100000
  master list distance cutoff = 6
  ghost atom cutoff = 6
  binsize = 3, bins = 6 6 6
  2 neighbor lists, perpetual/occasional/extra = 2 0 0
  (1) pair meam/c, perpetual
      attributes: full, newton on
      pair build: full/bin/atomonly
      stencil: full/bin/3d
      bin: standard
  (2) pair meam/c, perpetual, half/full from (1)
      attributes: half, newton on
      pair build: halffull/newton
      stencil: none
      bin: none
Per MPI rank memory allocation (min/avg/max) = 9.266 | 9.266 | 9.266 Mbytes
Step PotEng KinEng TotEng Temp Press Density c_msdli[4] 
       0   -951.06911    50.256344   -900.81276         1800    -114182.3    1.8918427            0 
     100   -917.13297    34.230438   -882.90253    1226.0101   -80704.291    1.8918427   0.04628245 
     200   -904.75948    47.457966   -857.30151    1699.7722   -65773.925    1.8918427   0.22929973 
     300   -897.17304    53.677256   -843.49578    1922.5247   -61270.176    1.8918427  0.085719389 
     400   -907.86824     53.42597   -854.44227    1913.5245   -68016.168    1.8918427   0.60092321 
     500   -901.90744    47.221672   -854.68577     1691.309    -65141.15    1.8918427    12.747248 
     600   -901.48647     56.01336   -845.47311    2006.1954   -61384.046    1.8918427    2.9461172 
     700   -901.43799    48.999256   -852.43874    1754.9757    -66881.66    1.8918427    7.5529741 
     800    -903.4569    49.570959   -853.88594     1775.452   -62039.386    1.8918427    13.337731 
     900   -896.21204    50.949363   -845.26267    1824.8214   -57846.981    1.8918427    20.569606 
    1000   -902.34004    46.040279   -856.29976    1648.9958   -64313.298    1.8918427    24.409077 
Loop time of 0.584698 on 1 procs for 1000 steps with 217 atoms

Performance: 738.843 ns/day, 0.032 hours/ns, 1710.286 timesteps/s
100.0% CPU use with 1 MPI tasks x no OpenMP threads

MPI task timing breakdown:
Section |  min time  |  avg time  |  max time  |%varavg| %total
---------------------------------------------------------------
Pair    | 0.53889    | 0.53889    | 0.53889    |   0.0 | 92.17
Neigh   | 0.034806   | 0.034806   | 0.034806   |   0.0 |  5.95
Comm    | 0.0051865  | 0.0051865  | 0.0051865  |   0.0 |  0.89
Output  | 0.00029196 | 0.00029196 | 0.00029196 |   0.0 |  0.05
Modify  | 0.0043432  | 0.0043432  | 0.0043432  |   0.0 |  0.74
Other   |            | 0.001181   |            |       |  0.20

Nlocal:    217 ave 217 max 217 min
Histogram: 1 0 0 0 0 0 0 0 0 0
Nghost:    909 ave 909 max 909 min
Histogram: 1 0 0 0 0 0 0 0 0 0
Neighs:    3617 ave 3617 max 3617 min
Histogram: 1 0 0 0 0 0 0 0 0 0
FullNghs:  7234 ave 7234 max 7234 min
Histogram: 1 0 0 0 0 0 0 0 0 0

Total # of neighbors = 7234
Ave neighs/atom = 33.3364
Neighbor list builds = 63
Dangerous builds = 17
Total wall time: 0:00:00
