LAMMPS (3 Mar 2020)

    # ---------- Initialize simulation ---------------------
    units metal
    atom_style atomic
    dimension  3
    boundary   p p p
    read_data /home/modeler/RemLabs/Lab4/Problem2A/temp_1270/lammps.data
  orthogonal box = (0 0 0) to (12.27 12.27 12.27)
  1 by 1 by 1 MPI processor grid
  reading atoms ...
  108 atoms
  read_data CPU = 0.000857255 secs

    pair_style eam
    pair_coeff * * /usr/share/lammps-stable/potentials/Ag_u3.eam
Reading potential file /usr/share/lammps-stable/potentials/Ag_u3.eam with DATE: 2007-06-11

    velocity  all create 1270 87287 dist gaussian

    # ---------- Describe computed properties------------------
    compute msdall all msd
    thermo_style custom step pe ke etotal temp press density c_msdall[4]
    thermo 100

    # ---------- Specify ensemble  ---------------------
    #fix  1 all nve
    fix  1 all nvt temp 1270 1270 0.05

    # --------- Compute RDF ---------------
    compute rdfall all rdf 100 1 1
    fix 2 all ave/time 1 2500 2500 c_rdfall[*] file /home/modeler/RemLabs/Lab4/Problem2A/temp_1270/lammps.rdf mode vector

    # --------- Run -------------
    timestep 0.001
    run 10000
Neighbor list info ...
  update every 1 steps, delay 10 steps, check yes
  max neighbors/atom: 2000, page size: 100000
  master list distance cutoff = 7.55
  ghost atom cutoff = 7.55
  binsize = 3.775, bins = 4 4 4
  2 neighbor lists, perpetual/occasional/extra = 1 1 0
  (1) pair eam, perpetual
      attributes: half, newton on
      pair build: half/bin/atomonly/newton
      stencil: half/bin/3d/newton
      bin: standard
  (2) compute rdf, occasional, copy from (1)
      attributes: half, newton on
      pair build: copy
      stencil: none
      bin: none
Per MPI rank memory allocation (min/avg/max) = 3.723 | 3.723 | 3.723 Mbytes
Step PotEng KinEng TotEng Temp Press Density c_msdall[4] 
       0       -307.8    17.565161   -290.23484         1270    10156.289    10.472245            0 
     100   -296.51756    10.723183   -285.79438    775.30983    44389.352    10.472245  0.069237285 
     200   -293.08899    17.860854   -275.22814    1291.3792      60365.7    10.472245  0.080786371 
     300    -288.9889    21.351986   -267.63692    1543.7958    76337.436    10.472245  0.095799346 
     400   -289.96238    16.327109   -273.63527    1180.4861    69760.914    10.472245   0.10269763 
     500   -292.38254    19.588516   -272.79403    1416.2931    65306.776    10.472245  0.076351747 
     600   -291.57631    16.590824   -274.98548    1199.5532    63724.483    10.472245  0.089838448 
     700   -289.65905    18.015938   -271.64311    1302.5921    72519.443    10.472245   0.10146131 
     800      -290.57    18.080276   -272.48972     1307.244    68753.377    10.472245  0.090318226 
     900   -290.01205    15.942976   -274.06908    1152.7124    68722.357    10.472245  0.096643273 
    1000   -289.42162    18.416267   -271.00535    1331.5368    74050.043    10.472245  0.091248677 
    1100   -291.70393    15.170193   -276.53373    1096.8385    64689.991    10.472245  0.090290623 
    1200   -290.72763    16.731352   -273.99627    1209.7137    68610.826    10.472245  0.092288855 
    1300   -288.92207    18.344104   -270.57796    1326.3193    74667.857    10.472245  0.093290388 
    1400   -292.12897    16.770015   -275.35895    1212.5092    63939.157    10.472245  0.077636467 
    1500   -291.44718    18.495721   -272.95145    1337.2816     66899.92    10.472245  0.090487251 
    1600    -288.3328    18.261077   -270.07173    1320.3162    76761.378    10.472245   0.11659989 
    1700   -289.06674     19.33843   -269.72831    1398.2113    74657.153    10.472245    0.1103775 
    1800   -291.90037    18.662642   -273.23773    1349.3503    64205.299    10.472245  0.098389669 
    1900   -289.69941     17.67043   -272.02898    1277.6112    70918.046    10.472245   0.10192618 
    2000    -290.8727    17.910353   -272.96235    1294.9582    68151.007    10.472245  0.076091068 
    2100   -290.89822    15.847345   -275.05088    1145.7981    67470.276    10.472245   0.08699463 
    2200   -289.48086    18.436728   -271.04413    1333.0162     72531.54    10.472245   0.10359711 
    2300   -290.54911    20.343258   -270.20585    1470.8625    71276.584    10.472245   0.08743765 
    2400   -291.44113    17.097149   -274.34399    1236.1617    66284.524    10.472245  0.080656408 
    2500   -291.51723    20.108897   -271.40833    1453.9177    67357.557    10.472245  0.079846945 
    2600   -290.25232    15.967743   -274.28458    1154.5031    68597.413    10.472245  0.088873194 
    2700   -293.43132    16.189654   -277.24167    1170.5478    58273.742    10.472245  0.070014926 
    2800   -289.31223    16.123341   -273.18889    1165.7532    73121.212    10.472245  0.094973942 
    2900   -287.90706    15.952512   -271.95455    1153.4019    77250.141    10.472245   0.11188412 
    3000   -289.30942    16.671514   -272.63791    1205.3873    72692.803    10.472245   0.10307965 
    3100   -292.48435     17.25562   -275.22873    1247.6195    62286.583    10.472245  0.080391969 
    3200   -291.28591    16.128295   -275.15761    1166.1114    65071.827    10.472245  0.096585387 
    3300   -289.63876    17.884484   -271.75427    1293.0878    70835.813    10.472245   0.10730001 
    3400   -290.70929    19.482688    -271.2266    1408.6415    69248.846    10.472245  0.093818096 
    3500   -291.14423    16.852627    -274.2916    1218.4822    66817.235    10.472245  0.088996119 
    3600   -290.92065    19.731413   -271.18924    1426.6248    68492.193    10.472245  0.075981669 
    3700   -292.68728    16.838801   -275.84848    1217.4826    61574.453    10.472245  0.073949835 
    3800   -289.22478    15.663846   -273.56094    1132.5307    72628.526    10.472245  0.092732143 
    3900   -288.82768    18.030473   -270.79721    1303.6431    74740.519    10.472245    0.1111601 
    4000   -288.76963    16.667845   -272.10179    1205.1221    74057.956    10.472245   0.12134274 
    4100   -288.15998    19.823421   -268.33656    1433.2772    79096.789    10.472245   0.10302884 
    4200   -290.90264    18.172701   -272.72994    1313.9265    68644.268    10.472245  0.080631184 
    4300   -290.68387    15.344572    -275.3393    1109.4465     67894.35    10.472245  0.083688486 
    4400   -290.54537    20.062018   -270.48335    1450.5283    70315.235    10.472245  0.089278777 
    4500   -288.65715      17.0651   -271.59205    1233.8444    75094.049    10.472245   0.11076771 
    4600   -288.61741     16.93634   -271.68107    1224.5348    75055.793    10.472245   0.10140038 
    4700   -290.62771    16.449422   -274.17828    1189.3296    68045.831    10.472245  0.088262958 
    4800   -288.52321    17.160383   -271.36283    1240.7337    75920.848    10.472245  0.099494316 
    4900   -285.85837    16.004437   -269.85393    1157.1562    82057.924    10.472245   0.12122818 
    5000   -291.22688    16.907774   -274.31911    1222.4695    67052.342    10.472245  0.085288849 
    5100   -292.87032    17.393077   -275.47724    1257.5579    61628.321    10.472245  0.076074055 
    5200   -287.32874    16.887659   -270.44108    1221.0151    79228.764    10.472245   0.10067837 
    5300   -290.25418    18.234158   -272.02003      1318.37    70090.559    10.472245  0.084300387 
    5400   -291.12131    16.886729   -274.23458    1220.9479    66511.476    10.472245  0.085142889 
    5500   -290.03402    18.304782   -271.72924    1323.4762    72033.006    10.472245   0.09062075 
    5600   -287.88729    18.900061   -268.98723    1366.5162    76649.808    10.472245   0.11312884 
    5700   -291.76073    17.883993   -273.87673    1293.0523    65087.575    10.472245   0.09808637 
    5800   -291.48597    19.033138   -272.45283     1376.138    66680.023    10.472245  0.093488562 
    5900   -287.16864    21.240049   -265.92859    1535.7025    81172.666    10.472245   0.11107762 
    6000   -289.84544    19.400645    -270.4448    1402.7095    72205.365    10.472245   0.10418837 
    6100   -290.75729    16.421223   -274.33606    1187.2907    68449.928    10.472245  0.085813233 
    6200   -292.46245    20.525953   -271.93649    1484.0718    64258.814    10.472245  0.073687165 
    6300   -288.46209    20.611076   -267.85102    1490.2264    79822.608    10.472245  0.097585226 
    6400   -288.56915    15.957093   -272.61206    1153.7331    73960.369    10.472245   0.10144305 
    6500   -290.37983    16.233089   -274.14674    1173.6882    69506.407    10.472245  0.089487806 
    6600   -289.82368    17.762487   -272.06119    1284.2671    70599.742    10.472245  0.090068046 
    6700   -287.65783    15.471318   -272.18651    1118.6105    75836.338    10.472245   0.10787601 
    6800   -291.02773    19.573614   -271.45412    1415.2156    69823.558    10.472245  0.086524905 
    6900    -289.2443    16.238128   -273.00617    1174.0526    74121.597    10.472245  0.091047573 
    7000   -290.63463    17.638632     -272.996    1275.3121    69970.366    10.472245   0.08041025 
    7100   -290.14517    15.853515   -274.29165    1146.2442    68882.765    10.472245  0.095945389 
    7200   -290.03618    17.207263   -272.82892    1244.1232    70161.535    10.472245  0.083024337 
    7300   -290.99557    16.009667   -274.98591    1157.5344    66874.207    10.472245  0.086967595 
    7400   -292.67887    18.107642   -274.57123    1309.2225    62468.588    10.472245  0.089375078 
    7500   -287.14565    16.596912   -270.54874    1199.9935    78715.174    10.472245   0.14153569 
    7600   -286.57741    18.038901   -268.53851    1304.2525    81945.271    10.472245   0.14871523 
    7700   -290.53044    19.017122   -271.51332      1374.98    69938.294    10.472245  0.095222103 
    7800   -294.03989     19.47162   -274.56827    1407.8412    57278.179    10.472245  0.069942771 
    7900   -291.40033    17.451563   -273.94876    1261.7866     66675.75    10.472245  0.080239214 
    8000   -289.25212    17.848597   -271.40352     1290.493    73476.656    10.472245  0.096688454 
    8100   -288.87118    17.349326   -271.52185    1254.3946    73703.345    10.472245   0.10840339 
    8200   -290.24831    20.805733   -269.44257    1504.3005    73057.263    10.472245  0.084607885 
    8300   -291.77296    17.493882   -274.27908    1264.8464    65032.881    10.472245  0.083040183 
    8400   -289.30041    15.805132   -273.49528     1142.746    72278.409    10.472245   0.10084523 
    8500    -290.2876     20.24626   -270.04134    1463.8494    71810.273    10.472245  0.097252297 
    8600   -290.55804    17.621341    -272.9367    1274.0619    67813.897    10.472245   0.10701586 
    8700   -288.72252    17.614628   -271.10789    1273.5766    76541.694    10.472245   0.10026899 
    8800   -288.67491    17.232205    -271.4427    1245.9265    75099.482    10.472245  0.095239557 
    8900   -290.95801    16.349384   -274.60863    1182.0966    67189.135    10.472245  0.084811983 
    9000   -290.05911    17.993212    -272.0659     1300.949    71611.536    10.472245  0.091486468 
    9100   -287.99194    19.141434   -268.85051     1383.968    79483.899    10.472245   0.10968988 
    9200   -290.62736    16.887748   -273.73962    1221.0215    67425.362    10.472245  0.097283214 
    9300   -291.45129    16.712418   -274.73887    1208.3448    65564.737    10.472245  0.076670204 
    9400   -290.53097    21.444438   -269.08653    1550.4803    71755.021    10.472245  0.096014219 
    9500   -288.43158    15.878056   -272.55352    1148.0186    73469.417    10.472245   0.13116084 
    9600    -292.1642    21.119494   -271.04471    1526.9861    65768.565    10.472245  0.092460153 
    9700   -291.61555    18.098332   -273.51722    1308.5494    66338.828    10.472245  0.083638573 
    9800   -290.90918    15.183912   -275.72527    1097.8304     65604.56    10.472245  0.099115874 
    9900   -290.29692    18.609323    -271.6876    1345.4952    69535.355    10.472245  0.094160338 
   10000   -291.08823    16.090876   -274.99735    1163.4059    66393.058    10.472245    0.1002864 
Loop time of 2.12706 on 1 procs for 10000 steps with 108 atoms

Performance: 406.195 ns/day, 0.059 hours/ns, 4701.336 timesteps/s
100.0% CPU use with 1 MPI tasks x no OpenMP threads

MPI task timing breakdown:
Section |  min time  |  avg time  |  max time  |%varavg| %total
---------------------------------------------------------------
Pair    | 1.4066     | 1.4066     | 1.4066     |   0.0 | 66.13
Neigh   | 0          | 0          | 0          |   0.0 |  0.00
Comm    | 0.043002   | 0.043002   | 0.043002   |   0.0 |  2.02
Output  | 0.0016556  | 0.0016556  | 0.0016556  |   0.0 |  0.08
Modify  | 0.66623    | 0.66623    | 0.66623    |   0.0 | 31.32
Other   |            | 0.009546   |            |       |  0.45

Nlocal:    108 ave 108 max 108 min
Histogram: 1 0 0 0 0 0 0 0 0 0
Nghost:    990 ave 990 max 990 min
Histogram: 1 0 0 0 0 0 0 0 0 0
Neighs:    4644 ave 4644 max 4644 min
Histogram: 1 0 0 0 0 0 0 0 0 0

Total # of neighbors = 4644
Ave neighs/atom = 43
Neighbor list builds = 0
Dangerous builds = 0
    
Total wall time: 0:00:02
