LAMMPS (3 Mar 2020)

# ---------- 1. Initialize simulation ----------
units metal
atom_style atomic
dimension 3
boundary p p p
read_data /home/modeler/RemLabs/Project/arrhenius_4/T1500.0/n3_T1500.0_timestep3.000000e-03_eqsteps3200_time600_rseed3332/20201205-120623/lammps.data
  orthogonal box = (0 0 0) to (17.469 17.469 17.469)
  1 by 1 by 1 MPI processor grid
  reading atoms ...
  217 atoms
  read_data CPU = 0.00101257 secs

pair_style meam/c
pair_coeff * * library.meam Li Si LiSi.meam Li Si
Reading potential file library.meam with DATE: 2012-06-29
Reading potential file LiSi.meam with DATE: 2020-11-07

group Li type 1
1 atoms in group Li
group Si type 2
216 atoms in group Si

velocity all create 1500.0 3332 dist gaussian

# ---------- 2. Specify equilibration ensemble  ----------
fix 1 all npt temp 1500.0 1500.0 0.15 tchain 2 iso 1.0 1.0 1.0 pchain 2
# fix 1 all nvt temp 1500.0 1500.0 0.15

# ---------- 3. Run equilibration -------------
timestep 0.003
run 3200
Neighbor list info ...
  update every 1 steps, delay 10 steps, check yes
  max neighbors/atom: 2000, page size: 100000
  master list distance cutoff = 6
  ghost atom cutoff = 6
  binsize = 3, bins = 6 6 6
  2 neighbor lists, perpetual/occasional/extra = 2 0 0
  (1) pair meam/c, perpetual
      attributes: full, newton on
      pair build: full/bin/atomonly
      stencil: full/bin/3d
      bin: standard
  (2) pair meam/c, perpetual, half/full from (1)
      attributes: half, newton on
      pair build: halffull/newton
      stencil: none
      bin: none
Per MPI rank memory allocation (min/avg/max) = 8.895 | 8.895 | 8.895 Mbytes
Step Temp E_pair E_mol TotEng Press Volume 
       0         1500   -951.04357            0   -909.16328   -115839.99    5330.9442 
    3200    1568.6115   -952.47143            0    -908.6755    442.97971    4603.4135 
Loop time of 2.30935 on 1 procs for 3200 steps with 217 atoms

Performance: 359.165 ns/day, 0.067 hours/ns, 1385.669 timesteps/s
99.9% CPU use with 1 MPI tasks x no OpenMP threads

MPI task timing breakdown:
Section |  min time  |  avg time  |  max time  |%varavg| %total
---------------------------------------------------------------
Pair    | 2.2317     | 2.2317     | 2.2317     |   0.0 | 96.64
Neigh   | 0.02896    | 0.02896    | 0.02896    |   0.0 |  1.25
Comm    | 0.014226   | 0.014226   | 0.014226   |   0.0 |  0.62
Output  | 2.7762e-05 | 2.7762e-05 | 2.7762e-05 |   0.0 |  0.00
Modify  | 0.029411   | 0.029411   | 0.029411   |   0.0 |  1.27
Other   |            | 0.005054   |            |       |  0.22

Nlocal:    217 ave 217 max 217 min
Histogram: 1 0 0 0 0 0 0 0 0 0
Nghost:    957 ave 957 max 957 min
Histogram: 1 0 0 0 0 0 0 0 0 0
Neighs:    4246 ave 4246 max 4246 min
Histogram: 1 0 0 0 0 0 0 0 0 0
FullNghs:  8492 ave 8492 max 8492 min
Histogram: 1 0 0 0 0 0 0 0 0 0

Total # of neighbors = 8492
Ave neighs/atom = 39.1336
Neighbor list builds = 49
Dangerous builds = 0

# ---------- 4. Describe computed properties----------
compute msdli Li msd
compute msdsi Si msd
thermo_style custom step pe ke etotal temp press density c_msdli[4] c_msdsi[4]
thermo 100

# ---------- 3. Run production -------------
timestep 0.003
run 200000
Per MPI rank memory allocation (min/avg/max) = 9.665 | 9.665 | 9.665 Mbytes
Step PotEng KinEng TotEng Temp Press Density c_msdli[4] c_msdsi[4] 
    3200   -952.47143    43.795932    -908.6755    1568.6115    442.97971    2.1908325            0 4.1567988e-32 
    3300   -950.01093    40.496742   -909.51419    1450.4464    11718.633    2.2177729  0.052096461   0.09372074 
    3400   -957.18718    39.926254   -917.26092    1430.0136    3847.9972    2.2104309 0.0060004247  0.080223484 
    3500   -953.22756    42.023732   -911.20383    1505.1377   -12214.805      2.16149  0.026805504   0.08842468 
    3600    -951.0833    42.332306   -908.75099    1516.1897   -5933.8023    2.1704158  0.053348946   0.11023906 
    3700   -951.15271    43.859816   -907.29289    1570.8995    8414.6064    2.2093497   0.12095704   0.10328747 
    3800   -955.10604    38.858359   -916.24768    1391.7655    8474.0876    2.2192739    0.0372574  0.095763209 
    3900   -949.26754    37.200499   -912.06704     1332.387   -8558.0723    2.1659246   0.03101012   0.10590337 
    4000   -953.84335    44.768077   -909.07527    1603.4302   -11524.311    2.1651922    0.0730315   0.11649597 
    4100   -953.04503    45.319788   -907.72524    1623.1905    5710.0929    2.2011579 0.0076930075  0.074240471 
    4200   -954.78641    38.746184   -916.04023    1387.7478    9475.6718    2.2218885   0.12846208  0.089251356 
    4300   -949.05308    38.677471    -910.3756    1385.2868   -3778.2613    2.1733203  0.025483382  0.084268003 
    4400    -950.1662    41.633857   -908.53234    1491.1738    -7868.609    2.1641486  0.023585478   0.07920613 
    4500   -950.78816    41.058692   -909.72947    1470.5735    1510.9043    2.1934104  0.015984823   0.11338576 
    4600   -955.55289    38.750401   -916.80249    1387.8988    9770.6147    2.2214643  0.055173267  0.079375749 
    4700   -953.91648    45.090327   -908.82616     1614.972   -3061.6573    2.1813019  0.028727326   0.10720111 
    4800   -949.39214     40.78721   -908.60493      1460.85   -5751.6084    2.1703678  0.034701823   0.11709561 
    4900   -949.79892     39.51492     -910.284    1415.2811    1279.5683    2.1873202  0.089014843   0.11194922 
    5000    -954.2218    38.226368   -915.99543    1369.1299    8785.8314    2.2153039  0.089470073   0.10161555 
    5100   -953.49675    39.882432   -913.61432    1428.4441    3639.2838    2.2021726  0.042821487  0.094600389 
    5200   -949.64798    40.323907   -909.32408    1444.2561    -4988.111    2.1766243  0.033164105    0.1093447 
    5300   -949.46415    40.035515   -909.42863     1433.927   -4953.3497    2.1743589  0.036286611   0.10639618 
    5400    -950.1495      42.1866    -907.9629     1510.971    2865.0389     2.194673  0.062927587   0.10670146 
    5500   -943.26864     44.84865   -898.41999     1606.316    4819.7721    2.1830832   0.33994054   0.10849568 
    5600    -952.1505    45.293514   -906.85698    1622.2494   -274.80858    2.1900335   0.10816935   0.11412399 
    5700   -953.24099    43.546879   -909.69412    1559.6913    -7274.156    2.1760277     0.052183   0.10853022 
    5800   -950.34527    40.839154   -909.50612    1462.7104   -3459.0265    2.1792711   0.10247079   0.11249778 
    5900   -946.26149    45.932197   -900.32929    1645.1247    3175.2744    2.1866949    0.1151296   0.13658657 
    6000   -948.23589    41.931305   -906.30458    1501.8273    9080.3947    2.2069381  0.031816677   0.10981301 
    6100     -950.227    40.489342   -909.73765    1450.1814    -4481.864    2.1809579   0.10265675   0.11996343 
    6200   -949.10582    40.030021    -909.0758    1433.7302   -6569.2161    2.1692487   0.19990143   0.11376876 
    6300   -947.91133    47.583118   -900.32822    1704.2547       906.55    2.1818392  0.060528352   0.10824409 
    6400   -952.22595    44.494499   -907.73145    1593.6316    10797.606    2.2184699  0.038343485   0.10112177 
    6500   -953.25659    43.061481    -910.1951    1542.3061   -3156.4291    2.1873272  0.081189277  0.095758517 
    6600   -950.47182    42.846363   -907.62546    1534.6013   -12134.426    2.1598002   0.12639364   0.11248335 
    6700   -945.40312    44.673966   -900.72916    1600.0595   -968.04656    2.1727352  0.042708472   0.11894959 
    6800   -949.75327    39.725944   -910.02733    1422.8392     14446.47    2.2233786  0.079694178   0.11224027 
    6900   -951.67975    42.150651    -909.5291    1509.6835    2986.1866    2.1954974  0.053823786   0.11433361 
    7000   -948.73134    42.403624   -906.32771     1518.744   -9709.1421    2.1598509  0.056206184   0.13278273 
    7100   -951.34415    45.700167   -905.64398    1636.8143   -6179.1342    2.1737435  0.076613624    0.1195356 
    7200    -954.5002    41.385576   -913.11463    1482.2812    10520.691    2.2209028   0.07141711   0.11529269 
    7300   -951.13135      41.9106   -909.22075    1501.0857     4710.165    2.2011868   0.16841671    0.1188079 
    7400   -949.56784    41.645728   -907.92211    1491.5989   -6662.6389    2.1710519  0.036164643    0.1025953 
    7500     -952.701    39.270971   -913.43003    1406.5438   -5388.9559    2.1801745   0.12959118   0.11288866 
    7600   -954.65085    40.859384   -913.79146    1463.4349    2510.6288    2.2039641   0.13794128   0.10515015 
    7700   -952.59564    44.778188   -907.81745    1603.7923    5576.4429    2.2042515   0.12156746   0.11153627 
    7800   -951.02624    41.400429   -909.62581    1482.8132   -2506.7607    2.1839556  0.064786542   0.12482057 
    7900   -956.46956    39.520666    -916.9489    1415.4869   -5023.8451    2.1852889   0.11950121   0.10348813 
    8000   -951.34526    41.559348   -909.78591    1488.5051   -394.88876    2.1886825  0.071464041   0.11981322 
    8100   -950.68472    42.891261   -907.79346    1536.2094    6920.5995    2.2030515   0.10112259   0.12367659 
    8200   -951.63206    39.889252   -911.74281    1428.6883    3597.0292    2.1956979  0.059194217   0.12026459 
    8300   -956.06731    38.871861   -917.19545    1392.2491   -5054.1557    2.1864219   0.09420278   0.11205638 
    8400    -951.3429     43.07686   -908.26604    1542.8569   -6267.7846    2.1728843   0.20429172   0.11910476 
    8500   -952.04233    43.589028    -908.4533    1561.2009      4177.56    2.2023167  0.053125117   0.10526334 
    8600   -953.19825    42.805325   -910.39292    1533.1315    5825.4037    2.2076683  0.047895364    0.1002145 
    8700   -953.25736    40.144704   -913.11266    1437.8377   -5057.8692    2.1845159  0.029656254   0.11208739 
    8800   -955.98934    36.292744   -919.69659    1299.8745   -650.74099    2.1990808    0.0717242   0.10569619 
    8900   -954.94422    42.199152   -912.74506    1511.4206   -912.62856    2.1967276   0.16154319   0.11693658 
    9000   -953.82745    44.326697   -909.50075    1587.6216   -1380.5771    2.1898019  0.044615023   0.11544217 
    9100   -950.27231    42.770029   -907.50228    1531.8673   -79.713445    2.1873879   0.16363718   0.13142318 
    9200   -953.42548    39.017922   -914.40755    1397.4805   -1770.2337    2.1939125  0.085374751   0.12879541 
    9300   -956.04975    42.673116   -913.37663    1528.3962   -3544.0827    2.1920906   0.11674025   0.11324999 
    9400   -952.49509    44.455942   -908.03915    1592.2506    2026.7499    2.1942356  0.014732893    0.1215574 
    9500   -948.70553    39.737259   -908.96827    1423.2445     3011.405    2.1908088 0.0026947066   0.12083994 
    9600   -954.87501    38.049164   -916.82584    1362.7831   -1637.2771    2.1972224   0.10793908   0.10398081 
    9700   -950.86984    41.625726   -909.24411    1490.8825   -2651.4287    2.1805523  0.014573351   0.11236886 
    9800   -949.73807    41.851803   -907.88627    1498.9798    3619.1872    2.1929158   0.13777789     0.115303 
    9900    -950.9119     38.47521   -912.43669    1378.0425    5617.6871     2.206182  0.057286678   0.10684352 
   10000   -951.68915    35.932424   -915.75672    1286.9691   -499.03792    2.1946752   0.10875365   0.12007249 
   10100   -944.53917    37.161009   -907.37816    1330.9726   -6332.6058    2.1622526    1.2429143   0.15425819 
   10200   -947.89524     40.00328   -907.89196    1432.7724     2393.981    2.1854324   0.24953398   0.12631842 
   10300   -946.01913    38.613975   -907.40516    1383.0126    16048.457     2.219049   0.14577388   0.13978188 
   10400   -946.24937    47.485612   -898.76376    1700.7624   -2086.3155    2.1728622   0.94689647   0.13388397 
   10500    -950.1438    43.160278   -906.98352    1545.8446   -11021.016     2.157882    5.4349081   0.13778883 
   10600   -948.24397    39.028379   -909.21559     1397.855   -3398.1556    2.1756148    6.5337143    0.1416756 
   10700   -951.01188    44.978677    -906.0332    1610.9731    9327.0925     2.208277    7.8796806   0.13632117 
   10800   -944.58225    45.253134   -899.32911    1620.8031    4168.2233    2.1800585    5.8690653   0.15937661 
   10900   -948.99285    40.693613   -908.29923    1457.4976   -5370.6998    2.1727682    8.7480542   0.14350706 
   11000   -950.30273    42.039737   -908.26299    1505.7109   -2503.4398     2.178963    16.056479   0.13401966 
   11100   -949.01867    43.517874    -905.5008    1558.6524    87.195844    2.1874927    4.5321875   0.12435581 
   11200   -943.18201    44.994063   -898.18795    1611.5242    4203.9659    2.1767462    4.8061651   0.14370746 
   11300     -949.067    44.460486   -904.60652    1592.4134   -3762.7366    2.1717018    7.7825448   0.13860885 
   11400   -950.52787    43.025121   -907.50275    1541.0038   -5057.1582    2.1694042    5.9141263   0.13468733 
   11500    -949.5216    41.003308   -908.51829    1468.5898    3307.6647    2.1871843    4.0276691   0.13677807 
   11600   -950.86289    40.481839   -910.38105    1449.9127    3402.0761     2.195209    6.4126556   0.13323617 
   11700   -956.50764    38.076981   -918.43066    1363.7794   -1475.8556    2.1999553     6.267054   0.13328226 
   11800   -949.20467    37.412737   -911.79193    1339.9886   -2836.3017    2.1783787    6.9415124   0.13325781 
   11900   -952.32302    43.733215    -908.5898    1566.3652    414.80115    2.1890838    6.3002731   0.13424707 
   12000   -953.04007    45.914921   -907.12515    1644.5059    4049.6576    2.1973222    6.4457139   0.12616119 
   12100   -952.50721    39.882136   -912.62508    1428.4335   -2399.2543    2.1901127    7.0994768   0.13233315 
   12200   -951.56716    37.964946   -913.60222    1359.7667    -5838.549    2.1760844     4.041105   0.13108439 
   12300   -952.58193    44.487891   -908.09404    1593.3949   -2148.7756    2.1845224    4.8432165   0.12504183 
   12400   -948.09388    41.130102   -906.96377    1473.1311    6720.2511    2.2014847     5.240784   0.12834564 
   12500   -952.85996    38.003707   -914.85625     1361.155    1188.1505    2.2013781     4.427214   0.11699472 
   12600   -948.13884    39.625558   -908.51328    1419.2438    -7934.343    2.1643923     7.370122   0.13932642 
   12700   -947.75052    41.182092   -906.56843    1474.9932   -2227.4511    2.1761873    9.0946394   0.13913777 
   12800   -951.66474    42.716426   -908.94832    1529.9475    8769.3636    2.2086103     3.707309   0.12367146 
   12900     -953.118    39.841413   -913.27659    1426.9749    7703.6921    2.2117929     7.657726   0.13928424 
   13000   -945.61236    41.006974   -904.60539    1468.7211   -8514.7217    2.1543127    6.0725055   0.13906717 
   13100   -952.86381    44.230075   -908.63374    1584.1609   -12753.922    2.1585782    7.2126319   0.14394972 
   13200   -952.18832    41.567896   -910.62042    1488.8113    7594.4679    2.2131569    5.9155776   0.14364359 
   13300   -947.17214    46.606968   -900.56518    1669.2926    12432.078    2.2043587    6.1978365   0.13812136 
   13400   -948.28827    42.079272     -906.209    1507.1269   -812.90125    2.1770749    5.4723004   0.14091379 
   13500   -948.33672    37.555089   -910.78163    1345.0871   -6245.8472    2.1640127    5.0120663   0.14339484 
   13600   -948.81348    44.317703   -904.49578    1587.2994    483.57405    2.1820977    3.8896747   0.13123787 
   13700    -950.7303     45.86384   -904.86646    1642.6764    2002.3849    2.1906293    6.5401046   0.12679216 
   13800   -953.24942    42.681917   -910.56751    1528.7115    1078.2043    2.1904175    5.8342482   0.11451404 
   13900   -948.48238    41.183365   -907.29901    1475.0388   -234.67921    2.1813383    6.1794186   0.13506707 
   14000   -945.89239    43.134897   -902.75749    1544.9356    770.16891    2.1748435    7.2954627   0.13823208 
   14100    -948.6736    37.152988   -911.52061    1330.6853    5842.5743    2.1975713    4.3576438   0.14942267 
   14200   -949.86887    40.481228   -909.38764    1449.8908     88.98338    2.1812403    3.9006255   0.13008006 
   14300   -946.79331     40.73854   -906.05477    1459.1068   -4103.8336    2.1662814    5.3820628   0.14110312 
   14400   -952.11217    39.417206   -912.69496    1411.7814   -1585.1889    2.1884332    3.7270191   0.12391349 
   14500   -953.32235    41.857211   -911.46514    1499.1735    3224.9977    2.1969959    4.7987136    0.1182648 
   14600    -949.4733    43.090796    -906.3825    1543.3561   -524.58997    2.1823614    5.4951907   0.13745186 
   14700   -953.01109    43.417869   -909.59322    1555.0706   -6373.4639    2.1726649    6.4541638    0.1225511 
   14800   -953.38095    40.024259    -913.3567    1433.5238    -2219.214    2.1887084    5.9863328     0.117235 
   14900   -948.00541    42.872661   -905.13275    1535.5432    5431.3285    2.1965536    7.9595719   0.13184194 
   15000    -953.5342    45.306999    -908.2272    1622.7324   -539.11202    2.1916124    5.3807411   0.12023638 
   15100   -952.88421    39.420658   -913.46356     1411.905   -6614.8753    2.1742441     5.259454   0.13272571 
   15200   -947.62204    42.699023   -904.92301    1529.3242   -9788.8064    2.1578077    6.3572176   0.14716844 
   15300   -951.36656    44.223457    -907.1431    1583.9239    5768.4704    2.2031481    5.5983743   0.13962849 
   15400   -953.32536    43.150185   -910.17517    1545.4831    10028.932    2.2166104    6.4561732   0.13732025 
   15500   -946.00485    43.076383   -902.92847    1542.8398   -3253.8198    2.1663825    8.8773579   0.14541707 
   15600   -945.16301    39.281633   -905.88138    1406.9256   -8202.7342    2.1519904    8.6930942   0.13061587 
   15700   -951.08387    41.043259   -910.04061    1470.0207   -1017.0612    2.1862366    5.4725045   0.13438454 
   15800   -953.16933    47.677762   -905.49156    1707.6445    9729.2668    2.2071122    6.2376256   0.14248164 
   15900   -949.52711    46.500318    -903.0268    1665.4728     249.9106     2.182978    7.8933109   0.13279325 
   16000   -948.89684    37.520694   -911.37614    1343.8552   -2533.9895    2.1796673    5.7965866   0.14438548 
   16100   -953.29175    44.739471   -908.55228    1602.4056   -4987.3959    2.1756752    8.2975722    0.1241223 
   16200   -948.80628    44.082769   -904.72352    1578.8849    1195.9483    2.1839632     6.097866   0.14088427 
   16300    -953.5669    40.593751   -912.97315     1453.921     3671.226    2.2005317    5.5864884   0.13675155 
   16400   -950.15264    39.658331   -910.49431    1420.4176   -2550.7433    2.1808528     5.157498    0.1344092 
   16500   -947.61664    41.367222   -906.24942    1481.6239   -878.16999     2.176022    9.1771786   0.14723698 
   16600   -952.18744    41.363364   -910.82408    1481.4857    3606.8435    2.1937223    4.9115686   0.13909622 
   16700   -954.35373    41.695773   -912.65795    1493.3914    4167.4594    2.2024285    5.1530506   0.13371469 
   16800   -950.32891    44.309479   -906.01943    1587.0049   -2168.1433    2.1812027    3.7136146   0.12531468 
   16900   -953.29162    43.705783   -909.58583    1565.3827   -6872.8573    2.1729802    5.4641936   0.13360189 
   17000   -956.77603    42.869364   -913.90666    1535.4252   -5068.9386    2.1881309    3.6458697   0.12664398 
   17100   -950.75157    45.803328   -904.94825    1640.5091   -1049.4468    2.1855475    7.2239141     0.134864 
   17200   -948.17386    40.574152   -907.59971     1453.219    6288.7203    2.1998562    6.4412747   0.13433009 
   17300   -950.79212    37.920616    -912.8715    1358.1789   -4031.2481    2.1810122     2.786141    0.1362979 
   17400   -945.94941    42.019591   -903.92982    1504.9894   -9782.7503    2.1560376    8.4004172    0.1547345 
   17500   -948.10449    42.105238   -905.99925    1508.0569     6946.012    2.1989535    6.9149089   0.12448768 
   17600   -952.45432    43.293539   -909.16078    1550.6176    9363.9699    2.2134897    4.1774317   0.12279252 
   17700    -946.6593    41.734617   -904.92468    1494.7826   -2642.3504    2.1702279    4.8379836    0.1289435 
   17800   -945.58879    42.067355   -903.52143    1506.7001   -9297.4103    2.1519739    5.7614919   0.13354568 
   17900   -952.27813    41.961999   -910.31614    1502.9266    1309.2459    2.1930954     6.329955  0.098108676 
   18000   -950.64336    44.738304   -905.90506    1602.3638    7933.2383    2.2076739    4.3273591   0.11884052 
   18100   -948.14054     44.07956   -904.06098      1578.77    92.840311    2.1822803    5.7219939   0.12507255 
   18200   -950.33116    38.186029   -912.14513    1367.6851   -5305.6826    2.1770259     4.381229    0.1240284 
   18300   -951.26573    43.733275   -907.53246    1566.3673   -2968.8732    2.1844619     6.497738   0.12092611 
   18400    -949.9814     45.76785   -904.21355    1639.2384    1445.9999    2.1879954    5.7459807   0.12019017 
   18500   -951.98932    39.100763   -912.88856    1400.4475    5996.5445     2.208513    5.4808902    0.1276231 
   18600   -953.16326    44.625937   -908.53732    1598.3392   -5576.2407    2.1792915     5.902258   0.12812481 
   18700    -949.8424    44.060235   -905.78216    1578.0778   -5811.1965    2.1714949    6.2933418   0.12843854 
   18800   -950.66701    38.009173   -912.65783    1361.3507    5354.9728    2.2019838    5.8715901   0.12933137 
   18900   -952.74943    43.943593   -908.80584    1573.9001    8087.0493    2.2124407    5.2154145   0.12024697 
   19000   -947.21642    41.949238   -905.26718    1502.4696   -1322.1522    2.1831713    4.6674977   0.15232016 
   19100   -947.06843     36.22367   -910.84476    1297.4005   -14605.821    2.1446893    4.3352208   0.13986094 
   19200   -949.19234    40.403184   -908.78915    1447.0955   -7187.9731    2.1726208    1.8171758   0.14006486 
   19300   -946.39421    45.240214     -901.154    1620.3404    19281.515     2.221351    4.6677253   0.13381775 
   19400    -948.0857    40.580346   -907.50535    1453.4408    9412.8007     2.207309    9.2854924   0.13396828 
   19500   -953.15863    42.325099   -910.83353    1515.9315   -9640.5923    2.1679379    4.8319674   0.13658163 
   19600   -947.17405    44.292936   -902.88111    1586.4124   -2942.6781    2.1646231    5.6108243    0.1332347 
   19700   -947.75101     40.90013   -906.85088    1464.8943    6756.8208    2.2027304    5.4976662    0.1431824 
   19800   -954.09904     44.29152   -909.80752    1586.3616    2522.5474    2.2008148    6.8195266   0.12505911 
   19900   -947.51109    41.125036   -906.38605    1472.9497   -4037.7842    2.1732582    5.8130804   0.14516714 
   20000   -944.67365    42.667053   -902.00659    1528.1791   -5347.9869    2.1613291    7.1612421   0.14501835 
   20100   -953.50276    43.411314   -910.09145    1554.8358    2786.8071    2.1971143    4.6062206   0.13170212 
   20200    -948.8313    41.774509   -907.05679    1496.2114    8100.2927    2.2010942    3.7192102   0.13767874 
   20300   -951.99501    45.455887   -906.53913     1628.065   -5305.7391    2.1744866    5.4200559   0.13095703 
   20400   -953.89996    38.892821   -915.00714    1392.9998   -3226.3272    2.1794343    5.6439899   0.12648841 
   20500   -952.48824    42.968656   -909.51958    1538.9814    999.44404    2.1862353    7.5553173   0.13592307 
   20600   -949.58988    43.946929   -905.64295    1574.0196    10480.958    2.2077239    6.0333448   0.13042514 
   20700   -952.56899    40.261766   -912.30723    1442.0305     2816.764    2.2009428    5.8737921   0.12776422 
   20800   -952.13207    39.981542   -912.15053    1431.9938   -10884.823    2.1599605    5.3185748   0.12642921 
   20900   -948.21207    41.729591   -906.48247    1494.6026   -5422.2931    2.1637329    6.2966101    0.1251809 
   21000   -951.48632     43.25252    -908.2338    1549.1484    8434.0526    2.2097745    6.7143919   0.13867799 
   21100    -953.6361    41.342047   -912.29406    1480.7222    10699.712    2.2208679    7.0789035    0.1291613 
   21200   -947.67111    45.036261   -902.63485    1613.0356   -8600.3478    2.1550151    5.6713469   0.13583765 
   21300   -952.75165    44.750806   -908.00084    1602.8116   -8035.1343    2.1688556      5.12149   0.11097351 
   21400   -951.94134    41.510766   -910.43058    1486.7651    2860.5662    2.1953732     3.803783   0.10792343 
   21500    -950.7119    44.220041   -906.49186    1583.8015    4068.1256    2.1940601    5.0730116   0.12207636 
   21600   -950.28602    46.919185   -903.36683     1680.475   -3735.2498    2.1729314    6.2140854   0.10437375 
   21700    -950.3927    39.265783   -911.12692     1406.358   -2538.2941    2.1809204    6.9740945   0.10605589 
   21800   -948.44664    39.811543    -908.6351    1425.9051     3977.228    2.1915243    6.1320637   0.10440828 
   21900   -948.73369    45.959398   -902.77429     1646.099    2963.2823    2.1861834    6.2174193   0.10930748 
   22000   -950.48834    40.328254   -910.16008    1444.4118   -1101.1307    2.1840115    5.1290642    0.1103278 
   22100   -949.13451    38.325778   -910.80873    1372.6904   -5574.9162    2.1706227    4.2602317   0.12059932 
   22200    -951.1281    43.518701    -907.6094    1558.6821   -683.11944    2.1867669    4.8844621   0.12100488 
   22300   -953.59978    44.666526   -908.93326     1599.793    6243.0275    2.2066351    5.4465695   0.10728308 
   22400   -955.64145    40.504556   -915.13689    1450.7263    1468.2183    2.2037932    4.9190477   0.10900868 
   22500   -951.08744    41.732277   -909.35516    1494.6988   -8131.8981    2.1649954     5.841238   0.10162633 
   22600   -948.28731    40.246821   -908.04049    1441.4952    -4448.117    2.1703956     7.244067   0.10937096 
   22700   -957.07937    42.606778   -914.47259    1526.0203    6530.9032    2.2175501    4.6026519   0.10699621 
   22800    -952.1618    39.626717   -912.53508    1419.2853    9893.8695    2.2175731    5.2054861   0.11270698 
   22900   -949.42437    41.492504   -907.93186     1486.111   -7662.0624    2.1689898    5.1778606   0.11670564 
   23000   -949.20761    38.915865   -910.29175    1393.8251   -13470.829    2.1559759     6.029536   0.12025979 
   23100   -950.87687    37.201162    -913.6757    1332.4107     5063.687    2.2056303     4.388909   0.12248074 
   23200   -949.01394    44.509848   -904.50409    1594.1814    8797.1177    2.2088238    6.1304627   0.12577326 
   23300   -951.11876     43.60657   -907.51219    1561.8292   -2153.7197    2.1849804    6.0406378   0.11795792 
   23400    -952.9508    41.655891   -911.29491    1491.9629   -8557.4371    2.1738329    4.5991758   0.11142377 
   23500   -948.89077    40.351409   -908.53936    1445.2411    2105.1811    2.1876956    5.8594341   0.11131541 
   23600   -945.29032    41.700277   -903.59004    1493.5527    4301.4133    2.1831414    7.1756351   0.10634854 
   23700   -950.05026    39.907518   -910.14274    1429.3426    965.23025    2.1925875    5.6066404   0.11279562 
   23800    -950.0429    39.881206   -910.16169    1428.4002   -1117.8711    2.1848144    5.5463231   0.12117494 
   23900   -945.06124    43.013579   -902.04766    1540.5904   -2205.8428    2.1689149    6.0343087   0.12508897 
   24000   -953.54726    43.368929   -910.17834    1553.3177    2541.7004    2.1972857    5.1534991   0.10964803 
   24100   -953.72417    43.512837   -910.21134     1558.472     -944.137    2.1904973    5.4503816    0.1066723 
   24200   -947.23487    42.202074    -905.0328    1511.5252   -2576.0138      2.17184    5.1311215   0.11264932 
   24300   -949.22222    40.112493   -909.10973     1436.684   -3360.0339    2.1786991    6.0574263   0.11585334 
   24400   -953.69374     41.75628   -911.93746    1495.5585    1504.7876    2.1968297    4.6567688   0.10712983 
   24500   -952.85936    45.725307   -907.13406    1637.7147    5649.0658     2.203807    5.7689267   0.10555556 
   24600   -950.24621    41.236319   -909.00989    1476.9354    -1854.171    2.1838705    7.3779398   0.11597926 
   24700   -953.53357    37.927892   -915.60568    1358.4395    -9485.463    2.1734141    5.8605048   0.10798897 
   24800   -950.50232    41.274341   -909.22798    1478.2972   -748.05856    2.1848484    5.7485051   0.11670727 
   24900   -948.42272    41.773807   -906.64891    1496.1863    13517.931      2.21389    5.4472901   0.12037141 
   25000   -952.68963    38.460227   -914.22941    1377.5058    4200.4536    2.2049203    4.9594919   0.11176815 
   25100   -951.27277    41.783892   -909.48887    1496.5475   -12446.226    2.1575091    5.2609527   0.12380473 
   25200   -949.75178    42.610076   -907.14171    1526.1384    -5578.825     2.172438    6.4322584   0.12185171 
   25300   -952.60352    42.697012   -909.90651    1529.2521     7712.428    2.2092599    5.1250985   0.12132924 
   25400   -954.48053    40.434496   -914.04604     1448.217     8311.939    2.2150096    6.6177004   0.11040865 
   25500   -948.65527    44.226443   -904.42883    1584.0308   -5555.5669     2.168167    5.4688115   0.11726496 
   25600   -951.75846    43.721634   -908.03683    1565.9504   -5486.1523    2.1786798     5.704487   0.11139378 
   25700   -952.90922    42.089521   -910.81969     1507.494    2714.9889    2.2008081    6.5455237    0.1162888 
   25800   -950.40809    42.258226   -908.14986    1513.5364    4823.3522    2.2013853    5.0933836   0.13204295 
   25900   -949.90224    46.034785   -903.86745     1648.799   -5327.3465    2.1749959    5.1523962   0.13494431 
   26000   -954.01662    43.607021    -910.4096    1561.8453   -6542.8456    2.1820282    5.6723264   0.12053659 
   26100   -954.14184    44.684537    -909.4573    1600.4381    880.17648    2.1943647    4.9646804    0.1037901 
   26200   -949.06816    47.789014   -901.27915    1711.6292    2562.8255    2.1860783    6.7509566   0.11144973 
   26300   -952.87496    43.303464   -909.57149     1550.973    888.45763    2.1946127    7.6938772    0.1220601 
   26400   -951.70877    41.395667   -910.31311    1482.6427   -3806.7947     2.182132    6.0390467    0.1236451 
   26500   -950.13468    45.612262   -904.52242    1633.6658   -2810.6494    2.1765668    6.9788692    0.1058893 
   26600   -951.47501    44.250007     -907.225    1584.8748    2738.3247    2.1960397    6.1436737   0.10308147 
   26700   -952.24567    40.922812   -911.32286    1465.7067    3423.2829    2.1983622     6.005219   0.10435952 
   26800    -949.6979    41.269013   -908.42889    1478.1064   -3011.4258    2.1820255    5.7532397   0.12019641 
   26900   -946.55793    40.544192   -906.01374    1452.1459   -4093.6799    2.1702518    4.8817134   0.13618733 
   27000   -955.99928    40.633437   -915.36584    1455.3424    4320.1428    2.2120712    5.6388367  0.098459705 
   27100   -952.03378    41.814226   -910.21955    1497.6339    7237.3046    2.2070042    6.4465829   0.10834627 
   27200   -949.18847    41.594134   -907.59433     1489.751   -4465.7516    2.1740354     7.622804   0.10939326 
   27300    -947.5307    37.799543   -909.73115    1353.8425   -7208.5582    2.1667674    6.0965959   0.11808587 
   27400   -956.00064    41.047163   -914.95348    1470.1605    2632.7124    2.2098285    6.6572757   0.11979073 
   27500    -952.0513     45.16885   -906.88245    1617.7844    9219.2321    2.2125564    6.2072955   0.11146452 
   27600   -950.20294    41.099718   -909.10322    1472.0428   -3329.2949    2.1834478    6.7740633   0.12557272 
   27700   -949.66862    34.793579   -914.87504    1246.1798   -7039.1026    2.1751992    5.5068962   0.12104578 
   27800   -952.93461    43.481845   -909.45276     1557.362   -1271.3831     2.190651    4.0904182   0.12457517 
   27900   -949.39512    42.685302   -906.70981    1528.8327    8581.8174    2.2122352    5.8027505   0.11479974 
   28000   -949.52893    38.469158   -911.05977    1377.8257    3183.6534    2.1990052    6.3197273   0.12268532 
   28100   -951.24644    40.299915   -910.94652    1443.3968   -5033.6354     2.175445    6.5691998   0.12063966 
   28200   -949.81285    46.160229   -903.65263     1653.292   -7439.3726    2.1675258     6.830845   0.12109821 
   28300   -949.70858    40.488976    -909.2196    1450.1683     4690.948    2.2020113    5.7284418    0.1339336 
   28400   -953.17359    42.797637   -910.37596    1532.8562    5625.7764    2.2068159    5.8916103   0.10436836 
   28500   -948.76177    46.686484   -902.07528    1672.1406   -2698.9172    2.1759517     6.125401   0.12681991 
   28600   -948.95191    40.934146   -908.01776    1466.1127   -3011.0224    2.1805494    5.3293837   0.13067155 
   28700   -952.71248    42.265384   -910.44709    1513.7928   -182.92057    2.1928269    5.3224569    0.1228766 
   28800    -950.3934    44.391544   -906.00186    1589.9441    2040.3101    2.1920251    4.7235008   0.11969076 
   28900   -949.30884    46.134792   -903.17405    1652.3809   -2550.1667    2.1791941     5.246219   0.11647785 
   29000   -953.54672    42.325645   -911.22107    1515.9511   -1046.4863    2.1918842    6.5281287   0.10784167 
   29100    -952.3569    43.681347   -908.67555    1564.5074   -186.76391    2.1930402    6.5593321   0.11845335 
   29200   -947.20696    42.889457    -904.3175    1536.1448    1218.3078    2.1848504    6.5744237   0.12606726 
   29300   -953.31737    43.447948   -909.86942    1556.1479   -4592.7309    2.1824988    5.7399168    0.1126974 
   29400   -952.34225    40.466525   -911.87572    1449.3642    -1808.017    2.1872818    4.4449496   0.12714499 
   29500   -952.42717    44.029833   -908.39734     1576.989    2764.4357    2.1994153    4.1799839    0.1176028 
   29600   -953.33108    46.671415   -906.65966    1671.6008    2150.4139    2.1969283    4.5846228   0.11824315 
   29700   -953.18731    38.423093   -914.76422    1376.1758   -2782.2331    2.1882525    5.4166145   0.11338226 
   29800   -953.19485    40.424029   -912.77082    1447.8421   -8496.8999    2.1753993    4.7860043      0.10336 
   29900   -950.12685    41.773515   -908.35333    1496.1758    4814.1221    2.2022198    5.9338918   0.11862011 
   30000   -948.67562    41.632286   -907.04333    1491.1175    12923.776    2.2188072    7.6356945   0.10665473 
   30100   -952.49828    37.211837   -915.28645     1332.793   -3200.5623    2.1910148    4.9894086   0.11208552 
   30200   -951.40565    39.691659   -911.71399    1421.6113   -20766.848    2.1421114    6.5523385   0.11886846 
   30300   -953.06241    44.678459   -908.38395    1600.2204    -930.7202    2.1922444    4.5454625   0.12225353 
   30400   -951.01039    43.229328   -907.78107    1548.3178    15119.452    2.2280039    5.0515024   0.12443574 
   30500   -954.86577    39.794305   -915.07147    1425.2877    2096.4822    2.2050249    5.2243634   0.12019095 
   30600   -954.00708    41.424454   -912.58263    1483.6737   -7690.9306    2.1743631    5.2899104   0.10815113 
   30700   -951.45035    42.942627   -908.50772    1538.0492   -2515.2403    2.1833111    4.4123648   0.10155036 
   30800   -950.21542    41.147336   -909.06808    1473.7483    5660.6652    2.2015904    5.6304589    0.1074996 
   30900   -955.19391    41.165882   -914.02802    1474.4126    2295.5795    2.2021817    6.0240386   0.08534397 
   31000   -955.14216    38.242613   -916.89955    1369.7117    -2427.998    2.1943299    5.8741972  0.099914468 
   31100   -949.73128    40.105041   -909.62624    1436.4171   -2731.2138    2.1806669    6.4709418   0.11251164 
   31200    -952.8815    43.894024   -908.98748    1572.1248    344.19182    2.1931255    4.3434408   0.10298956 
   31300   -951.27157    42.384934   -908.88664    1518.0746     3785.045    2.2005739    4.8077681   0.11676204 
   31400   -943.82457    43.774672    -900.0499      1567.85    1227.2009    2.1801303    4.4535769   0.14593798 
   31500   -947.03645    43.344927   -903.69152    1552.4581   -449.72398    2.1800254      5.29996   0.12585614 
   31600   -952.92199    44.360856   -908.56113     1588.845   -4719.9247    2.1810945    5.7461249   0.11049486 
   31700   -951.37451     41.30392   -910.07059    1479.3566    2367.5221    2.1963415    5.3028093   0.11210722 
   31800   -952.55572    43.527627   -909.02809    1559.0018    4854.7292    2.2058226    5.3607931    0.1038693 
   31900   -949.24272    47.275615   -901.96711    1693.2411   -7301.6121    2.1632751    6.1558081   0.11415043 
   32000    -952.9733    43.882632   -909.09067    1571.7167   -10117.357    2.1653269    6.4956461   0.10259082 
   32100   -952.15945    42.201363   -909.95808    1511.4998    3041.5853    2.2002092    4.8312677   0.10715343 
   32200   -950.03196    43.426731   -906.60523     1555.388    13441.773    2.2153651    5.1835518   0.12392333 
   32300   -944.64852    42.481604   -902.16692     1521.537   -1320.0114    2.1697947     3.995195   0.13265872 
   32400   -949.78702    39.746368   -910.04066    1423.5707   -9669.3285     2.159526    4.8975838   0.11542519 
   32500   -950.45346    41.787034   -908.66643      1496.66    1552.4208    2.1877906    4.8317784   0.12073196 
   32600   -950.26211    43.931478   -906.33063    1573.4662    7863.7331     2.204808    5.6501542   0.10767909 
   32700    -946.4401    49.109883   -897.33022    1758.9379   -1461.0143    2.1699904    6.5657809   0.10030867 
   32800   -952.50966    45.449185   -907.06047     1627.825   -3937.7629    2.1792038    6.7922169   0.10241143 
   32900   -951.43101    42.456099   -908.97492    1520.6235   -801.67902    2.1843035    6.2931646  0.096739499 
   33000   -953.25422    43.320153   -909.93406    1551.5708    997.73687     2.193848    5.6645915   0.10551696 
   33100   -950.86956    40.615807   -910.25375    1454.7109    3581.2354    2.1944176    4.7830529   0.11405139 
   33200   -945.29314    44.243219   -901.04993    1584.6317   -4336.6925    2.1616249    4.6889947   0.12156592 
   33300   -949.27863    42.499249   -906.77938     1522.169   -1459.8577     2.183361    4.9284616   0.12496776 
   33400    -952.7848    43.172234   -909.61257    1546.2729    3823.4357    2.2003187    4.3294803   0.11274137 
   33500   -954.55102    43.345255   -911.20576    1552.4698   -769.03578    2.1955158    6.0099003   0.10828477 
   33600   -947.80086    46.152744   -901.64811    1653.0239   -7136.7283    2.1629325    5.7181785   0.12242236 
   33700   -948.17812    40.164369   -908.01375     1438.542    1416.1962    2.1890209    6.1069337   0.10349104 
   33800   -954.06131    43.646965   -910.41435     1563.276    881.05026    2.1988967    5.8433569  0.095854744 
   33900   -949.92305    43.733828   -906.18922    1566.3871    685.97324    2.1863643    5.9089987   0.10721909 
   34000   -948.65631    45.055204   -903.60111     1613.714    -4198.904    2.1711874    5.8877004   0.10889572 
   34100   -950.59404    39.910525   -910.68351    1429.4503    1602.7436    2.1902253     5.930076   0.10391339 
   34200   -951.00069    42.351823   -908.64887    1516.8887    2412.4552    2.1934037    5.0277742   0.11172241 
   34300   -948.81919    46.541889    -902.2773    1666.9617   -1078.2265    2.1775996    6.5624253   0.11250831 
   34400    -952.3701    41.534808   -910.83529    1487.6262   -1357.6857    2.1875303     6.189842   0.11739535 
   34500   -949.07432    38.640183   -910.43414    1383.9512   -3076.0741    2.1809496    5.1697736   0.11926807 
   34600   -946.07626    39.326971   -906.74929    1408.5495    2185.6377    2.1850781    7.2044004   0.10526149 
   34700   -948.41529    38.439984   -909.97531    1376.7808     4514.656    2.1952846    7.8554779   0.11289256 
   34800   -951.42881    37.372702   -914.05611    1338.5546    2357.2282    2.1976082    6.1017443  0.099824897 
   34900   -950.82464    42.055096   -908.76954     1506.261    -546.1744    2.1869206    7.1723573   0.11236945 
   35000   -950.99916    43.145198   -907.85396    1545.3045   -2167.1887    2.1833821    4.5523695   0.10335608 
   35100   -953.20553    36.943325   -916.26221    1323.1759   -3.9732995    2.2006043    4.5506282   0.11667498 
   35200   -951.31976    40.559914   -910.75984     1452.709   -85.921999    2.1898804    6.4771216   0.10749247 
   35300   -951.21353    43.405969   -907.80756    1554.6444   -35.342744    2.1864454    5.9095375   0.10940487 
   35400   -951.82609    40.036587   -911.78951    1433.9653   -16.558592    2.1915698    5.4435764   0.11429432 
   35500   -952.42942    36.603068   -915.82635    1310.9892    1710.7217    2.1981548    5.9856544   0.11182792 
   35600   -948.29621     40.78304   -907.51317    1460.7006   -506.47126    2.1823206     6.891689   0.12486556 
   35700   -952.23772    43.036435   -909.20128     1541.409   -1945.0856    2.1843233     6.476935   0.11118457 
   35800   -955.97933    42.462659   -913.51667    1520.8584   -1361.3118    2.1942364    5.2172215   0.11358353 
   35900    -951.6832    38.190611   -913.49259    1367.8492    4548.6014    2.2004264    5.8333439   0.10393134 
   36000   -947.20736    40.599986   -906.60737    1454.1443    337.86261    2.1799694    5.4393557   0.11548752 
   36100   -948.45073    39.214984   -909.23575    1404.5385    -5653.112    2.1698262    6.5763436   0.11006784 
   36200   -952.40399    41.682158   -910.72183    1492.9037   -1635.8293    2.1895709    4.5534467   0.10492702 
   36300   -954.56391    38.568259   -915.99565    1381.3752    8116.1976    2.2198016     6.138027   0.10470949 
   36400   -956.27574    39.276086   -916.99965     1406.727    2772.7623    2.2076953    5.4130659   0.10157514 
   36500   -950.61957    39.285311   -911.33426    1407.0574   -5904.3666    2.1766685    5.4361026    0.1112026 
   36600   -951.35865    42.183155    -909.1755    1510.8476   -7157.9744    2.1747011    6.2522521   0.11790588 
   36700   -953.14241    47.327063   -905.81535    1695.0838    4426.4388    2.1996093    6.5007187   0.11599427 
   36800   -951.89665    43.473806   -908.42285    1557.0741    5478.5809    2.2050053    6.6975017   0.12424236 
   36900   -952.42429    39.017462   -913.40683     1397.464   -6241.0071    2.1778011    5.9076506   0.11635314 
   37000   -954.00329    43.850226   -910.15307    1570.5561   -10019.777    2.1692431    5.2475813   0.10940093 
   37100   -952.01301     45.09869   -906.91432    1615.2715    4903.7513    2.1973532    5.3766599   0.10774286 
   37200   -954.17629    40.491318   -913.68497    1450.2522    10698.973    2.2207292    5.3336007   0.11111168 
   37300   -951.58794    38.412786   -913.17516    1375.8067   -3952.0162    2.1801066    5.1808764   0.10454969 
   37400   -951.09868    42.487012   -908.61167    1521.7307   -12736.517    2.1547288     5.885606   0.11183354 
   37500   -948.26323    39.981411   -908.28182    1431.9891    4286.1162    2.1927001    5.6627093  0.098889111 
   37600   -956.67878    42.156872   -914.52191    1509.9063    15746.386    2.2371862    5.6089344  0.093989078 
   37700   -949.34722    42.023105   -907.32411    1505.1152    494.57715    2.1845305    5.5680835   0.11480663 
   37800   -950.20349    42.371775   -907.83172    1517.6033   -9495.4737    2.1617074    5.6840487   0.11085873 
   37900   -954.03541    43.411784   -910.62363    1554.8527     -3283.03    2.1831377     6.386964   0.11015007 
   38000   -954.47008    41.729906   -912.74017    1494.6139    3190.8918    2.2015278    5.5765625   0.10355874 
   38100   -946.74939    43.301085   -903.44831    1550.8878    -1672.077    2.1737967    6.4572077   0.11068647 
   38200   -950.35223    42.101104   -908.25112    1507.9089   -776.52613    2.1819093    5.3995745   0.11283956 
   38300   -951.28751    40.160146   -911.12736    1438.3908    2095.1693    2.1904842    6.0320512   0.10760672 
   38400   -948.62165      42.9949   -905.62675    1539.9214     1667.409    2.1844527    4.8434577   0.10493436 
   38500   -946.44058    41.649442   -904.79114     1491.732    2556.9784    2.1824536    5.9859561   0.10812774 
   38600   -953.89153    43.188995   -910.70254    1546.8732    -3320.632    2.1830901    6.7776561  0.095522573 
   38700   -952.33995    43.680248    -908.6597    1564.4681   -1425.0632    2.1853516    5.2707588   0.11008552 
   38800   -949.39486    47.914556    -901.4803    1716.1256   -1448.7804    2.1798591    5.6834208   0.11456546 
   38900   -949.41016    39.046241   -910.36392    1398.4947    4307.7048     2.196566    4.7756055   0.11670006 
   39000   -947.78868    37.844789   -909.94389    1355.4631    291.82503    2.1809801    5.4245419   0.12675735 
   39100   -947.57523    42.720665   -904.85456    1530.0993   -4347.7228    2.1694389    5.5874396   0.11541125 
   39200   -949.04026    43.885494   -905.15477    1571.8192    2121.4428    2.1878763    5.5101816   0.11304095 
   39300   -953.30581    42.164317   -911.14149    1510.1729    8302.8508    2.2113019     5.013921   0.10359849 
   39400   -948.86159     40.39156   -908.47003    1446.6792    3453.8619    2.1930734    4.8950829   0.10116918 
   39500   -948.43646     40.39794   -908.03852    1446.9077   -9403.5197    2.1604517    6.0160952   0.10788708 
   39600   -954.82362    37.881316    -916.9423    1356.7714   -3915.9376    2.1898781    6.3263724   0.11417745 
   39700   -954.58816     44.12724   -910.46092    1580.4777    6590.6903    2.2098372    6.1649036   0.10314491 
   39800   -950.92475    43.486934   -907.43781    1557.5443     6340.552    2.2030841    5.5194062   0.11105068 
   39900   -951.75555    40.338803   -911.41675    1444.7896   -7883.5935    2.1719012    6.0984369   0.11787734 
   40000   -955.51753    39.349073   -916.16845    1409.3411   -7413.5842     2.180573    4.8168148    0.1136953 
   40100   -950.36346    42.160693   -908.20277    1510.0431    3323.4033    2.1977889    6.9154107   0.12683304 
   40200   -950.58012    42.253971   -908.32615     1513.384    9231.7957    2.2094848    5.6483327   0.11047825 
   40300   -955.30276    41.686307   -913.61646    1493.0523   -3597.2996    2.1894928    5.0013698    0.1080999 
   40400   -952.33791    38.509493   -913.82841    1379.2704   -6628.9143    2.1771073     4.991385    0.1084427 
   40500    -951.0091    43.814368   -907.19473    1569.2718   -1000.4128    2.1848861    5.7610509   0.11710637 
   40600   -950.46826    41.753442   -908.71482    1495.4569    5699.9715    2.2017043    6.3888309   0.12287143 
   40700   -949.83774    38.202978   -911.63476    1368.2921    3327.5132    2.1971609    6.1096983   0.11432515 
   40800   -950.26042    39.796598   -910.46382    1425.3698   -396.21489    2.1846417    5.6188141   0.12345511 
   40900   -946.71171    42.557777   -904.15393    1524.2652   -2380.5236    2.1744307    5.3898677     0.116956 
   41000   -950.58377    42.312829   -908.27094    1515.4921    86.907677    2.1880015    6.1854475   0.11969096 
   41100   -950.51658    39.751408   -910.76517    1423.7513    1477.8747    2.1969081    5.7298703   0.12749112 
   41200   -949.62239    43.451581   -906.17081    1556.2781    1457.5072    2.1908663    5.8606725   0.11179426 
   41300   -947.01925    42.880112   -904.13914    1535.8101   -916.37243    2.1783641     6.283166   0.11988436 
   41400   -954.72805    44.519931   -910.20812    1594.5425   -5438.9852     2.182819    6.1719166   0.10879402 
   41500   -951.06305    41.791061   -909.27199    1496.8043      1485.42    2.1926633    5.2732715   0.11055739 
   41600   -944.56518    43.643478    -900.9217    1563.1511    3281.9176    2.1862863    6.2112221     0.133893 
   41700   -950.92039    42.013955   -908.90643    1504.7875    1757.9133    2.1972565    4.8053041   0.11866978 
   41800   -950.26931    39.976628   -910.29268    1431.8179   -3678.5617    2.1796045    6.2156078   0.12474615 
   41900   -949.67249    43.905142   -905.76735     1572.523   -4444.9948    2.1745443    5.0740252   0.11579805 
   42000   -949.03694     47.02878   -902.00816    1684.4004    2634.4198    2.1931507    5.9269746   0.12555701 
   42100   -952.73112    42.057158   -910.67396    1506.3349    12165.517    2.2225147    6.1553712  0.096888901 
   42200   -950.47804    41.413282   -909.06476    1483.2736    -2409.482    2.1795622    5.8333755    0.1066187 
   42300   -951.24103    43.435831    -907.8052     1555.714   -15072.909    2.1526888     5.786798   0.10869645 
   42400    -956.5678    39.870467   -916.69734    1428.0156    785.90132     2.202835    5.1396681   0.09997473 
   42500   -952.04711    40.601624   -911.44548    1454.2029    10772.148    2.2187591    5.7707906    0.1237198 
   42600   -953.07433    45.121717   -907.95261    1616.0963     491.4431    2.1943752    5.1838426   0.11414109 
   42700   -953.81392     44.04418   -909.76974    1577.5028    -9576.951     2.168546    6.1686739    0.1069097 
   42800   -954.05943    37.334579   -916.72485    1337.1892   -951.62721     2.193138    4.1947416   0.11056525 
   42900   -951.02894      42.2166   -908.81234    1512.0455    3482.3967    2.1989979    4.8800881    0.1150438 
   43000   -951.76957    43.507742   -908.26183    1558.2895    3124.9299    2.1953224    7.2779318   0.11545354 
   43100    -951.3793    38.490658   -912.88864    1378.5958    -702.8838    2.1901042    7.0742216   0.12077229 
   43200   -955.27512    39.346657   -915.92846    1409.2546   -1776.7283    2.1933889    5.6421502  0.093187885 
   43300   -951.57348    43.496713   -908.07677    1557.8945   -2946.2769    2.1844237    6.8590186   0.10974589 
   43400   -951.25636     42.23128   -909.02508    1512.5713    1522.1083    2.1930214    4.4901186   0.12683081 
   43500   -953.36666    41.359889   -912.00677    1481.3612    465.09004    2.1944358     5.067919   0.11657103 
   43600   -955.28138    35.904872   -919.37651    1285.9823    1574.0274    2.2033662    5.0228905   0.11544821 
   43700   -952.02768     41.20673   -910.82095    1475.8756   -3832.5468    2.1796964    5.6593848   0.11775766 
   43800   -949.22274    40.006488   -909.21625    1432.8873    1883.7578    2.1921444    5.1954049   0.12110503 
   43900   -950.04849     41.97125   -908.07724     1503.258    6110.5211    2.2036879    5.2126977   0.11464507 
   44000   -950.14934      38.9364   -911.21294    1394.5606    242.40195    2.1901606    5.9908418   0.11852921 
   44100   -953.96125    38.112639   -915.84861    1365.0565   -7116.8777    2.1772334    6.1112074   0.10247102 
   44200   -952.47838    42.000899   -910.47748    1504.3199    2095.3211    2.1949412    5.9465943   0.10124692 
   44300   -951.11253    44.073588   -907.03894    1578.5561    9462.5716    2.2121661    4.1474615   0.11235251 
   44400   -952.03784    39.888652   -912.14918    1428.6669   -892.59971    2.1885689    5.7898758   0.11154095 
   44500    -953.9841    38.575538   -915.40856    1381.6359   -11029.428      2.16494    5.3001041   0.10895301 
   44600   -948.14434    39.312714   -908.83162    1408.0388   -1908.5642    2.1788349      5.82027   0.12774505 
   44700   -952.29988    44.125694   -908.17418    1580.4223    9655.1831    2.2142069    7.1138037   0.11490918 
   44800   -954.68291    40.293196   -914.38972    1443.1561    5331.9963     2.207604    5.1726073   0.11929691 
   44900   -952.32145    41.145517   -911.17594    1473.6832   -5842.8823    2.1742516    6.7222348   0.11107427 
   45000    -951.9452    44.305817   -907.63938    1586.8737   -7259.9273    2.1710378    5.8103855   0.10914704 
   45100   -950.67642    41.365254   -909.31117    1481.5534    2635.3373    2.1906175    6.8987194   0.10037078 
   45200   -954.57803    41.359741   -913.21829    1481.3559    3161.1434    2.2015886    5.4244925      0.10069 
   45300   -950.01238    43.896192   -906.11619    1572.2024   -111.58985     2.182334    4.6282978   0.11118562 
   45400   -951.34855    45.080679   -906.26787    1614.6264   -3531.2049    2.1752215    5.1619974   0.10648452 
   45500   -948.23119    38.345772   -909.88542    1373.4065    635.38707    2.1814307    6.3694359   0.10963837 
   45600   -952.24427    41.241537   -911.00273    1477.1223    1254.5573    2.1927493    4.4722601   0.10404287 
   45700   -946.24676     44.68803   -901.55873    1600.5632    167.70597    2.1735267    4.6285185   0.11545342 
   45800   -951.60258    43.589023   -908.01356    1561.2007   -444.40081    2.1869047    5.9259138   0.12105574 
   45900   -953.05789     42.31873   -910.73916    1515.7034   -1810.6291    2.1862161    5.4303493   0.10492713 
   46000   -954.04222    47.948233   -906.09399    1717.3318   -3589.7888    2.1831442    6.6934795   0.11822082 
   46100   -948.59838     45.01211   -903.58627    1612.1706   -1155.4734    2.1772877    6.1009086   0.11691108 
   46200   -951.73945    41.104924   -910.63453    1472.2293    861.99944    2.1927359    4.8809348   0.11130055 
   46300   -952.62903      43.8024   -908.82663    1568.8431   -1087.2119     2.189904    5.8577612   0.12607549 
   46400   -948.04608    45.490575   -902.55551    1629.3074   -2192.6145    2.1764058    5.1164767   0.12097368 
   46500   -952.92458     42.43627   -910.48831    1519.9133   -1102.9364    2.1920347     4.921856   0.10267831 
   46600   -950.77311    40.182771   -910.59034    1439.2011   -1468.5529    2.1851817    5.9615092   0.10182237 
   46700   -949.20754    41.357959   -907.84958    1481.2921   -49.732038    2.1852459    6.2068137   0.11476355 
   46800   -949.24451    44.118054   -905.12646    1580.1487    642.65653    2.1877927     5.050647   0.11152206 
   46900   -948.99864    36.363279   -912.63537    1302.4008    892.43929    2.1888866    5.9766474   0.11521754 
   47000   -950.98576    38.456808   -912.52895    1377.3834   -4215.1593    2.1816278    5.5312693   0.11414625 
   47100   -949.47767    39.707752   -909.76991    1422.1877    1674.8409    2.1905364    5.9063615   0.10550644 
   47200    -948.9195    42.199999    -906.7195    1511.4509    4820.0202     2.193737    4.4185231   0.11310482 
   47300   -948.73454    42.998563   -905.73598    1540.0526   -1750.0674    2.1783032    5.4711565   0.11504085 
   47400   -951.99436    37.831925   -914.16243    1355.0024    690.74487    2.1964527    6.0323234   0.12480324 
   47500   -955.06368    44.829436   -910.23424    1605.6278   -757.31099    2.1948964    5.2848192   0.10825678 
   47600   -949.83077    42.423846   -907.40693    1519.4683   -1313.4095    2.1840167    6.2434427   0.10818558 
   47700   -952.37432    42.685694   -909.68863    1528.8468   -8265.4537    2.1713513    4.6619069   0.10417405 
   47800   -953.63129    38.779835   -914.85145     1388.953    1249.0898    2.1982688    6.7908833   0.11408266 
   47900   -950.28802    42.452414   -907.83561    1520.4915    11915.467    2.2175909    5.7163038   0.11561684 
   48000   -950.66769    42.260166   -908.40753    1513.6059     1505.844    2.1903864    6.1128392   0.11430946 
   48100   -951.76383    36.757671   -915.00616    1316.5265   -9782.8538    2.1676129    6.0483461   0.11423603 
   48200   -951.75059    40.191397   -911.55919    1439.5101   -3764.6268    2.1782528     5.645417   0.10609806 
   48300   -951.25714    44.334796   -906.92234    1587.9116    10323.743    2.2136643    4.3503147   0.12134673 
   48400   -953.76775    43.415053    -910.3527    1554.9697     4300.277    2.2031171    5.4932532   0.11068952 
   48500   -952.96995    37.776551   -915.19339    1353.0191   -7441.8999    2.1773042    6.3342746   0.11759176 
   48600   -951.05489    42.061441   -908.99345    1506.4883   -4216.6509    2.1765873     5.848082   0.11220523 
   48700     -949.518     42.34882   -907.16918    1516.7812    9202.6239    2.2053949    5.3097477   0.10828371 
   48800   -950.60871    41.611887   -908.99682    1490.3869    4794.4109    2.1977239    5.1902528   0.11032595 
   48900    -951.3697    38.861069   -912.50864    1391.8626   -4047.5799    2.1786723    6.7897977   0.11692831 
   49000   -954.11039    35.614553   -918.49584    1275.5841   -3228.7222    2.1899713    5.3879165   0.11186899 
   49100   -953.79623    42.813947   -910.98228    1533.4403    2008.3126    2.1999766    5.6381453   0.10853049 
   49200   -949.34166    40.247059    -909.0946    1441.5037    10669.523    2.2117851    4.9503702    0.1150321 
   49300   -952.44859    43.420395   -909.02819    1555.1611   -2757.0714    2.1845122    5.5112898    0.1225952 
   49400      -948.34     42.10991   -906.23009    1508.2243   -6381.3905    2.1658151    6.5778381   0.12153251 
   49500   -943.85666     45.87827   -897.97839    1643.1933   -1562.0126    2.1650673    6.4042768   0.12368179 
   49600   -950.84705    43.493755    -907.3533    1557.7886    9747.0893    2.2093652    6.4921265   0.11959456 
   49700   -949.88015    40.710035   -909.17011    1458.0858    1823.7636    2.1942975     5.460003   0.11948304 
   49800   -952.71007    42.408678   -910.30139    1518.9251   -4036.1425    2.1800444    4.8067541   0.11477085 
   49900   -956.57069    38.616001   -917.95469    1383.0851   -3561.6101    2.1944171    5.4369778  0.099414537 
   50000    -949.5835    35.462553   -914.12095      1270.14    4526.1105    2.2000182    5.8890607   0.11746974 
   50100   -951.61612    41.955073   -909.66105    1502.6786    4443.9918    2.1995335    4.4032593    0.1054204 
   50200    -952.1368    43.810837   -908.32597    1569.1453    -1979.824    2.1867197    4.4497594   0.12042482 
   50300   -948.14479    41.869353   -906.27543    1499.6084   -3983.1125    2.1743814    5.9606753   0.12642525 
   50400   -954.05074     39.14804    -914.9027    1402.1408   -2236.1597    2.1908826    5.4258069   0.10851838 
   50500   -954.53551    41.332207   -913.20331    1480.3698   -3.0717722    2.1970329    6.3669883   0.10742276 
   50600   -954.58644    44.946777   -909.63966    1609.8306    2513.4625    2.1992353    4.0540003   0.11283375 
   50700   -948.99021    41.652046   -907.33817    1491.8252   -185.60475    2.1884545    4.8541092   0.13323342 
   50800   -949.71153    39.996278   -909.71525    1432.5216   -5489.7888    2.1758811    5.2577327   0.12071626 
   50900   -955.59172    40.878864   -914.71286    1464.1327   -2649.0603    2.1937978     6.413189   0.10011327 
   51000   -954.37977     45.79806   -908.58171    1640.3204    8132.4722     2.216445    6.1237836   0.10622143 
   51100   -952.90796    45.388178   -907.51978    1625.6399    3343.6658    2.1989739    5.9382355   0.11172684 
   51200   -955.44965    42.003185   -913.44646    1504.4018    -15358.95    2.1573098    4.3651029   0.11736879 
   51300   -953.47258    40.329333   -913.14325    1444.4504   -9129.9268    2.1722736    4.1097215   0.10690852 
   51400   -948.45711    41.440486   -907.01662    1484.2479    10006.408    2.2108034    6.1870063     0.111413 
   51500   -954.23134    44.744073   -909.48726    1602.5704    5998.6478    2.2070577    6.9653708   0.10805002 
   51600   -953.44469    37.788476   -915.65621    1353.4462   -5801.2362    2.1825367    5.4849507   0.11068243 
   51700   -950.21902    40.649564   -909.56946      1455.92   -3645.5357    2.1765895     4.894518   0.11787612 
   51800   -949.67259     42.10101   -907.57158    1507.9055    6744.1214    2.2005701    6.2706135   0.11089211 
   51900   -953.12443     43.12564   -909.99879     1544.604     2431.322    2.2012055    5.5164411   0.10334866 
   52000   -953.01866    39.028628   -913.99003    1397.8639   -3473.9918    2.1881287    6.9283075    0.1009868 
   52100   -957.75067    38.299306   -919.45136    1371.7423   -4382.9773    2.1958705    5.3134519   0.10257936 
   52200   -953.84523    43.128727    -910.7165    1544.7146   -1779.0899    2.1888157    5.6483709  0.099398231 
   52300   -951.33048    41.944466   -909.38601    1502.2986    2319.3609    2.1963625    6.0254204   0.10220682 
   52400   -950.14958    41.972644   -908.17693    1503.3079    1536.6576    2.1920981    6.3258399   0.11256986 
   52500   -945.97175    44.945563   -901.02619    1609.7871   -1921.4589    2.1688929    6.8168307   0.11592861 
   52600   -949.08048     45.02601   -904.05447    1612.6684   -3635.9576    2.1714461     5.595751   0.11844464 
   52700   -954.42064    45.688662   -908.73198    1636.4022    -1671.766    2.1876501    5.4830978   0.10074776 
   52800   -952.07375    43.064594   -909.00915    1542.4176    8352.7465    2.2088219    6.4288874  0.099727563 
   52900   -950.90829    38.670654   -912.23763    1385.0426    1215.9542    2.1938331    5.3238441   0.12566347 
   53000   -954.10549    35.221119   -918.88438    1261.4928   -7573.1447     2.180909     6.488887   0.11319826 
   53100   -952.24852    40.633292   -911.61523    1455.3372    -5666.196    2.1803776    5.1215224   0.10854977 
   53200   -952.25504    43.652148   -908.60289    1563.4616    6850.1962    2.2089548    4.3788922  0.096244417 
   53300   -955.07088    46.696789   -908.37409    1672.5096    3906.0824    2.2054314    4.7317116  0.097392642 
   53400   -952.76413    39.593753   -913.17038    1418.1046   -9499.4513    2.1718205    7.1653245   0.10184987 
   53500   -955.05495    39.791054    -915.2639    1425.1713   -9966.9769    2.1728212    5.2233528   0.10475171 
   53600    -953.9169    44.381089   -909.53581    1589.5697    5467.9453    2.2051239    4.3937135  0.092461171 
   53700   -951.94035    44.424753   -907.51559    1591.1336    6857.1528    2.2066942     5.338188   0.10206363 
   53800   -952.40573    40.408553   -911.99718    1447.2878   -3827.5094    2.1827535    5.2795123    0.1052213 
   53900   -955.14888     40.22443   -914.92445    1440.6932   -6007.9313    2.1837733    6.7394654    0.1029378 
   54000   -951.49826     43.05948   -908.43878    1542.2344    868.79868    2.1914016    5.3979442   0.11997685 
   54100   -952.86666    44.461728   -908.40493    1592.4579    1891.9727    2.1973534    5.9902812   0.10945169 
   54200   -953.29583    37.393799   -915.90203    1339.3103    1343.6792    2.1961515    3.9344998   0.10219479 
   54300    -949.4872    38.725881   -910.76132    1387.0206   -2501.1613    2.1778477    5.2459388  0.091935027 
   54400    -949.8745    41.905997    -907.9685    1500.9208    2170.2919    2.1861459    6.8905691  0.098345306 
   54500    -951.6212    41.071565   -910.54964    1471.0345    3097.3677    2.1974603    5.2092579  0.096724859 
   54600   -955.91318    39.085718   -916.82746    1399.9087   -273.00481    2.1979681    5.6300152  0.090392588 
   54700   -950.12517    41.915494   -908.20967     1501.261   -4655.1902    2.1716818    4.8484319   0.10518669 
   54800   -951.27838    42.893696   -908.38468    1536.2966    2230.3655    2.1898474    7.0714672  0.097860345 
   54900   -952.62462    42.490175   -910.13444     1521.844    4776.2855    2.2003624    5.7696438  0.098808334 
   55000   -953.43473    37.783069   -915.65166    1353.2525   -904.13138    2.1898304    5.3962261  0.098526242 
   55100   -954.23653    38.158218   -916.07832     1366.689   -4523.8179    2.1828299    5.7011305   0.10471056 
   55200   -953.07557    42.953208   -910.12236    1538.4281    1063.8671    2.1906344    7.0121722  0.098088995 
   55300   -951.84062    43.004425   -908.83619    1540.2625    4264.5605    2.2009439    6.4290147   0.10114304 
   55400   -952.02895    42.761769   -909.26719    1531.5715    -2021.985    2.1843086    4.9477392    0.1124946 
   55500   -949.01634    35.740634   -913.27571    1280.0999   -11746.445    2.1585148     4.176878   0.10035221 
   55600   -954.04096    38.043591   -915.99737    1362.5835    1013.6505    2.1959963    5.2801693   0.10261273 
   55700   -951.89071    42.307524   -909.58319    1515.3021    15464.335    2.2278466    6.7259057   0.10451644 
   55800   -951.12499     43.18928   -907.93571    1546.8834    2463.2909    2.1912305    6.2024067  0.096521111 
   55900   -951.62387    42.301724   -909.32214    1515.0944   -12566.679    2.1543382    5.8972916   0.11237966 
   56000   -957.68917    41.247948   -916.44122    1477.3519   -5197.8134    2.1896463    5.9256189   0.10214217 
   56100   -948.62001    39.962519   -908.65749    1431.3125    10687.398    2.2093306    5.9440919   0.11365324 
   56200   -949.31517    41.081859   -908.23331    1471.4032    4512.0646    2.1980796    6.3503784   0.10943163 
   56300   -956.18379    42.687801   -913.49599    1528.9222   -9176.5886    2.1718082    5.5778213  0.098890396 
   56400   -951.70179    37.582825   -914.11896    1346.0805   -4466.7956    2.1793328    6.0784054  0.096209804 
   56500   -951.16991    43.559984   -907.60992    1560.1607    3850.0773    2.1956692    3.5965915   0.10508693 
   56600   -950.15135    40.934581   -909.21677    1466.1282    5088.0208    2.1982942    6.5715175   0.11040197 
   56700   -952.03551    37.883345   -914.15216     1356.844   -2535.9659    2.1839264    6.6682968   0.10945194 
   56800   -954.55607    41.612515   -912.94355    1490.4094   -5827.8613    2.1827478    6.0006405   0.10732725 
   56900   -948.89162    41.658399   -907.23322    1492.0528     3317.643    2.1885691     5.716402   0.10468427 
   57000   -950.74235    41.859438   -908.88291    1499.2533    3802.2635    2.1922861    6.4874883   0.10471822 
   57100   -954.20327    42.050968    -912.1523    1506.1132   -4343.8124    2.1844362    6.2112326   0.11618901 
   57200   -955.47197    37.472456   -917.99951    1342.1275   -5270.0691    2.1863501    5.4690169   0.11081589 
   57300   -952.12862    39.356493   -912.77213    1409.6068    4015.8329    2.1998167    6.7153393   0.10207654 
   57400   -949.61715    40.395225   -909.22192    1446.8105    15711.665    2.2212424    5.0924229   0.10754868 
   57500   -950.30412    41.502891   -908.80123    1486.4831   -3106.1879    2.1758679     5.864753   0.10663654 
   57600   -951.74918     43.30032   -908.44886    1550.8604   -15512.537    2.1471743     5.370487    0.1065276 
   57700   -954.19645    36.894163   -917.30229    1321.4151    4884.3444    2.2050579    6.0011588   0.10397967 
   57800   -953.65654    43.494515   -910.16203    1557.8158    8701.3984     2.214516    6.2934174   0.10852075 
   57900   -950.07512    41.734897   -908.34023    1494.7927    1196.2578    2.1895333    5.6898701   0.11560558 
   58000   -951.47984    40.969507   -910.51034    1467.3792   -7940.7106    2.1709539    6.4945488   0.11697278 
   58100   -953.34956    36.382923   -916.96664    1303.1043    1877.7792    2.1965524    5.8955493   0.10968416 
   58200   -950.40742     41.71208   -908.69534    1493.9754    3702.2109    2.1953748    5.1027673   0.11919341 
   58300   -952.04343    43.524767   -908.51866    1558.8993    652.25926    2.1889357    5.4555888   0.11137094 
   58400   -953.54889    41.209648   -912.33924    1475.9801   -3825.8239    2.1813744    5.0276138   0.11226556 
   58500   -957.47847    40.326188   -917.15228    1444.3378   -2885.7752     2.194732     5.096302   0.10659819 
   58600   -952.10104    43.296607   -908.80443    1550.7274     1036.793    2.1917937      4.99631   0.10425221 
   58700   -952.94682    44.216755   -908.73006    1583.6838    1962.9393    2.1919207    6.3453736  0.097579497 
   58800   -953.07124    41.944985   -911.12625    1502.3173   -1843.9062    2.1893525    6.1831807   0.10370281 
   58900   -956.49181    37.617113    -918.8747    1347.3086    -1373.672    2.1988198     5.652483   0.10037321 
   59000   -952.73905    42.057623   -910.68143    1506.3515   -2754.2634    2.1868483    5.2412724   0.11669769 
   59100   -950.95858    42.242819   -908.71576    1512.9846    3039.9638    2.1972058    5.6823903   0.10962441 
   59200   -954.15409    45.242679   -908.91141    1620.4287    2105.6849    2.1961632    4.6280619   0.10904536 
   59300   -954.03972    36.789811   -917.24991    1317.6776   -2378.2125    2.1904269    5.1042504    0.1058078 
   59400   -950.99284    39.314661   -911.67818    1408.1086   -5552.8016    2.1763228    5.5912375   0.11255607 
   59500   -950.79626    42.482397   -908.31386    1521.5654    5107.1006    2.1999934    6.6854845   0.12390904 
   59600   -949.46713    40.515659   -908.95147     1451.124    9475.4752    2.2074602      5.19805   0.11685628 
   59700   -952.99606    35.989775   -917.00629    1289.0232   -2433.3391    2.1933414    6.3112809   0.10738395 
   59800   -951.75905    41.690848    -910.0682     1493.215   -10593.224     2.162909    5.3608429  0.097599113 
   59900      -951.23    43.008497    -908.2215    1540.4084    1161.0965    2.1905363     5.841229   0.11230314 
   60000   -950.07212    39.667546   -910.40457    1420.7476    9933.7134    2.2143127    5.3835249   0.10198784 
   60100   -957.72981    40.133724   -917.59608    1437.4445   -547.12233     2.201611    4.8513469  0.098120366 
   60200   -948.16569    38.932234   -909.23346    1394.4114   -8814.6516    2.1623796    5.2216788   0.10829579 
   60300   -952.84008    43.910017   -908.93006    1572.6976   -2499.8295    2.1869412    5.4296156   0.11563321 
   60400   -953.98582    44.887596   -909.09823    1607.7109    7285.7941     2.209555    5.1326354   0.11050309 
   60500    -953.7529     38.93944   -914.81346    1394.6695     1005.106    2.1969718    4.8811722   0.10866061 
   60600    -952.1636    36.343261   -915.82034    1301.6838   -2587.2153    2.1861262    4.6033596   0.10799223 
   60700   -952.72106     42.76773   -909.95333     1531.785   -1656.5363    2.1880597    6.3179372   0.10216869 
   60800   -951.11752    42.624669   -908.49285     1526.661    2389.9155    2.1929183    5.1732851   0.10909225 
   60900   -951.06983    41.516899   -909.55293    1486.9847    489.93104    2.1906628    5.8675227   0.10379559 
   61000   -959.98503    42.540376   -917.44465     1523.642    -2521.947    2.2020498    6.6514393  0.093909943 
   61100   -954.95868     44.33381   -910.62487    1587.8763   -5667.6566    2.1834417    5.3995521   0.10185539 
   61200   -951.55518    43.200397   -908.35479    1547.2816   -2802.9469    2.1812968    5.2546993   0.10414657 
   61300   -954.52851    44.153422   -910.37509    1581.4154   -837.71397    2.1912652    6.1910312   0.11002777 
   61400   -955.43465    38.897014   -916.53764      1393.15    3330.1913    2.2085128    5.5002319   0.11197784 
   61500   -950.52131    41.584266   -908.93704    1489.3976   -1612.7275    2.1838214    3.9398797   0.11826084 
   61600   -952.85965     44.27492   -908.58473    1585.7671    -4142.157     2.178836    5.5819664    0.1019071 
   61700   -954.69726     40.58895   -914.10831     1453.749    470.18341    2.1949877    5.9473438    0.1076232 
   61800   -953.68202    39.883279   -913.79874    1428.4744     3171.696    2.2040824    5.6442044   0.11036005 
   61900   -949.55758     41.59419   -907.96339    1489.7531    308.75886       2.1866    5.9834839   0.11363018 
   62000   -952.36934    42.562469   -909.80687    1524.4333   -4596.4686    2.1792929    3.9643331   0.11207726 
   62100   -952.72194    42.689726   -910.03222    1528.9912    876.68134    2.1933286    5.1075058  0.097458652 
   62200   -947.20095    46.163918   -901.03703    1653.4241   -1839.9066    2.1721271    4.8626645   0.11694657 
   62300   -950.32237    42.648997   -907.67337    1527.5324   -775.79179    2.1864864    4.4542927   0.11130498 
   62400   -950.82097    40.568785   -910.25219    1453.0268    552.05724    2.1883839    5.5299326    0.1127615 
   62500   -949.90238    42.389469   -907.51291     1518.237    1716.4884    2.1868238    4.6903014  0.098050178 
   62600   -946.89988    45.087271   -901.81261    1614.8625    -1253.238    2.1712595    5.7316699   0.11655758 
   62700   -952.22341    42.488826   -909.73459    1521.7956   -224.54644    2.1875103    4.9069305   0.10028059 
   62800   -950.19141    40.596643   -909.59477    1454.0245    2447.2225    2.1926365    5.1205079   0.10834626 
   62900   -946.26773    43.263171   -903.00456    1549.5299    306.79271    2.1771549    3.1766934   0.11698108 
   63000   -952.30139    45.927402   -906.37399     1644.953   -5261.6444    2.1744038    5.9205944   0.10596257 
   63100    -952.3712    41.947207   -910.42399    1502.3968   -4638.3372    2.1772958     4.455621    0.1080202 
   63200    -950.0813    43.336545   -906.74476    1552.1579    3582.8945    2.1916097    5.3232759   0.13425819 
   63300   -944.16948    43.112017   -901.05746    1544.1161    10696.735    2.1922816    3.9282283   0.14662837 
   63400   -950.33173    40.125287   -910.20644    1437.1423    1027.3801    2.1869943     6.245153   0.11315208 
   63500   -952.35176    42.224246   -910.12751    1512.3194   -13648.458    2.1568914    5.5952974   0.12202459 
   63600   -947.92255    41.218557   -906.70399    1476.2992   -2361.2774    2.1757877    5.8911952  0.097815735 
   63700   -953.36739    40.670125   -912.69726    1456.6564    9271.9972    2.2153204    4.7174341   0.09732997 
   63800    -952.2701    38.940821   -913.32928     1394.719    4804.5989    2.2031359    7.2794448   0.10378984 
   63900   -949.72409    40.971451   -908.75264    1467.4488    -6128.912     2.166562    6.3218578  0.096968533 
   64000   -949.75331    42.344655   -907.40865     1516.632   -4052.5886    2.1711965    5.7161083   0.10166296 
   64100    -954.3342    38.685602    -915.6486     1385.578    6363.2685    2.2139896    4.4717278    0.0931653 
   64200     -950.362    41.104476   -909.25753    1472.2133     3874.306     2.199322    4.6755653   0.12394457 
   64300   -947.92364      39.9645   -907.95914    1431.3835   -4462.4625    2.1764215    5.4606567   0.11488702 
   64400    -951.6074    39.020069   -912.58733    1397.5574   -6194.4721    2.1778386    4.6952954   0.10685349 
   64500   -951.73269    38.761992    -912.9707     1388.314    5336.0829    2.2052462     4.114831   0.10517305 
   64600   -948.01138    42.381907   -905.62947    1517.9662     10335.71    2.2060321    5.4756554  0.098734798 
   64700   -950.91482    41.299878   -909.61495    1479.2119   -5142.6729    2.1747928    7.4735116   0.11368947 
   64800   -952.49687    39.866937   -912.62993    1427.8891   -15434.936    2.1556622    5.1088799   0.10340146 
   64900   -951.76574    41.652198   -910.11355    1491.8307    6420.0119    2.2060586     5.740445   0.10705453 
   65000   -951.64453    47.192193   -904.45234    1690.2532    15171.689    2.2262872    4.2215083   0.10710403 
   65100   -949.79854    41.127254   -908.67129    1473.0291   -4079.4725    2.1767567    4.7573592   0.10110194 
   65200   -950.44104    39.505244   -910.93579    1414.9346   -11192.615    2.1630187    5.5884984   0.11813318 
   65300   -952.88466    40.220915   -912.66375    1440.5673    619.19089    2.1959754     3.881986   0.11586419 
   65400   -948.37846    45.060738   -903.31772    1613.9122    4637.6831    2.1903197    6.1003373   0.11284938 
   65500   -947.98403    40.805646   -907.17838    1461.5103    2674.3357    2.1885468    4.7773373    0.1107616 
   65600   -950.59498    40.149193   -910.44579    1437.9985    -1309.983    2.1840074    6.0573407   0.10904657 
   65700    -955.4904    45.352077   -910.13833    1624.3469   -4363.4677    2.1853259    6.0780847    0.1048279 
   65800   -947.02428    44.865825   -902.15845    1606.9312   -2072.2965     2.174949    5.2168116    0.1232696 
   65900   -952.23555    43.500226   -908.73532    1558.0204    2809.3897    2.1973061    5.1832989   0.11266517 
   66000   -952.27948    41.692798   -910.58668    1493.2848    2196.6793    2.1999805    4.9830273   0.12698714 
   66100   -947.62754    44.377029   -903.25052    1589.4242   -3041.4988    2.1743098    4.7476346   0.11654229 
   66200   -951.21305    44.960807   -906.25225     1610.333   -3272.7643    2.1784128    5.4829623   0.10812517 
   66300   -956.28937    45.714311   -910.57506    1637.3208    -1846.254    2.1956688     6.192876   0.10738775 
   66400   -952.41155    45.294368   -907.11719      1622.28    4396.0239    2.2042975    5.6039093   0.11274565 
   66500   -945.55127    42.957856   -902.59342    1538.5946   -1350.6305    2.1765616    6.2313717   0.13777945 
   66600   -951.23573    39.296211   -911.93952    1407.4478   -4568.6666    2.1825951    5.9758833    0.1355783 
   66700     -952.141    42.367059   -909.77394    1517.4344   -481.04002    2.1928689    6.4426676   0.11662604 
   66800   -951.75168    45.651477   -906.10021    1635.0703    4406.4391    2.2041091    5.2133643   0.10983236 
   66900   -953.99686    42.228017   -911.76884    1512.4544   -240.76046    2.1964293    4.2498238   0.11204506 
   67000   -951.21054    37.996821   -913.21372    1360.9083   -6343.1392    2.1770712    6.0050792   0.11327418 
   67100   -950.06648    41.764812   -908.30167    1495.8641    365.45526    2.1868217    5.8137836   0.12641222 
   67200   -950.85184    43.182491   -907.66935    1546.6402    8907.4109    2.2123746    5.4468853   0.11985095 
   67300   -956.22446    40.576262   -915.64819    1453.2946    3499.7469    2.2102701    6.4483972  0.087472357 
   67400   -949.44039    41.020816   -908.41957    1469.2169   -10679.182    2.1611783    3.7848391   0.11732791 
   67500   -946.61009    39.347737   -907.26235    1409.2932   -6406.1643    2.1703376    4.7817451   0.12031261 
   67600   -953.94864    41.164206   -912.78443    1474.3526    7309.9592     2.212203    6.6432665   0.11355121 
   67700    -955.1519    43.183403    -911.9685    1546.6729    8420.4204    2.2154135    5.0077744   0.10927075 
   67800   -950.10993    43.773479   -906.33645    1567.8073    -4567.701    2.1714364    6.4864632   0.11267038 
   67900   -951.98938    40.651703   -911.33768    1455.9966   -9898.6887    2.1684152    4.5256544   0.11676015 
   68000   -954.32449    43.420572   -910.90392    1555.1674    1495.4393     2.196566    5.3383862   0.11069761 
   68100   -947.02596    43.237147   -903.78881    1548.5978    5853.8062    2.1939151    6.5020226   0.11557515 
   68200      -950.23    39.905471   -910.32453    1429.2692    362.17915    2.1899459    7.9096304   0.12662481 
   68300   -949.35259     39.30315   -910.04944    1407.6963   -217.26031    2.1859177    5.3634639   0.10334682 
   68400   -947.07755    44.898459    -902.1791       1608.1   -3282.8387    2.1704883    4.8008241   0.10973881 
   68500   -952.03755    41.567035   -910.47052    1488.7804    2054.4051     2.199088    6.1199759   0.12141876 
   68600   -950.82834     40.68699   -910.14135    1457.2604    2132.7473    2.1945952    6.5104148    0.1148146 
   68700   -950.71491    46.710069   -904.00484    1672.9853   -3042.4642    2.1750003    5.1708727   0.11905994 
   68800   -949.50398    39.251461   -910.25252     1405.845   -202.44154    2.1837244    5.5642979   0.11013198 
   68900   -950.80318    39.408031   -911.39514    1411.4528    713.58254    2.1906256    5.1404999   0.11419752 
   69000   -949.56085    42.987932   -906.57292    1539.6718     4057.277    2.1947188    5.0751714   0.11290926 
   69100   -953.24479    44.433112   -908.81168    1591.4329   -1390.3938    2.1895908     7.312718   0.11258994 
   69200   -955.27018    41.182948   -914.08724    1475.0239   -5770.5309    2.1869492    5.9542431   0.11005779 
   69300   -947.16251    38.975753   -908.18676    1395.9701    2446.6269    2.1875461    6.1598889    0.1049445 
   69400   -952.70506    45.432816   -907.27224    1627.2387    3725.2571    2.2002927    5.4794408   0.10438433 
   69500   -954.17651    39.008304   -915.16821     1397.136    2873.9335    2.2043403    5.3780011   0.10587149 
   69600   -949.95058    41.600518   -908.35006    1489.9797   -8788.1994    2.1651765    5.9515145    0.1160471 
   69700   -947.71896    40.047846   -907.67111    1434.3686   -2448.3419    2.1755771    5.1926756   0.12829414 
   69800   -953.20762    40.153426   -913.05419    1438.1501    8025.0899    2.2169783    4.5623381   0.12336984 
   69900   -951.45463    40.896321   -910.55831    1464.7579    7162.2287    2.2094404    4.9891392   0.11541759 
   70000   -948.70463    42.318603   -906.38603    1515.6989   -6589.7267    2.1655039    5.5803504   0.11414745 
   70100   -951.47456    40.096941   -911.37762     1436.127   -9075.9155    2.1661397    6.8225337   0.10272054 
   70200   -953.74277    44.130209   -909.61256     1580.584    2755.9484    2.2020283    5.9724872  0.099221338 
   70300   -947.74345    45.060875   -902.68258    1613.9171    9224.8225    2.2015898    6.8368866   0.11452674 
[...]
  186800   -950.31788    37.071021   -913.24686    1327.7495    2298.4585    2.1920652    5.8811144   0.10611552 
  186900   -950.05529    43.102013   -906.95328    1543.7578    1918.6582    2.1874252    5.6001517   0.10492544 
  187000   -947.76236    41.242262    -906.5201    1477.1483    3617.7533    2.1874048    4.3997615   0.10971946 
  187100   -952.05953    39.288703   -912.77082    1407.1788    719.04802    2.1910489    6.3765618  0.090669253 
  187200   -949.94378    43.317314   -906.62646    1551.4691   -1915.3116    2.1790559    5.7219626   0.10064154 
  187300   -948.41016    42.083922   -906.32624    1507.2935     685.1517    2.1856028    6.6726129  0.096463578 
  187400   -952.18979    40.032897   -912.15689    1433.8332    3110.5529    2.1992404    6.3101515  0.091711436 
  187500   -949.33803    42.974806   -906.36323    1539.2017   -1011.8028    2.1833528    4.0672526   0.11312931 
  187600   -948.45593    41.853463   -906.60247    1499.0393   -2189.6514    2.1760369    6.5001663   0.11466568 
  187700   -949.21085    36.515151    -912.6957    1307.8403    352.09183    2.1897581    6.8431965   0.11377391 
  187800   -948.35592    41.972383   -906.38354    1503.2986    5893.9843    2.1963794    5.8119373   0.10825661 
  187900   -950.94394    43.656319   -907.28762     1563.611    4047.2056    2.1963908    5.2849049   0.10854072 
  188000   -952.95836    39.658535   -913.29982    1420.4249   -4642.2143    2.1824506    6.8057376   0.10074666 
  188100   -953.01008    45.239235   -907.77084    1620.3053   -7442.8531    2.1695793    5.0578147    0.1051064 
  188200   -951.62692    45.498945   -906.12797    1629.6072    1814.2434    2.1903141    5.4512926  0.094945327 
  188300   -955.71967    42.247912   -913.47176     1513.167    8517.8849    2.2184125    5.7269068   0.08706638 
  188400   -949.86719    42.593288   -907.27391    1525.5371   -4446.6109    2.1763723     5.388423   0.10578992 
  188500   -948.42911    40.595553   -907.83356    1453.9855   -8769.3432    2.1561555     6.164455   0.10786965 
  188600   -953.77123    39.732587   -914.03865    1423.0772   -616.91719    2.1920859    5.5230922  0.098436943 
  188700   -947.81367    39.910669     -907.903    1429.4554    11378.674    2.2135111    5.0997316    0.1150325 
  188800   -950.89292    44.412326   -906.48059    1590.6885     4140.871    2.1935974    5.5661967   0.10819159 
  188900   -950.73802    37.742486   -912.99553     1351.799   -5791.2758    2.1706084    5.5409425  0.097990815 
  189000   -947.40566    39.591533   -907.81413    1418.0251   -2956.4118     2.170966    5.9339084   0.10631449 
  189100   -948.37264    43.349821   -905.02282    1552.6334    5063.6269    2.1905655    6.1214275    0.1052328 
  189200   -954.09083     42.25754   -911.83329    1513.5118    2043.1728    2.1989938    6.3379631  0.094314475 
  189300   -949.67909    41.940457   -907.73864    1502.1551   -1481.5668    2.1753675    6.1610755   0.10078696 
  189400   -949.17685    44.025614   -905.15124    1576.8378    -4510.043    2.1669391    5.2763703   0.10122336 
  189500   -954.61484     42.24671   -912.36813     1513.124    1243.9462    2.1950408    5.2821624  0.087684048 
  189600   -948.86522    41.445536   -907.41969    1484.4288     4435.055    2.1934937      5.91725   0.10650453 
  189700   -949.54956    43.628458    -905.9211    1562.6131   -3115.5114    2.1784753    4.8954805   0.10606373 
  189800   -953.08089    39.522753   -913.55814    1415.5617    -1753.049    2.1851192    5.9501578   0.10055989 
  189900   -950.80155    42.674074   -908.12748    1528.4306   -1090.7388    2.1840692    6.3719718   0.11225809 
  190000    -950.0308    43.805572   -906.22523    1568.9567    3046.0083    2.1893145    6.1659725   0.11145497 
  190100   -952.37657    38.493388   -913.88319    1378.6936    3753.7637    2.1984397    4.1879011   0.09583071 
  190200   -949.12297    41.266703   -907.85627    1478.0237   -4405.0296    2.1727724    4.5873855   0.12342622 
  190300   -950.59409     43.03286   -907.56123     1541.281   -3900.6933    2.1747586    6.3035548   0.11604946 
  190400   -954.29832    40.320162   -913.97816     1444.122    7240.2216    2.2124234    5.5518855  0.096543903 
  190500   -950.81721    43.913746   -906.90346    1572.8311    7396.3909    2.2025974      4.63813   0.11363508 
  190600   -945.88143    38.328734    -907.5527    1372.7963    -2439.537    2.1698351    5.5861195   0.10833636 
  190700   -951.79125    38.442244     -913.349    1376.8618   -10349.536    2.1676334    6.4730686   0.10946972 
  190800   -951.54128    43.012213   -908.52906    1540.5415    655.42296    2.1958092    4.6148141   0.11598426 
  190900   -950.41945    45.434569   -904.98488    1627.3015    9253.0777    2.2094411    6.3393815   0.10945836 
  191000   -951.47071    39.862863   -911.60784    1427.7432    1593.3735    2.1921655    4.1059697   0.11202054 
  191100   -948.56434    40.396534   -908.16781    1446.8573   -8159.4894    2.1625547    4.3420665   0.12620617 
  191200   -947.27508    42.638797   -904.63628    1527.1671   -2529.8158    2.1725314    6.6591086   0.13474282 
  191300    -952.7029    41.421005    -911.2819    1483.5502    8257.4435    2.2135388    4.8037929   0.11259023 
  191400   -950.67819    41.848325   -908.82987    1498.8552    4743.9794    2.1964175    5.1722903   0.10653035 
  191500   -948.54835    43.812422   -904.73593    1569.2021   -7490.9894    2.1596974    6.0837731   0.11523226 
  191600   -954.29283    41.065628   -913.22721    1470.8219    -2714.267    2.1855163     5.275704   0.10061635 
  191700   -951.15902     42.22926   -908.92976    1512.4989    4410.0247    2.1990354    4.6542096   0.11815749 
  191800   -946.54184    41.326054   -905.21578    1480.1494     4231.943    2.1880788    5.3615367   0.10615375 
  191900   -953.86769    40.064053   -913.80364    1434.9491    -1718.182    2.1885423    5.5712927   0.10717647 
  192000   -949.47719    39.625292    -909.8519    1419.2343   -3903.3307    2.1765813    6.6021516   0.12621687 
  192100   -952.50918    46.475615   -906.03356     1664.588   -1234.2993    2.1848785    4.4604568   0.11124891 
  192200   -954.22069    40.707676   -913.51302    1458.0013    3351.3027    2.2031246    5.3604159   0.11251511 
  192300   -951.42039    41.645047   -909.77534    1491.5745    1280.7959    2.1888314    4.9413699   0.11974001 
  192400   -950.05305    43.782156   -906.27089     1568.118   -1886.4625    2.1784455    4.5587023   0.12402764 
  192500   -954.08287    41.257981   -912.82489    1477.7113   -1677.8578    2.1908232     5.016595   0.10761216 
  192600   -950.41127    40.965525   -909.44574    1467.2365    1761.0687    2.1915954    5.8899309    0.1164932 
  192700   -949.87452    44.373865   -905.50066    1589.3109    -373.2461    2.1831448    4.8698198   0.10549639 
  192800   -950.81573    38.769632    -912.0461    1388.5876    920.29994    2.1898762    6.0959035   0.11516599 
  192900   -952.35402     43.30439   -909.04963    1551.0062   -1823.9861    2.1871931    5.1594253   0.11485123 
  193000   -951.48967    46.652139   -904.83753    1670.9104   -1576.4549    2.1832226    4.5083369   0.10668196 
  193100   -950.88753    39.167201   -911.72033    1402.8271    2958.7786    2.1933893    4.5261515   0.11568133 
  193200   -949.87978    41.374683    -908.5051    1481.8911    464.10906    2.1841488    6.3100348   0.10389439 
  193300   -946.24408     41.76188    -904.4822    1495.7591   -904.87091    2.1771874    4.9472225   0.12980967 
  193400    -953.8348    41.514269   -912.32053    1486.8906    1534.1817    2.1960916    5.2915498   0.11909175 
  193500   -950.67165    42.908955   -907.76269    1536.8432    2628.4389    2.1917715    9.3337185   0.12989838 
  193600   -948.49559     43.94107   -904.55452    1573.8098   -937.42672      2.17802    6.7028953   0.11845851 
  193700   -954.24098    41.591741   -912.64924    1489.6653   -6306.1073    2.1825747    5.8569066   0.11297359 
  193800   -952.85805    43.873376   -908.98467    1571.3852   -2202.9625    2.1879806    5.8723064   0.12841292 
  193900    -951.0233    46.599963   -904.42334    1669.0417    6252.9029    2.2000978    5.3358927   0.12499369 
  194000   -955.10962    42.523811   -912.58581    1523.0487    2103.6436    2.2028838    5.5991409   0.10953322 
  194100   -952.46971    43.750599   -908.71911    1566.9878   -7743.5358    2.1682223    5.0726595   0.11026688 
  194200   -951.46334     45.60551   -905.85783     1633.424   -7457.7335    2.1684665    5.1490808   0.12147931 
  194300   -950.22211    37.223623   -912.99849    1333.2152    8922.7418    2.2133644    5.5333668   0.11071832 
  194400   -948.25781     40.03833   -908.21948    1434.0278    9784.0939    2.2079756    5.6083654   0.11477187 
  194500   -949.77797    43.053061   -906.72491    1542.0045   -5466.5238    2.1718358    5.5152612   0.11564509 
  194600   -952.66988    38.676306   -913.99357     1385.245   -8289.7938     2.174164    5.5991255   0.11498335 
  194700   -951.98068    42.988925   -908.99176    1539.7074    3490.9643    2.1944242    5.6070494   0.10856204 
  194800   -952.44523    47.296434   -905.14879    1693.9867    9227.5636    2.2060532    5.1551484   0.10581116 
  194900   -952.01894    39.254975   -912.76396    1405.9709    11.695357    2.1925221    6.5051791   0.12116344 
  195000   -951.65227    43.515761   -908.13651    1558.5767    -9704.972    2.1623807    4.8135301   0.11835434 
  195100   -950.86703     45.07429   -905.79274    1614.3976   -3710.6601    2.1753757    6.3200786   0.12725459 
  195200   -956.09846    44.198254    -911.9002    1583.0212    3609.2185    2.2077091    6.0353294   0.11394412 
  195300   -952.90081    44.626156   -908.27465    1598.3471    2332.0019    2.1954827    4.6664294   0.12195026 
  195400   -951.82705    46.298534   -905.52852    1658.2456   -5843.0826    2.1715543    6.9293161   0.11645921 
  195500   -952.81982    40.183348   -912.63647    1439.2218   -1684.5999    2.1885844    5.5052638   0.10969831 
  195600    -951.3014    43.336639   -907.96476    1552.1612    193.81678     2.189501    5.6018683   0.11538151 
  195700   -950.86931     45.47271    -905.3966    1628.6676    944.54136    2.1848509    5.0999154   0.10188801 
  195800   -951.48225    38.536998   -912.94525    1380.2555    1440.3043     2.194516    5.2015184   0.11053251 
  195900   -951.90273    44.049282   -907.85345    1577.6855   -3007.5028    2.1807922    6.4559518   0.11694759 
  196000   -950.36297    44.364748   -905.99823    1588.9844   -948.93678    2.1811241    6.8292315    0.1180798 
  196100    -955.4149     42.24026   -913.17464    1512.8929    1627.3798    2.2018996    5.5192381   0.10328261 
  196200   -953.02342    46.038756   -906.98467    1648.9413    673.52175    2.1897813    6.7025489   0.10676807 
  196300   -949.43014    42.302325   -907.12781    1515.1159   -2497.3448    2.1758477    6.0654154   0.11416665 
  196400   -955.30001    41.091567   -914.20845    1471.7509   -5548.3902    2.1852205    6.3363187   0.12093079 
  196500   -950.82776    43.571358    -907.2564     1560.568    4636.5696    2.1946959    5.4417296   0.11270787 
  196600    -951.5019    44.534517   -906.96738    1595.0649    6724.5219    2.2038859    6.3657505   0.11552181 
  196700   -952.43592    38.586998   -913.84892    1382.0463   -1464.6086    2.1894369    4.7388905   0.11259969 
  196800   -953.41583    45.986961   -907.42887    1647.0862   -13587.871    2.1578655     5.327466   0.11281079 
  196900   -950.75035    43.669166   -907.08118    1564.0712    22.700775    2.1838541    6.5836049   0.11845054 
  197000   -952.68069    40.307633   -912.37306    1443.6732    12930.764    2.2268564    5.3248931   0.11122735 
  197100   -949.00558    43.410451   -905.59513    1554.8049     3100.742     2.189125    6.6217805   0.10840038 
  197200   -947.73109    40.684366   -907.04672    1457.1664   -7855.4573    2.1601849    5.1059206   0.11861101 
  197300   -953.89867    40.983067   -912.91561    1467.8648   -7286.6437     2.179134    5.8555363   0.11774273 
  197400   -950.85206    43.854508   -906.99755    1570.7094    7634.2146     2.202736    6.0595631   0.11730392 
  197500   -949.71488    44.133546   -905.58133    1580.7036    4729.5765    2.1972961    6.1076368   0.13240869 
  197600   -952.59453    39.966463   -912.62807    1431.4538   -3423.1605    2.1817548    5.5567581    0.1198613 
  197700   -949.80514    42.184446   -907.62069    1510.8939   -7502.2262    2.1699963    5.8210817   0.11626891 
  197800   -948.01893    42.649859   -905.36907    1527.5633     2019.669     2.185165     5.134876   0.11931736 
  197900   -956.69238    44.001771   -912.69061    1575.9838    3355.3489    2.2068766    5.0322881  0.099529434 
  198000   -948.28017    40.999821   -907.28035    1468.4649     1660.598    2.1842587    6.3225656   0.11123417 
  198100   -953.27105    46.583463   -906.68759    1668.4507   -6375.0827    2.1724513    6.9087125   0.10832357 
  198200   -955.85965    42.197992   -913.66165    1511.3791    -1981.444    2.1918856    4.9673425   0.10737372 
  198300   -950.26746    43.293476   -906.97399    1550.6153    3018.8568    2.1905775    4.6564835   0.10218651 
  198400   -949.18366    41.686186   -907.49747     1493.048    2987.0857      2.18999    5.9883493   0.11841786 
  198500   -952.72454    38.658383   -914.06615    1384.6031   -1882.5214     2.190796    5.4833638   0.12617117 
  198600   -950.21764    43.342454   -906.87519    1552.3695   -3847.9558    2.1789256    5.9883375   0.12576632 
  198700   -948.71487    40.754763    -907.9601    1459.6878    1323.6925    2.1900813    3.6980615   0.12053363 
  198800   -955.83975    42.336325   -913.50342    1516.3336    2615.3242    2.2048016    5.3089631       0.1033 
  198900   -950.70309    45.167557   -905.53553    1617.7381   -1012.9544    2.1795961    6.3468983   0.10704939 
  199000    -953.3551    44.928968   -908.42613    1609.1927     -6532.26    2.1747732    6.2915486  0.098337943 
  199100   -957.08839    43.769963   -913.31843    1567.6814   -2965.2564    2.1951469    5.9453154  0.099979853 
  199200    -947.6725    42.371169   -905.30133    1517.5816    9860.7031    2.2059259    6.0743501   0.11347371 
  199300   -954.34643    46.692379   -907.65405    1672.3517    591.15854    2.1943406    4.8761314   0.10354561 
  199400   -952.76446    39.450862    -913.3136    1412.9868   -7505.1803    2.1705108    4.6347725   0.09912176 
  199500   -947.81881    41.281424   -906.53739    1478.5509   -6537.1764     2.167651    7.4319914   0.13021403 
  199600   -949.28363    42.722332   -906.56129     1530.159    6848.8673    2.2024388    5.5764817   0.12382183 
  199700   -952.69902    40.748243   -911.95078    1459.4543    7704.6253    2.2112669    6.7057512   0.12445895 
  199800   -948.99449    42.550604   -906.44389    1524.0083   -4873.6687    2.1701713    4.9682333   0.11914537 
  199900    -948.8013     41.87999   -906.92131    1499.9894   -7868.1591    2.1642299    5.8593275   0.11330416 
  200000   -954.12819    41.283087    -912.8451    1478.6104    2270.3409    2.2012822    4.5893036  0.099910179 
  200100    -948.0859    42.205138   -905.88076     1511.635    10165.802    2.2084617    6.1226943   0.11521106 
  200200   -947.42395     39.47484   -907.94911    1413.8456   -203.97589    2.1878758    4.7533057   0.11713978 
  200300   -955.48525    41.372906   -914.11235    1481.8274   -8649.8619    2.1781753    5.8284376   0.11039444 
  200400    -949.4226    42.303327   -907.11927    1515.1518   -2611.7494     2.180428     5.094039   0.10746214 
  200500   -949.24038    42.322059   -906.91832    1515.8227    6415.9405    2.2049488    5.0003844   0.11619483 
  200600   -955.50531    42.081692   -913.42362    1507.2136    4640.8886     2.211772     5.008583   0.12314118 
  200700   -946.77336    40.294739   -906.47862    1443.2114   -4422.6928    2.1737342    6.1727543   0.14271356 
  200800   -948.59757     41.16753   -907.43004    1474.4716   -6148.2026    2.1693767    5.6120716   0.12872397 
  200900   -951.21483    37.581069   -913.63376    1346.0176    3817.9807    2.2004081    4.7961205   0.10826548 
  201000   -951.92862    45.687032   -906.24159    1636.3438    6151.9917    2.2036286    4.6783109   0.10979813 
  201100    -948.0735     40.37275   -907.70075    1446.0055    2047.1221    2.1886487    6.3493807    0.1079364 
  201200   -949.93457    36.008919   -913.92565    1289.7089   -3907.5225    2.1800922     4.878845   0.11646626 
  201300   -949.19164    42.548968   -906.64267    1523.9497    -4100.917    2.1753771    5.4652543   0.12025303 
  201400   -950.36494    43.128597   -907.23635    1544.7099    6507.4958    2.2060771    5.0678213   0.10277282 
  201500    -954.4607    42.460663   -912.00004    1520.7869    8603.7396    2.2164006    6.0356439  0.098236287 
  201600   -945.33504    40.312601   -905.02244    1443.8512   -15432.748    2.1369403    5.7541852   0.11757971 
  201700   -944.81378    38.306971   -906.50681    1372.0168   -14691.531    2.1415033    7.2586414   0.13616022 
  201800   -951.90342    41.945625    -909.9578    1502.3402    13279.029     2.221696    4.6844374   0.12231505 
  201900   -951.26544    41.089837    -910.1756    1471.6889    15731.248    2.2266326    5.2790306   0.10551458 
  202000   -946.97623    44.370117   -902.60611    1589.1767   -6822.0261    2.1580049    5.8521736   0.11159697 
  202100   -953.01887    42.457268    -910.5616    1520.6654   -11835.391    2.1642235    5.9722343   0.11381585 
  202200   -951.82622    41.723416    -910.1028    1494.3814    2327.7124    2.1953499    5.1858092   0.10672908 
  202300   -946.15246    41.852819   -904.29964    1499.0162     12484.73    2.2065937    5.2479919   0.10785439 
  202400    -947.8161    39.572736   -908.24337    1417.3519    -1205.421    2.1818427    5.1205818   0.11116576 
  202500   -953.39758    41.269419   -912.12816    1478.1209   -9794.9577    2.1678453    6.4171161  0.095530808 
  202600   -951.10744    43.746933   -907.36051    1566.8565   -1625.2644    2.1829329    5.5558478   0.11458954 
  202700   -949.69476    43.245686   -906.44908    1548.9036    9044.5555    2.2060086    5.7241212     0.111293 
  202800   -956.71572     42.25025   -914.46547    1513.2507    2956.2281    2.2069494    3.8661966   0.11120764 
  202900   -948.72079    39.740503   -908.98029    1423.3607   -7134.1572    2.1687235     5.365923   0.12336685 
  203000   -950.45126    42.930116   -907.52114    1537.6011   -6545.7709    2.1696364    4.8495623   0.12410941 
  203100   -953.89885    39.134727   -914.76413     1401.664    5462.1472    2.2116902    6.2749797   0.12215851 
  203200   -956.76699    46.909623   -909.85737    1680.1326    5108.4697    2.2082977    5.1557839  0.097430112 
Loop time of 142.935 on 1 procs for 200000 steps with 217 atoms

Performance: 362.682 ns/day, 0.066 hours/ns, 1399.238 timesteps/s
100.0% CPU use with 1 MPI tasks x no OpenMP threads

MPI task timing breakdown:
Section |  min time  |  avg time  |  max time  |%varavg| %total
---------------------------------------------------------------
Pair    | 139.08     | 139.08     | 139.08     |   0.0 | 97.30
Neigh   | 0.75611    | 0.75611    | 0.75611    |   0.0 |  0.53
Comm    | 0.86629    | 0.86629    | 0.86629    |   0.0 |  0.61
Output  | 0.07401    | 0.07401    | 0.07401    |   0.0 |  0.05
Modify  | 1.8443     | 1.8443     | 1.8443     |   0.0 |  1.29
Other   |            | 0.3132     |            |       |  0.22

Nlocal:    217 ave 217 max 217 min
Histogram: 1 0 0 0 0 0 0 0 0 0
Nghost:    957 ave 957 max 957 min
Histogram: 1 0 0 0 0 0 0 0 0 0
Neighs:    4192 ave 4192 max 4192 min
Histogram: 1 0 0 0 0 0 0 0 0 0
FullNghs:  8384 ave 8384 max 8384 min
Histogram: 1 0 0 0 0 0 0 0 0 0

Total # of neighbors = 8384
Ave neighs/atom = 38.6359
Neighbor list builds = 1277
Dangerous builds = 13
Total wall time: 0:02:25
