LAMMPS (3 Mar 2020)

# ---------- 1. Initialize simulation ----------
units metal
atom_style atomic
dimension 3
boundary p p p
read_data /home/modeler/RemLabs/Project/eval_timestep/n3_T1800_timestep6.371375e-03_steps2355/20201204-081250/lammps.data
  orthogonal box = (0 0 0) to (17.469 17.469 17.469)
  1 by 1 by 1 MPI processor grid
  reading atoms ...
  217 atoms
  read_data CPU = 0.00100567 secs

pair_style meam/c
pair_coeff * * library.meam Li Si LiSi.meam Li Si
Reading potential file library.meam with DATE: 2012-06-29
Reading potential file LiSi.meam with DATE: 2020-11-07

group Li type 1
1 atoms in group Li

velocity all create 1800 3320 dist gaussian

# ---------- 2. Describe computed properties----------
compute msdli Li msd
thermo_style custom step pe ke etotal temp press density c_msdli[4]
thermo 100

# ---------- 3. Specify ensemble  ----------
fix 1 all npt temp 1800 1800 0.3185687464257833 tchain 2 iso 1.0 1.0 1.0 pchain 2

# ---------- 4. Run -------------
timestep 0.006371374928515666
run 2355
Neighbor list info ...
  update every 1 steps, delay 10 steps, check yes
  max neighbors/atom: 2000, page size: 100000
  master list distance cutoff = 6
  ghost atom cutoff = 6
  binsize = 3, bins = 6 6 6
  2 neighbor lists, perpetual/occasional/extra = 2 0 0
  (1) pair meam/c, perpetual
      attributes: full, newton on
      pair build: full/bin/atomonly
      stencil: full/bin/3d
      bin: standard
  (2) pair meam/c, perpetual, half/full from (1)
      attributes: half, newton on
      pair build: halffull/newton
      stencil: none
      bin: none
Per MPI rank memory allocation (min/avg/max) = 9.27 | 9.27 | 9.27 Mbytes
Step PotEng KinEng TotEng Temp Press Density c_msdli[4] 
       0   -951.06911    50.256344   -900.81276         1800    -114182.3    1.8918427            0 
     100   -951.18372    41.432515   -909.75121    1483.9624    31971.748    2.2615731   0.33322305 
     200    -940.3714    40.177133   -900.19426    1438.9992   -21037.934    2.1048318    0.1915199 
     300   -940.64763    48.150016   -892.49762    1724.5589    18439.391    2.2004735   0.44350468 
     400   -929.45223    48.108344   -881.34388    1723.0664    -12974.09    2.0944072   0.17612809 
     500    -929.5885     53.58222   -876.00628    1919.1208     10101.57    2.1522878   0.21443387 
     600   -929.38181    49.925531   -879.45628    1788.1515   -2473.0173    2.1194567   0.34817932 
     700   -925.03824    47.645143    -877.3931    1706.4762     3342.625    2.1238327    0.1732336 
     800   -931.99446    57.326718   -874.66774    2053.2352    883.31803    2.1347019   0.29835883 
     900   -930.83447    54.832299   -876.00217    1963.8941   -10864.896    2.1013711   0.08839267 
    1000   -937.62019    60.432102   -877.18809    2164.4587    11233.717    2.1690138   0.11868912 
    1100   -930.50817    54.506274   -876.00189    1952.2171   -17617.575    2.0855778  0.015481962 
    1200   -935.65021    57.822692   -877.82752    2070.9991    13063.574    2.1766674   0.24953092 
    1300   -935.49051    54.029374   -881.46114    1935.1362   -15996.175     2.099298   0.39781983 
    1400   -927.75392    48.989456   -878.76446    1754.6246    15703.074    2.1670102   0.46562498 
    1500   -938.28876    53.676673   -884.61208    1922.5038    -11678.22     2.115162   0.51779603 
    1600   -934.33929    49.866242   -884.47304     1786.028    5009.7828    2.1511877   0.21244916 
    1700   -930.48795    45.107586   -885.38037    1615.5901   -297.61911     2.135134   0.16799515 
    1800   -937.70727    48.748765    -888.9585     1746.004    1234.9853    2.1551233   0.27006616 
    1900   -936.86919    47.243287    -889.6259    1692.0832    455.23509     2.148627   0.35487826 
    2000   -939.56875    46.200784   -893.36797    1654.7445   -593.13563    2.1534159   0.38343486 
    2100   -931.21906    54.225111   -876.99395    1942.1468    2457.9654    2.1421268   0.56088134 
    2200   -921.97826    44.112049   -877.86621    1579.9336    344.11384    2.1126073   0.14325417 
    2300   -929.34571    53.658773   -875.68693    1921.8627    6957.2309    2.1453724  0.055043282 
    2355   -928.10276    53.381729   -874.72103    1911.9399    12241.001    2.1534535   0.23005325 
Loop time of 1.67452 on 1 procs for 2355 steps with 217 atoms

Performance: 774.189 ns/day, 0.031 hours/ns, 1406.371 timesteps/s
100.0% CPU use with 1 MPI tasks x no OpenMP threads

MPI task timing breakdown:
Section |  min time  |  avg time  |  max time  |%varavg| %total
---------------------------------------------------------------
Pair    | 1.5623     | 1.5623     | 1.5623     |   0.0 | 93.30
Neigh   | 0.074243   | 0.074243   | 0.074243   |   0.0 |  4.43
Comm    | 0.012079   | 0.012079   | 0.012079   |   0.0 |  0.72
Output  | 0.00068415 | 0.00068415 | 0.00068415 |   0.0 |  0.04
Modify  | 0.021646   | 0.021646   | 0.021646   |   0.0 |  1.29
Other   |            | 0.003597   |            |       |  0.21

Nlocal:    217 ave 217 max 217 min
Histogram: 1 0 0 0 0 0 0 0 0 0
Nghost:    957 ave 957 max 957 min
Histogram: 1 0 0 0 0 0 0 0 0 0
Neighs:    4116 ave 4116 max 4116 min
Histogram: 1 0 0 0 0 0 0 0 0 0
FullNghs:  8232 ave 8232 max 8232 min
Histogram: 1 0 0 0 0 0 0 0 0 0

Total # of neighbors = 8232
Ave neighs/atom = 37.9355
Neighbor list builds = 127
Dangerous builds = 33
Total wall time: 0:00:01
