LAMMPS (3 Mar 2020)

    # ---------- Initialize simulation ---------------------
    units metal
    atom_style atomic
    dimension  3
    boundary   p p p
    read_data /home/modeler/RemLabs/Lab4/Problem2A_size_5/temp_2600/lammps.data
  orthogonal box = (0 0 0) to (20.45 20.45 20.45)
  1 by 1 by 1 MPI processor grid
  reading atoms ...
  500 atoms
  read_data CPU = 0.00117774 secs

    pair_style eam
    pair_coeff * * /usr/share/lammps-stable/potentials/Ag_u3.eam
Reading potential file /usr/share/lammps-stable/potentials/Ag_u3.eam with DATE: 2007-06-11

    velocity  all create 2600 87287 dist gaussian

    # ---------- Describe computed properties------------------
    compute msdall all msd
    thermo_style custom step pe ke etotal temp press density c_msdall[4]
    thermo 100

    # ---------- Specify ensemble  ---------------------
    #fix  1 all nve
    fix  1 all nvt temp 2600 2600 0.25

    # --------- Compute RDF ---------------
    compute rdfall all rdf 100 1 1
    fix 2 all ave/time 1 25000 25000 c_rdfall[*] file /home/modeler/RemLabs/Lab4/Problem2A_size_5/temp_2600/lammps.rdf mode vector

    # --------- Run -------------
    timestep 0.005
    run 100000
Neighbor list info ...
  update every 1 steps, delay 10 steps, check yes
  max neighbors/atom: 2000, page size: 100000
  master list distance cutoff = 7.55
  ghost atom cutoff = 7.55
  binsize = 3.775, bins = 6 6 6
  2 neighbor lists, perpetual/occasional/extra = 1 1 0
  (1) pair eam, perpetual
      attributes: half, newton on
      pair build: half/bin/atomonly/newton
      stencil: half/bin/3d/newton
      bin: standard
  (2) compute rdf, occasional, copy from (1)
      attributes: half, newton on
      pair build: copy
      stencil: none
      bin: none
Per MPI rank memory allocation (min/avg/max) = 3.769 | 3.769 | 3.769 Mbytes
Step PotEng KinEng TotEng Temp Press Density c_msdall[4] 
       0        -1425    167.70211   -1257.2979         2600    20944.813    10.472245            0 
     100   -1313.4781    103.29533   -1210.1828    1601.4577    94152.292    10.472245   0.15037541 
     200   -1277.2892    141.53073   -1135.7585    2194.2472    123282.84    10.472245   0.23077122 
     300   -1245.5921    173.13762   -1072.4545    2684.2704    148074.65    10.472245   0.29771936 
     400    -1244.363    177.11208   -1067.2509    2745.8891    149348.39    10.472245   0.33619127 
     500   -1258.8965    165.32929   -1093.5672    2563.2125    137803.06    10.472245   0.29851338 
     600   -1248.8121    170.21085   -1078.6013    2638.8946    145358.24    10.472245   0.28093541 
     700   -1236.2848    175.31623   -1060.9686    2718.0469    152995.48    10.472245   0.38429461 
     800   -1247.0026    170.04386   -1076.9588    2636.3058    145989.12    10.472245   0.32628157 
     900   -1256.8772    163.79921    -1093.078    2539.4906    139105.62    10.472245   0.25579598 
    1000   -1247.4577     164.7269   -1082.7308    2553.8733    145094.37    10.472245   0.30544047 
    1100   -1235.5215    165.43888   -1070.0826    2564.9116    153806.37    10.472245   0.31536008 
    1200   -1256.0004    169.08099   -1086.9194    2621.3777     142148.6    10.472245    0.2922168 
    1300   -1255.1054     167.0292   -1088.0762    2589.5674    141528.96    10.472245   0.27027724 
    1400   -1233.5733    161.52259   -1072.0507    2504.1947    153218.95    10.472245    0.3488058 
    1500    -1237.295    179.17343   -1058.1216    2777.8477    154824.59    10.472245   0.31692795 
    1600   -1245.2724     167.8473   -1077.4251     2602.251    146503.83    10.472245   0.37384393 
    1700   -1242.7665    167.87017   -1074.8963    2602.6055    148337.15    10.472245    0.2849269 
    1800   -1253.8708    161.00485   -1092.8659    2496.1677    140124.79    10.472245   0.32180097 
    1900   -1246.0603    166.57824    -1079.482    2582.5758    146857.99    10.472245   0.32803977 
    2000   -1247.4852     172.9623   -1074.5229    2681.5523    146952.71    10.472245   0.34735767 
    2100   -1259.6491    170.85356   -1088.7956     2648.859    139213.63    10.472245   0.30651817 
    2200   -1249.1078    165.27266   -1083.8351    2562.3346    143763.44    10.472245   0.29809833 
    2300   -1247.3694    171.13078   -1076.2387     2653.157    147262.15    10.472245   0.31029898 
    2400   -1250.3877    155.50786   -1094.8799    2410.9442    142292.87    10.472245   0.31097338 
    2500   -1246.0917    159.43355   -1086.6581    2471.8069    147308.19    10.472245   0.30507854 
    2600    -1253.019    177.46337   -1075.5556    2751.3354    143399.66    10.472245   0.29069688 
    2700   -1244.5376    161.68193   -1082.8557     2506.665    148866.23    10.472245   0.31733779 
    2800   -1252.4922    171.90919    -1080.583    2665.2253    143407.87    10.472245   0.29422163 
    2900    -1243.643    173.71303   -1069.9299    2693.1914     149161.8    10.472245   0.36329747 
    3000   -1244.5459    173.45566   -1071.0902    2689.2011    146985.45    10.472245   0.39151096 
    3100   -1255.9238    166.94453   -1088.9792    2588.2547    138922.91    10.472245   0.26098348 
    3200   -1256.9738    182.73249   -1074.2413    2833.0262    142912.18    10.472245   0.26343389 
    3300   -1243.3109    168.13851   -1075.1724    2606.7658    147759.15    10.472245   0.29453078 
    3400   -1235.6449    150.03368   -1085.6112    2326.0743     151788.1    10.472245   0.37712422 
    3500   -1242.5514    171.08103   -1071.4704    2652.3857    149292.04    10.472245   0.31061229 
    3600   -1250.5814    163.26406   -1087.3173    2531.1939    144057.78    10.472245    0.3778057 
    3700   -1236.1201     171.1213   -1064.9988      2653.01     154451.5    10.472245   0.51502811 
    3800   -1221.4614    166.03712   -1055.4243    2574.1866    163904.25    10.472245     0.562342 
    3900   -1233.8808    164.01721   -1069.8636    2542.8705    154121.39    10.472245   0.62082897 
    4000   -1230.8396    161.30609   -1069.5335    2500.8381    154770.68    10.472245   0.59385858 
    4100   -1222.1741    170.88534   -1051.2887    2649.3517       163003    10.472245   0.77804111 
    4200   -1219.0855     174.0394   -1045.0461    2698.2513    165857.16    10.472245    1.0945597 
    4300    -1213.979    167.97715   -1046.0019    2604.2641    167813.68    10.472245    1.6523182 
    4400   -1203.4588    163.44942   -1040.0094    2534.0677    175707.47    10.472245    2.2152156 
    4500   -1189.3401    170.29317   -1019.0469    2640.1709    185748.71    10.472245    3.2240156 
    4600   -1184.2762    160.04173   -1024.2344    2481.2359    189326.62    10.472245    4.5097145 
    4700   -1188.7093    166.99278   -1021.7165    2589.0027     187473.7    10.472245    5.8654139 
    4800   -1191.5838    167.42421   -1024.1596    2595.6915       182404    10.472245    7.5337455 
    4900   -1191.6181    156.53042   -1035.0877    2426.7976    182798.67    10.472245    8.4972281 
    5000    -1190.314    177.04605    -1013.268    2744.8655    187025.17    10.472245    9.4212258 
    5100    -1194.228    168.60859   -1025.6194    2614.0538    184145.36    10.472245    11.111786 
    5200   -1199.2534    168.15681   -1031.0966    2607.0494     179985.6    10.472245    12.986038 
    5300   -1193.6183    174.26132    -1019.357    2701.6919     184302.9    10.472245    14.458214 
    5400   -1189.3873    167.00933    -1022.378    2589.2593    185337.82    10.472245    16.128478 
    5500   -1199.3208    166.53094   -1032.7898    2581.8426    179005.88    10.472245    17.783282 
    5600   -1186.5883    169.20109   -1017.3872    2623.2397    185984.63    10.472245    19.077699 
    5700   -1181.2862    166.31365   -1014.9725    2578.4738    190687.96    10.472245    20.165882 
    5800   -1196.8816     160.4154   -1036.4662    2487.0292    179389.64    10.472245    21.197044 
    5900   -1192.8574    173.38636   -1019.4711    2688.1268    182421.38    10.472245    23.134491 
    6000   -1181.3839     160.3821   -1021.0018    2486.5128    189359.75    10.472245    24.516176 
    6100   -1178.3175    167.83814   -1010.4794    2602.1089    191788.26    10.472245    26.706868 
    6200   -1183.6143    160.82178   -1022.7925    2493.3295    188010.45    10.472245     27.86259 
    6300   -1190.7618    166.66937   -1024.0924    2583.9887    185379.33    10.472245    29.198599 
    6400   -1178.9505    175.71106   -1003.2394    2724.1682    192660.74    10.472245    30.919724 
    6500   -1190.4364    170.86906   -1019.5674    2649.0994    183879.96    10.472245     32.25251 
    6600   -1193.8849    172.57579   -1021.3092    2675.5599    182247.66    10.472245    33.766675 
    6700   -1196.7058    159.96429   -1036.7415    2480.0353    180570.48    10.472245    35.256092 
    6800   -1193.8945     176.9802   -1016.9143    2743.8445    186242.61    10.472245    36.974132 
    6900   -1188.9469    173.98268   -1014.9643    2697.3719    185564.05    10.472245    38.181058 
    7000   -1202.5082    165.16356   -1037.3447    2560.6431    175712.69    10.472245    39.322532 
    7100   -1197.2298    170.03109   -1027.1987    2636.1077    181022.43    10.472245    41.579749 
    7200   -1186.4712    171.32309   -1015.1481    2656.1385    185744.18    10.472245    41.915932 
    7300   -1181.2683    157.55265   -1023.7156     2442.646     188737.5    10.472245    42.616866 
    7400   -1195.0104    161.33165   -1033.6788    2501.2344    180847.97    10.472245    44.272291 
    7500    -1192.486    165.50695   -1026.9791    2565.9669    182310.21    10.472245    44.826379 
    7600   -1189.0588    169.01461   -1020.0442    2620.3485     186640.5    10.472245    46.044872 
    7700   -1195.3914    166.61324   -1028.7782    2583.1185    180022.74    10.472245    47.735808 
    7800   -1200.4872    170.26685   -1030.2203    2639.7629    179105.22    10.472245    49.080352 
    7900   -1188.1716    171.34791   -1016.8237    2656.5233    186836.57    10.472245    50.598268 
    8000    -1207.802    170.73134   -1037.0707    2646.9642    173443.93    10.472245     52.76904 
    8100   -1195.2124     159.2682   -1035.9442    2469.2433     179634.2    10.472245    53.732099 
    8200    -1193.066    172.78476   -1020.2813    2678.7997    184966.03    10.472245     55.05174 
    8300   -1193.0505    171.97098   -1021.0795    2666.1832    183514.56    10.472245    57.830283 
    8400   -1195.7613    160.73865   -1035.0227    2492.0407    180937.18    10.472245    59.097672 
    8500   -1183.2257    167.52837   -1015.6973    2597.3063    189936.22    10.472245    60.503843 
    8600   -1185.9559    167.19685    -1018.759    2592.1666    188093.26    10.472245    61.675602 
    8700   -1191.4821    163.81345   -1027.6687    2539.7114    183328.94    10.472245    62.672187 
    8800   -1168.5917    168.97341   -999.61824    2619.7098    198634.93    10.472245    63.913454 
    8900   -1192.7864    174.22217   -1018.5642    2701.0849    184517.11    10.472245    65.330085 
    9000   -1195.3456    170.99044   -1024.3552    2650.9811    181557.69    10.472245     66.30136 
    9100   -1173.7771    171.41191   -1002.3651    2657.5155    194489.79    10.472245    67.578618 
    9200   -1190.6571     165.4593   -1025.1978    2565.2282    183851.38    10.472245    68.848661 
    9300   -1196.7238     166.5686   -1030.1552    2582.4264    180957.26    10.472245    70.133259 
    9400   -1186.5431    169.13624   -1017.4069    2622.2343    187336.73    10.472245    70.995948 
    9500   -1186.4706    165.26868    -1021.202    2562.2728    185817.96    10.472245    72.711095 
    9600   -1195.8248    164.43512   -1031.3897    2549.3495     177774.4    10.472245     73.75581 
    9700   -1181.6289    172.12772   -1009.5012    2668.6132    189414.37    10.472245    74.351641 
    9800   -1185.0976    170.85862    -1014.239    2648.9375    189092.33    10.472245    75.629622 
    9900   -1188.4554    164.70463   -1023.7508     2553.528    185063.23    10.472245    75.804182 
   10000   -1190.2523    158.08458   -1032.1678    2450.8929    181911.24    10.472245    75.647512 
   10100   -1178.6673    169.11149   -1009.5559    2621.8505    193287.66    10.472245    76.111704 
   10200   -1184.5956    158.66394   -1025.9316    2459.8751    185341.86    10.472245    77.103448 
   10300   -1194.3951    171.38121   -1023.0139    2657.0396    182732.98    10.472245    78.370589 
   10400   -1191.1917    174.38913   -1016.8025    2703.6735    186467.29    10.472245    80.058136 
   10500    -1202.894    164.83543   -1038.0585    2555.5558    176752.65    10.472245    80.940274 
   10600   -1188.5443    170.08134    -1018.463    2636.8868    186580.62    10.472245    82.703795 
   10700    -1181.619    164.60781   -1017.0112    2552.0269    188512.53    10.472245    83.524109 
   10800   -1188.0972    156.32195   -1031.7752    2423.5656    186205.46    10.472245    85.303987 
   10900    -1185.087    164.82334   -1020.2636    2555.3685    186743.52    10.472245    87.350084 
   11000    -1186.905    170.97493   -1015.9301    2650.7408    186246.79    10.472245    88.169713 
   11100   -1191.0553    169.45495   -1021.6004    2627.1754    183283.01    10.472245    90.329953 
   11200   -1192.4343    155.77169   -1036.6626    2415.0345    180799.91    10.472245    92.191774 
   11300   -1191.2201    164.10459   -1027.1155    2544.2251    182503.52    10.472245    92.995459 
   11400      -1197.2    176.53706   -1020.6629    2736.9743    183104.54    10.472245     93.49674 
   11500   -1190.4273    155.56523   -1034.8621    2411.8336    181856.36    10.472245    94.839509 
   11600   -1183.9823    172.79246   -1011.1899    2678.9191    188595.04    10.472245    95.720274 
   11700   -1183.3791    158.34002   -1025.0391    2454.8532    188000.68    10.472245    97.635235 
   11800    -1186.233    163.27488   -1022.9581    2531.3616    185103.32    10.472245    100.20017 
   11900    -1189.251    178.48992   -1010.7611    2767.2507    186629.71    10.472245    101.31277 
   12000   -1185.0167    157.36634   -1027.6503    2439.7575    186959.08    10.472245    102.44831 
   12100   -1190.9293    170.67596   -1020.2533    2646.1056    182211.47    10.472245    102.91632 
   12200   -1176.4943    180.80463   -995.68971    2803.1372    195815.03    10.472245    104.10111 
   12300   -1184.1961    166.98502    -1017.211    2588.8824    189117.23    10.472245    104.86501 
   12400   -1195.4847    173.39937   -1022.0853    2688.3285    182658.74    10.472245    105.90486 
   12500   -1193.7375    154.57766   -1039.1598    2396.5228    180903.09    10.472245    107.21369 
   12600   -1195.6509    175.92687   -1019.7241    2727.5141    181857.93    10.472245    108.57461 
   12700   -1192.3837    169.01393   -1023.3698     2620.338    185159.79    10.472245    109.28284 
   12800   -1197.0997    162.99544   -1034.1043    2527.0293    181172.64    10.472245    107.88955 
   12900   -1181.7327    158.47786   -1023.2548    2456.9902    191504.24    10.472245    109.73223 
   13000   -1185.6235    172.09917   -1013.5244    2668.1706    189599.34    10.472245    111.15066 
   13100   -1197.8245    163.68031   -1034.1441    2537.6473    179763.56    10.472245    111.74071 
   13200   -1192.6545    166.58825   -1026.0662     2582.731     182974.1    10.472245    112.28712 
   13300   -1189.5703    172.26517   -1017.3052    2670.7443    185026.09    10.472245    113.09228 
   13400   -1205.3038    172.84297   -1032.4609    2679.7022    174014.82    10.472245    114.15499 
   13500   -1193.3387    170.77647   -1022.5622    2647.6639    183194.89    10.472245    115.53794 
   13600   -1189.9256    172.91864    -1017.007    2680.8754    186988.93    10.472245    117.07841 
   13700   -1195.7112    159.39395   -1036.3173     2471.193    179575.84    10.472245    118.65814 
   13800   -1186.1654    163.33393   -1022.8314    2532.2771    185779.36    10.472245    120.10305 
   13900    -1183.274    161.60143   -1021.6726     2505.417       186781    10.472245    119.78071 
   14000   -1194.6926    153.24045   -1041.4521    2375.7911     180773.9    10.472245    120.94937 
   14100   -1195.5144    169.98182   -1025.5325    2635.3438     181261.9    10.472245    122.01682 
   14200   -1190.0017    174.10408   -1015.8976    2699.2541    185530.54    10.472245    123.00745 
   14300   -1188.9008     162.0928    -1026.808     2513.035     184316.1    10.472245    125.35784 
   14400   -1197.1554    169.74059   -1027.4148    2631.6038    180323.29    10.472245    124.22538 
   14500   -1188.0895    173.92816   -1014.1614    2696.5266       187632    10.472245    126.18131 
   14600   -1196.5037    171.85196   -1024.6517    2664.3378    180557.15    10.472245    126.48242 
   14700    -1188.272    177.43654   -1010.8355    2750.9195    185774.96    10.472245     127.2609 
   14800   -1186.3616    168.12494   -1018.2366    2606.5554    190088.75    10.472245    128.71989 
   14900   -1189.0515    165.53379   -1023.5177    2566.3831    184551.29    10.472245    129.25423 
   15000   -1190.5827    179.50178   -1011.0809    2782.9382    186800.72    10.472245    129.86379 
   15100   -1193.8081    190.32667   -1003.4815    2950.7639    186058.56    10.472245    130.54207 
   15200   -1186.0282    164.17143   -1021.8567    2545.2614     186825.1    10.472245    132.29147 
   15300   -1182.8233    162.85804   -1019.9653     2524.899    188526.11    10.472245    133.33146 
   15400   -1185.6755    176.91269   -1008.7628    2742.7979    188596.31    10.472245    135.53368 
   15500   -1188.0546    156.46351   -1031.5911    2425.7603    184219.33    10.472245    135.27062 
   15600   -1197.1079    178.15901   -1018.9489    2762.1205    182075.17    10.472245    135.21561 
   15700   -1188.0298     158.9517   -1029.0781    2464.3364    185377.52    10.472245    136.90611 
   15800    -1195.038    165.10726   -1029.9307    2559.7702    181467.85    10.472245    137.81735 
   15900   -1192.5511    169.92069   -1022.6304    2634.3962    182425.88    10.472245    138.74159 
   16000    -1191.913     166.8218   -1025.0912     2586.352    182358.39    10.472245    141.10655 
   16100   -1193.2227    172.47936   -1020.7433    2674.0649    184002.78    10.472245    141.64129 
   16200   -1188.5384    168.93537   -1019.6031    2619.1201       184988    10.472245    141.66432 
   16300   -1196.2631    159.55451   -1036.7086    2473.6822    178130.92    10.472245    142.47434 
   16400   -1181.2707    160.18231   -1021.0884    2483.4154    189258.35    10.472245    143.62919 
   16500   -1183.0175    167.18126   -1015.8363    2591.9248    191014.78    10.472245    144.53886 
   16600   -1192.1099    160.06642   -1032.0434    2481.6186    183120.32    10.472245    147.29906 
   16700   -1193.5135     166.1943   -1027.3191    2576.6234    183545.11    10.472245    148.99033 
   16800   -1193.5223    169.36444   -1024.1578    2625.7722    180875.38    10.472245    148.53397 
   16900    -1191.413     166.9332   -1024.4798     2588.079    184017.27    10.472245    150.41831 
   17000    -1178.655    172.36826   -1006.2868    2672.3424    194427.19    10.472245    151.54655 
   17100   -1192.4676    166.06994   -1026.3977    2574.6953    184025.66    10.472245    153.12444 
   17200   -1186.2466    164.55629   -1021.6903    2551.2281    186962.71    10.472245    155.53254 
   17300   -1189.4307    171.53482   -1017.8959    2659.4211    187721.17    10.472245    155.59375 
   17400    -1189.498    155.93451   -1033.5635    2417.5589    184102.28    10.472245    156.37525 
   17500   -1187.7053    169.32089   -1018.3844    2625.0971    186807.76    10.472245    157.99439 
   17600    -1186.345    165.25569   -1021.0893    2562.0714    187080.77    10.472245     157.9088 
   17700   -1182.9932    164.28042   -1018.7128    2546.9511    187628.35    10.472245    158.76758 
   17800   -1195.7028    165.40908   -1030.2937    2564.4496    181335.47    10.472245    159.57059 
   17900   -1189.2804     162.1426   -1027.1378    2513.8071       185491    10.472245    161.15705 
   18000   -1187.8289    172.26066   -1015.5682    2670.6742    185824.05    10.472245    161.60113 
   18100   -1198.0953    167.80348   -1030.2918    2601.5716    180467.68    10.472245    162.50413 
   18200   -1194.8115    169.27777   -1025.5337    2624.4284    181980.66    10.472245    163.33342 
   18300   -1186.2906    176.30277   -1009.9878    2733.3419    186801.77    10.472245    165.16897 
   18400   -1192.1166    164.66092   -1027.4556    2552.8504    183050.69    10.472245    166.31546 
   18500   -1195.6061    168.10629   -1027.4998    2606.2662     182931.6    10.472245    168.31791 
   18600   -1176.3768     173.2575   -1003.1193     2686.129    193890.76    10.472245    170.39303 
   18700    -1185.744    164.52873   -1021.2153    2550.8009    186832.53    10.472245    171.60167 
   18800   -1195.5949    172.34244   -1023.2525    2671.9421    182065.87    10.472245    173.48482 
   18900   -1193.3954    158.78783   -1034.6076    2461.7957    182315.07    10.472245    174.03345 
   19000   -1186.5417    148.07384   -1038.4678    2295.6895    184318.15    10.472245    176.37193 
   19100   -1188.7539    173.19964   -1015.5543    2685.2319    187639.48    10.472245    177.45628 
   19200   -1187.1122     172.0637   -1015.0485    2667.6206    185260.72    10.472245    177.55514 
   19300   -1195.5007    163.00884   -1032.4918     2527.237    182754.39    10.472245    177.90575 
   19400   -1182.7275    162.71436   -1020.0131    2522.6714    188117.46    10.472245     179.5679 
   19500    -1191.723    170.56899    -1021.154    2644.4471    186554.29    10.472245    180.83875 
   19600   -1185.3407    160.07949   -1025.2613    2481.8213    187168.93    10.472245    183.79161 
   19700   -1190.3462    171.87268   -1018.4736    2664.6591    184122.38    10.472245    185.54187 
   19800   -1190.9393    161.81308   -1029.1263    2508.6983    182546.82    10.472245    187.43047 
   19900   -1188.3662    166.59519    -1021.771    2582.8386    184243.91    10.472245    188.79172 
   20000   -1187.5482    171.89958   -1015.6487    2665.0762    186207.16    10.472245    191.08197 
   20100    -1186.207    169.42688   -1016.7801    2626.7403    188930.23    10.472245    191.89075 
   20200   -1187.6687    166.59774   -1021.0709    2582.8782    186856.09    10.472245    192.96384 
   20300   -1192.8225    158.81429   -1034.0082    2462.2061    182663.34    10.472245    194.59324 
   20400   -1180.0285    167.69388   -1012.3347    2599.8724    191209.39    10.472245    195.71775 
   20500   -1193.6174    171.77046   -1021.8469    2663.0744    182762.95    10.472245    199.98341 
   20600   -1191.9338    167.06674   -1024.8671    2590.1494    185150.49    10.472245    200.70116 
   20700   -1198.5247    173.56421   -1024.9605    2690.8841    179931.47    10.472245    201.14435 
   20800   -1195.4789    149.80631   -1045.6726    2322.5492    179648.54    10.472245    201.93822 
   20900   -1190.5673    163.94354   -1026.6238    2541.7283    183133.43    10.472245    203.31567 
   21000   -1179.7803    167.63892   -1012.1414    2599.0203    190874.62    10.472245    206.09223 
   21100   -1189.8206    159.62946   -1030.1911    2474.8442    184587.59    10.472245    208.12703 
   21200   -1192.8173    165.74022   -1027.0771    2569.5835     181244.5    10.472245    208.65815 
   21300   -1189.5741    174.94408     -1014.63    2712.2772    185935.97    10.472245    211.33938 
   21400   -1188.2168     163.3008    -1024.916    2531.7635    185549.29    10.472245    213.89899 
   21500   -1183.0982     163.7615   -1019.3367     2538.906    186498.27    10.472245    215.54144 
   21600   -1184.6869    169.10006   -1015.5868    2621.6734    189687.73    10.472245    217.08018 
   21700   -1198.9857    167.82107   -1031.1646    2601.8443    181668.17    10.472245    218.27907 
   21800   -1181.1339    163.65083   -1017.4831    2537.1903    189914.56    10.472245    219.79467 
   21900   -1188.1775    166.01314   -1022.1644    2573.8147    185921.05    10.472245    220.94705 
   22000   -1187.8065    165.15968   -1022.6469    2560.5829    186594.67    10.472245    219.43187 
   22100   -1193.3541    173.93265   -1019.4215    2696.5963       183572    10.472245    221.77984 
   22200    -1182.045    156.46121   -1025.5838    2425.7246    190525.67    10.472245    222.20925 
   22300   -1187.0761    176.66011   -1010.4159     2738.882    187529.68    10.472245    223.12854 
   22400   -1189.8775    161.36543   -1028.5121    2501.7581    183170.97    10.472245    224.34436 
   22500   -1189.8467    168.41679   -1021.4299    2611.0801    185112.13    10.472245    226.41375 
   22600    -1188.428    169.05731   -1019.3707    2621.0105    187056.94    10.472245    227.42397 
   22700   -1192.2094     154.4322   -1037.7772    2394.2675    180866.99    10.472245    228.08219 
   22800   -1190.6433    171.45597   -1019.1873    2658.1986       186283    10.472245    228.99362 
   22900   -1193.1266    159.88243   -1033.2442    2478.7661    184575.84    10.472245    230.25521 
   23000   -1211.5024    162.95998   -1048.5424    2526.4794    171450.36    10.472245    230.04711 
   23100   -1192.9492    164.91871   -1028.0305     2556.847    182417.01    10.472245    230.78997 
   23200   -1187.0489    170.93382    -1016.115    2650.1034    186057.64    10.472245    232.68912 
   23300   -1191.8826    166.74255   -1025.1401    2585.1233    184075.71    10.472245    235.27348 
   23400   -1192.4256    169.56291   -1022.8627    2628.8492    183118.83    10.472245     237.3565 
   23500   -1186.2186    173.85957    -1012.359    2695.4633    188386.81    10.472245    237.32504 
   23600   -1187.6199    160.90098    -1026.719    2494.5574    186337.32    10.472245    240.12384 
   23700    -1202.431    179.80814   -1022.6229     2787.688    178239.66    10.472245     240.9636 
   23800   -1189.6595    163.54952   -1026.1099    2535.6195     184365.4    10.472245     241.9267 
   23900   -1185.4352    179.69219    -1005.743    2785.8904    188391.95    10.472245    243.80555 
   24000   -1196.0481     165.9649   -1030.0832    2573.0669    181183.63    10.472245    245.86429 
   24100   -1189.5727    171.17098   -1018.4017    2653.7803    184249.78    10.472245    250.24338 
   24200   -1188.3388    171.52425   -1016.8146    2659.2573     186254.8    10.472245    250.46275 
   24300   -1199.2123    164.47603   -1034.7363    2549.9838    178975.58    10.472245    252.99769 
   24400   -1192.1472    172.40423   -1019.7429    2672.9002    183851.04    10.472245    254.41464 
   24500   -1193.3361    172.31756   -1021.0185    2671.5564    184872.54    10.472245    256.46337 
   24600   -1196.8994     161.6211   -1035.2783    2505.7219    179633.94    10.472245    258.58965 
   24700   -1196.7148    178.43874   -1018.2761    2766.4573    183581.84    10.472245    257.58307 
   24800   -1185.9122    170.17659   -1015.7356    2638.3636    187282.23    10.472245     258.9775 
   24900   -1195.5199    156.69646   -1038.8234    2429.3719    179799.53    10.472245    261.04278 
   25000   -1189.1088    161.96416   -1027.1447    2511.0406    186091.71    10.472245    261.10946 
   25100     -1184.23    164.60442   -1019.6256    2551.9744    187387.48    10.472245    261.94336 
   25200   -1192.0507    155.17484   -1036.8759    2405.7812     181153.8    10.472245    263.83831 
   25300   -1188.2685    159.50725   -1028.7612    2472.9495    186483.25    10.472245    266.94131 
   25400   -1194.1993    171.77318   -1022.4261    2663.1165    183459.59    10.472245    265.54311 
   25500   -1193.1999    164.20433   -1028.9956    2545.7716    182001.79    10.472245    267.65715 
   25600   -1189.1184    162.81717   -1026.3013    2524.2654    186010.24    10.472245    268.41788 
   25700   -1182.2794     165.7309   -1016.5485    2569.4389     187765.3    10.472245    269.48219 
   25800   -1191.4711    164.15576   -1027.3153    2545.0185    183926.76    10.472245    270.23834 
   25900   -1186.8247    168.14594   -1018.6788    2606.8809    186250.87    10.472245    272.05469 
   26000   -1198.0512    166.95084   -1031.1003    2588.3526    179438.64    10.472245    272.86103 
   26100   -1198.2914    160.82774   -1037.4636    2493.4219    178792.03    10.472245    273.80472 
   26200   -1190.8796    172.41189   -1018.4678    2673.0189    185538.82    10.472245    274.54013 
   26300   -1200.7082    178.26254   -1022.4457    2763.7254    177793.34    10.472245    275.94083 
   26400   -1196.0417    160.85305   -1035.1887    2493.8144     179512.5    10.472245    277.29454 
   26500   -1186.3044    164.44268   -1021.8617    2549.4669    187273.52    10.472245    278.51452 
   26600   -1188.6273    171.81393   -1016.8133    2663.7483    185886.02    10.472245    280.81055 
   26700    -1185.366     163.2913   -1022.0747    2531.6162    187865.36    10.472245    282.59904 
   26800   -1191.7173     164.1603    -1027.557    2545.0888    184021.72    10.472245    284.39691 
   26900   -1209.9572    174.21026    -1035.747    2700.9003    173624.37    10.472245    285.80129 
   27000   -1186.9249    171.39115   -1015.5337    2657.1937    188516.09    10.472245    285.35648 
   27100   -1200.5778    180.14951   -1020.4283    2792.9805     179436.9    10.472245    286.45414 
   27200   -1191.5168    164.31749   -1027.1993    2547.5259    182361.69    10.472245    288.42865 
   27300   -1181.5535    165.03606   -1016.5174    2558.6663    190819.12    10.472245    288.37553 
   27400    -1182.281    177.42045   -1004.8606    2750.6701    191089.33    10.472245    289.28502 
   27500   -1192.5915    162.44669   -1030.1449    2518.5216     183109.9    10.472245    294.15763 
   27600   -1189.3083     170.7731   -1018.5352    2647.6116     184704.6    10.472245     296.6335 
   27700     -1184.96    176.68492   -1008.2751    2739.2666    188812.72    10.472245    298.89376 
   27800   -1189.4851    166.20661   -1023.2785    2576.8142    183927.61    10.472245    300.59778 
   27900   -1193.8287    173.40955   -1020.4191    2688.4863    184519.01    10.472245    301.58077 
   28000   -1182.0658    170.82575   -1011.2401    2648.4278    190847.22    10.472245    304.30532 
   28100   -1192.8433    164.45455   -1028.3888    2549.6509    182914.27    10.472245    304.94467 
   28200   -1184.9771    167.36419   -1017.6129     2594.761    186851.27    10.472245    306.78944 
   28300   -1197.7307    170.33699   -1027.3937    2640.8503     181625.9    10.472245    307.10301 
   28400   -1188.6572     158.9732    -1029.684    2464.6697    185509.79    10.472245    310.21045 
   28500   -1185.8633     170.2636   -1015.5997    2639.7125     185689.7    10.472245    311.17472 
   28600   -1179.7288    156.66883     -1023.06    2428.9435     191000.5    10.472245    312.93027 
   28700   -1193.3145    172.21452      -1021.1    2669.9589    183566.73    10.472245    314.40933 
   28800   -1183.6508    167.61311   -1016.0377    2598.6201    189106.46    10.472245    316.13243 
   28900    -1186.022    157.89749   -1028.1245    2447.9922    185511.19    10.472245    318.30753 
   29000   -1192.0507    159.35548   -1032.6952    2470.5965    182668.72    10.472245     317.9469 
   29100   -1184.0093    173.25273   -1010.7566     2686.055     190554.3    10.472245    319.06768 
   29200   -1192.3019    165.47324   -1026.8287    2565.4442     181736.5    10.472245    318.46949 
   29300   -1194.8213    165.60069   -1029.2206    2567.4202    183137.69    10.472245    318.41924 
   29400   -1185.0582    173.61843   -1011.4398    2691.7247    186894.08    10.472245    320.66701 
   29500   -1190.9691    163.61669   -1027.3524    2536.6609    184053.89    10.472245    323.14645 
   29600   -1193.1643    160.53075   -1032.6336    2488.8174    180158.66    10.472245    323.66486 
   29700   -1188.1307     177.1399   -1010.9908    2746.3204    184851.25    10.472245    325.53198 
   29800   -1189.8382    166.15511   -1023.6831    2576.0158    184215.06    10.472245    326.09561 
   29900   -1191.0976    170.66705   -1020.4305    2645.9674    183631.02    10.472245    328.69194 
   30000   -1186.7376    167.95038   -1018.7872    2603.8491    187028.54    10.472245    331.01569 
   30100   -1189.2887    163.47106   -1025.8177    2534.4032    184607.39    10.472245     333.6781 
   30200   -1199.6726    164.79942   -1034.8732    2554.9975    177320.15    10.472245    335.77129 
   30300   -1182.7422    167.37499   -1015.3672    2594.9284    186975.74    10.472245    338.06384 
   30400   -1194.6201    173.56115   -1021.0589    2690.8367     183154.2    10.472245    339.27274 
   30500   -1192.0273    164.81726   -1027.2101    2555.2742    182278.56    10.472245    342.84163 
   30600   -1187.7466    164.65703   -1023.0896    2552.7901    185526.03    10.472245    346.42113 
   30700   -1179.6107    169.96162   -1009.6491    2635.0307    190166.42    10.472245    346.53934 
   30800    -1182.539    170.90657   -1011.6324    2649.6809    189617.65    10.472245    347.38603 
   30900   -1189.4336    167.16067   -1022.2729    2591.6057    182881.01    10.472245    350.40422 
   31000   -1187.2303    171.85028     -1015.38    2664.3119    187464.74    10.472245    353.04108 
   31100   -1177.9692     161.4903   -1016.4789     2503.694    191709.38    10.472245    352.28198 
   31200   -1189.4746    160.07628   -1029.3983    2481.7715    185850.69    10.472245    350.96884 
   31300   -1185.9482    167.03455   -1018.9137    2589.6504    188040.37    10.472245    352.86045 
   31400   -1188.4498    174.26055   -1014.1893    2701.6799    186792.98    10.472245    354.05854 
   31500   -1193.2905    167.51549    -1025.775    2597.1066    182446.76    10.472245    355.79889 
   31600   -1180.8079    168.45095    -1012.357    2611.6098    192077.54    10.472245    358.16778 
   31700   -1178.7284    171.89426   -1006.8341    2664.9937    193113.41    10.472245    360.55187 
   31800   -1197.9212    175.27198   -1022.6492    2717.3608    181681.84    10.472245    362.01994 
   31900   -1195.2073    164.74866   -1030.4586    2554.2107    181008.15    10.472245    363.26514 
   32000   -1184.3326    175.63989   -1008.6927    2723.0647       189327    10.472245    362.21641 
   32100   -1188.7226    167.03717   -1021.6854    2589.6909    185731.55    10.472245    363.74489 
   32200   -1189.5343    161.50471   -1028.0295    2503.9174    185033.36    10.472245    364.90046 
   32300   -1186.4913    167.77281   -1018.7185     2601.096    187686.35    10.472245    364.52134 
   32400   -1185.6453     174.6748   -1010.9705    2708.1024    188715.51    10.472245    366.23726 
   32500    -1194.783    163.23907   -1031.5439    2530.8064    181828.13    10.472245    367.42537 
   32600   -1190.0376     175.4049   -1014.6327    2719.4216    186772.32    10.472245    369.48311 
   32700   -1192.5243    168.58754   -1023.9368    2613.7273    185061.13    10.472245     368.3036 
   32800   -1190.8474    160.88423   -1029.9632    2494.2978    183544.66    10.472245    367.24889 
   32900   -1182.1143    168.68966   -1013.4247    2615.3107    191286.34    10.472245    367.75043 
   33000   -1192.5358    166.08318   -1026.4526    2574.9006    184851.93    10.472245    367.83029 
   33100   -1187.1879    163.11966   -1024.0682    2528.9551    186375.97    10.472245    368.20125 
   33200   -1195.8935    175.01918   -1020.8743    2713.4415    182112.87    10.472245    371.62276 
   33300   -1182.6865    164.11894   -1018.5676    2544.4477    188763.99    10.472245    370.82206 
   33400   -1192.9805    162.28572   -1030.6947     2516.026    181557.26    10.472245    368.83795 
   33500   -1185.7746    164.44387   -1021.3307    2549.4853    187523.47    10.472245    368.69352 
   33600   -1184.0054    170.33994   -1013.6655     2640.896    191442.99    10.472245    370.65225 
   33700   -1189.3549    158.07087    -1031.284    2450.6804    184055.12    10.472245    372.01862 
   33800   -1191.0824    176.66905   -1014.4133    2739.0205    183958.77    10.472245     372.6168 
   33900   -1182.2247    165.02099   -1017.2037    2558.4328    189562.07    10.472245    374.25786 
   34000   -1193.1204    165.48511   -1027.6353    2565.6284    181995.27    10.472245    373.40748 
   34100   -1182.2946    176.92036   -1005.3742    2742.9168    188909.76    10.472245    375.56715 
   34200   -1185.0904    162.03003   -1023.0604    2512.0618    185427.44    10.472245    376.31295 
   34300   -1193.4144    165.49766   -1027.9167    2565.8229    183295.83    10.472245    377.47498 
   34400   -1177.8642    167.14319    -1010.721    2591.3347    193591.87    10.472245    378.24958 
   34500   -1182.1538    169.02833   -1013.1254    2620.5613    189189.14    10.472245    379.69271 
   34600   -1195.1475    169.11697   -1026.0306    2621.9355    180813.85    10.472245    379.64614 
   34700   -1192.6174    163.22264   -1029.3947    2530.5517     181965.5    10.472245    380.65387 
   34800   -1181.9825    173.25679   -1008.7257    2686.1179    191083.47    10.472245    381.87378 
   34900    -1183.431    158.54737   -1024.8836    2458.0677    187780.81    10.472245    384.29828 
   35000   -1184.3504    178.12693   -1006.2235    2761.6231     190876.8    10.472245    387.48746 
   35100   -1181.3187    164.31032   -1017.0084    2547.4147    191028.43    10.472245    391.10479 
   35200   -1189.9957     165.4206   -1024.5751    2564.6282    185112.65    10.472245    391.15844 
   35300   -1188.6334    158.08154   -1030.5519    2450.8457    184621.27    10.472245    393.57714 
   35400   -1186.5766    174.33185   -1012.2448    2702.7854    186347.27    10.472245    394.35796 
   35500   -1183.8572    164.30207   -1019.5552    2547.2868    187536.76    10.472245    397.59414 
   35600   -1191.4024     162.4714    -1028.931    2518.9047    185501.24    10.472245    400.46867 
   35700   -1184.6444    162.88157   -1021.7629    2525.2639    186487.07    10.472245    402.52192 
   35800   -1182.4595    164.09662   -1018.3629    2544.1016    188174.11    10.472245    404.87717 
   35900    -1189.331    160.16275   -1029.1683    2483.1122    184006.73    10.472245    407.17417 
   36000   -1192.8132    150.78013   -1042.0331     2337.647    182260.53    10.472245    407.80847 
   36100   -1189.6885    171.33603   -1018.3525     2656.339    184800.74    10.472245    410.29278 
   36200   -1184.9049    171.79449   -1013.1104     2663.447    188149.44    10.472245    411.24848 
   36300   -1193.9558    173.76893   -1020.1868     2694.058     184254.8    10.472245     410.4371 
   36400   -1200.4562    166.34572   -1034.1104     2578.971    178367.87    10.472245    410.36115 
   36500     -1190.36    177.99476   -1012.3653     2759.574    186335.41    10.472245    411.13043 
   36600   -1187.7625    166.93354    -1020.829    2588.0843    186698.61    10.472245    412.07566 
   36700   -1191.3465     160.6063   -1030.7402    2489.9889    182286.29    10.472245    412.59382 
   36800   -1187.7953    164.76573   -1023.0295    2554.4753    184276.91    10.472245    415.66844 
   36900   -1183.5128    174.67396   -1008.8388    2708.0893    188790.17    10.472245     416.9966 
   37000    -1195.241    163.94186   -1031.2991    2541.7023    180957.27    10.472245    419.83472 
   37100   -1190.4273    168.90836   -1021.5189    2618.7013    183298.56    10.472245    421.38958 
   37200   -1177.0691    156.35248   -1020.7166     2424.039    191427.61    10.472245    421.89048 
   37300   -1191.3137    156.09736   -1035.2163    2420.0837    180851.84    10.472245    423.15489 
   37400    -1183.369    167.03562   -1016.3333    2589.6669     187810.9    10.472245    424.15673 
   37500   -1191.4239     162.5975   -1028.8264    2520.8598    182662.39    10.472245    424.04262 
   37600   -1186.4401    174.62381   -1011.8163    2707.3118    187258.81    10.472245     423.0983 
   37700   -1183.8873    164.33292   -1019.5544    2547.7651    186798.57    10.472245    424.23344 
   37800   -1193.1443    167.73403   -1025.4103    2600.4948    181442.26    10.472245    423.90447 
   37900   -1191.0625    170.81089   -1020.2516    2648.1975    184873.81    10.472245    426.06901 
   38000   -1187.2463    168.20599   -1019.0403     2607.812    187475.63    10.472245    428.34657 
   38100   -1185.4179    161.77558   -1023.6423     2508.117    186388.02    10.472245    429.35612 
   38200   -1196.6625    162.38638   -1034.2761    2517.5866     179597.2    10.472245    428.91517 
   38300   -1181.6341    162.80816    -1018.826    2524.1258    189852.22    10.472245    431.73852 
   38400   -1193.2582    161.98081   -1031.2774    2511.2988    180212.13    10.472245     431.8019 
   38500   -1191.5741    162.93816   -1028.6359    2526.1412    182800.38    10.472245    435.48848 
   38600    -1190.408    168.26485   -1022.1432    2608.7244    184127.99    10.472245    438.04636 
   38700   -1190.5736     158.5454   -1032.0283    2458.0372    182555.06    10.472245    439.81751 
   38800   -1191.6637    176.69082   -1014.9729    2739.3581    185266.14    10.472245     439.8871 
   38900   -1187.9622    172.99155   -1014.9707    2682.0057    186017.34    10.472245    441.25438 
   39000   -1210.4901    174.95987   -1035.5303    2712.5219    173496.46    10.472245    441.77445 
   39100   -1193.3946    174.45299   -1018.9416    2704.6634    183275.16    10.472245    441.43067 
   39200   -1187.0481     169.0198   -1018.0283     2620.429    186122.62    10.472245    443.01746 
   39300   -1192.0832    156.26318     -1035.82    2422.6544    180719.91    10.472245    446.56538 
   39400   -1188.1048    168.91106   -1019.1937    2618.7432    185668.34    10.472245     446.8718 
   39500   -1196.2498    171.72303   -1024.5268     2662.339    182171.66    10.472245    447.58247 
   39600   -1198.8812    160.11934   -1038.7619    2482.4392    178424.08    10.472245    449.95812 
   39700   -1183.2313    165.32133     -1017.91    2563.0891    188989.05    10.472245    452.88737 
   39800   -1191.8024    175.08397   -1016.7185     2714.446    184675.71    10.472245    456.44209 
   39900   -1197.2449    165.11785   -1032.1271    2559.9344    178506.53    10.472245    458.48219 
   40000   -1194.3373    176.34418   -1017.9931    2733.9839    182077.84    10.472245     459.5992 
   40100   -1182.6123    168.21017   -1014.4021    2607.8768    189430.47    10.472245    459.29773 
   40200   -1184.7721    161.50852   -1023.2636    2503.9766    185437.46    10.472245    461.07452 
   40300   -1189.5696    168.74748   -1020.8222     2616.207     185588.3    10.472245    463.38177 
   40400   -1181.2642    167.14683   -1014.1174    2591.3911    190959.12    10.472245    465.52888 
   40500   -1184.7189    153.31559   -1031.4033    2376.9559    186108.09    10.472245    467.48682 
   40600   -1198.1074    168.08862   -1030.0188    2605.9923    179549.41    10.472245    468.93391 
   40700   -1184.6813    171.68547   -1012.9958    2661.7568    189394.61    10.472245    472.92418 
   40800   -1197.8773    167.77698   -1030.1003    2601.1607    177044.17    10.472245    474.61232 
   40900   -1189.8787    158.90097   -1030.9778    2463.5499     184574.9    10.472245    475.89931 
   41000   -1183.4952    167.93796   -1015.5572    2603.6566    188416.86    10.472245     474.9494 
   41100   -1193.3246    171.90411   -1021.4204    2665.1465    183135.63    10.472245     474.2293 
   41200   -1200.0117    163.97445   -1036.0373    2542.2075    178820.55    10.472245    473.60583 
   41300   -1189.4881    171.21811     -1018.27    2654.5109    184459.43    10.472245    473.32501 
   41400   -1193.6017    169.42239   -1024.1793    2626.6706     183467.1    10.472245    475.36066 
   41500     -1202.69    160.72114   -1041.9688    2491.7693    175797.01    10.472245    474.72424 
   41600   -1191.0957    167.11889   -1023.9768    2590.9579    184538.56    10.472245    476.90774 
   41700    -1197.227    179.91406   -1017.3129    2789.3301    182456.07    10.472245    479.68402 
   41800   -1191.9032    157.55273   -1034.3505    2442.6473    182337.06    10.472245    480.27361 
   41900   -1187.7211    175.57065   -1012.1505    2721.9914    186303.19    10.472245    482.73084 
   42000   -1189.5204    166.36223   -1023.1582    2579.2268     184737.2    10.472245    482.53095 
   42100   -1184.8338    161.91257   -1022.9212    2510.2408    188344.01    10.472245    482.79836 
   42200   -1183.9553     189.3722   -994.58313    2935.9661    190243.54    10.472245    481.78636 
   42300   -1179.8289    171.39929   -1008.4296    2657.3198    190832.76    10.472245     483.4213 
   42400   -1189.1347    162.77254   -1026.3622    2523.5735    186137.46    10.472245    484.93357 
   42500    -1187.072     161.8845   -1025.1875    2509.8056    185230.85    10.472245     486.6033 
   42600   -1181.8013    176.16547   -1005.6359    2731.2131    189982.61    10.472245    488.00604 
   42700   -1194.8712    170.81593   -1024.0553    2648.2756    181192.31    10.472245    487.83068 
   42800   -1183.5837    166.09203   -1017.4917    2575.0378    189977.09    10.472245    488.91754 
   42900   -1195.6097    173.80895   -1021.8008    2694.6785    181642.09    10.472245    489.10797 
   43000   -1201.0712    165.91675   -1035.1544    2572.3204    178595.73    10.472245    491.77826 
   43100   -1181.2405    164.74639   -1016.4941    2554.1754     190616.9    10.472245    493.91494 
   43200   -1181.5069    162.98232   -1018.5246    2526.8259    189826.55    10.472245    495.07737 
   43300   -1196.8175    157.97755   -1038.8399    2449.2334    180989.37    10.472245    497.76805 
   43400   -1196.6818    168.38758   -1028.2942    2610.6273    181612.99    10.472245    498.75139 
   43500    -1188.975    165.18913   -1023.7858    2561.0396    184396.47    10.472245     502.3979 
   43600   -1189.6718    170.52348   -1019.1483    2643.7415    186636.67    10.472245    502.46167 
   43700    -1181.185    172.04296   -1009.1421    2667.2991     190479.3    10.472245     502.0979 
   43800   -1188.8716    160.69368   -1028.1779    2491.3435    185602.54    10.472245    507.51853 
   43900   -1184.9497     169.9698   -1014.9799    2635.1575    186778.92    10.472245    511.24848 
   44000   -1180.7426    167.33424   -1013.4084    2594.2967    190093.25    10.472245     512.2472 
   44100   -1194.5691    166.30525   -1028.2639    2578.3435       183281    10.472245    510.93271 
   44200   -1196.5261    168.76972   -1027.7564    2616.5518    179467.45    10.472245    511.99957 
   44300   -1188.6021    165.05469   -1023.5474    2558.9552    184229.06    10.472245    516.60461 
   44400   -1190.8075    166.99385   -1023.8136    2589.0193    184927.79    10.472245    515.83018 
   44500   -1190.6713    169.31823    -1021.353    2625.0558     183574.8    10.472245    514.65822 
   44600   -1202.1712    160.80968   -1041.3615    2493.1419    175741.43    10.472245    514.62763 
   44700   -1189.1102    170.42096   -1018.6892    2642.1522    184285.81    10.472245    517.45445 
   44800   -1191.8094    168.07997   -1023.7294    2605.8582    183188.79    10.472245    516.55004 
   44900   -1199.9227    161.27486   -1038.6478     2500.354    177655.93    10.472245    518.99718 
   45000   -1186.6382    171.19208   -1015.4461    2654.1073    187681.05    10.472245    518.47464 
   45100   -1187.1846    164.84254   -1022.3421    2555.6662     185406.4    10.472245    523.67387 
   45200    -1189.977    162.05248   -1027.9245    2512.4099    184426.65    10.472245    524.26476 
   45300   -1185.0019    168.01734   -1016.9846    2604.8872     188590.6    10.472245    523.77253 
   45400   -1180.2083    161.88767   -1018.3206    2509.8547    188677.24    10.472245    528.05109 
   45500   -1191.1006    159.79228   -1031.3083    2477.3685    184536.93    10.472245    529.80737 
   45600   -1187.2583    173.51093   -1013.7474     2690.058    186314.12    10.472245    528.23705 
   45700   -1194.6824    175.68554   -1018.9968    2723.7725    181753.98    10.472245    529.27602 
   45800   -1195.4991    169.11402   -1026.3851    2621.8898    180773.67    10.472245    531.28423 
   45900   -1171.6263    163.31958   -1008.3067    2532.0546    195675.53    10.472245     532.3408 
   46000   -1184.0662    167.87612   -1016.1901    2602.6978    187816.98    10.472245    537.74997 
   46100   -1190.5057    164.31795   -1026.1877    2547.5331    184419.16    10.472245    538.52026 
   46200   -1197.4914    166.63485   -1030.8566    2583.4534    180397.54    10.472245    540.75665 
   46300   -1188.8185     173.3247   -1015.4938    2687.1708    185397.35    10.472245    542.96554 
   46400   -1193.5172     166.6629   -1026.8543    2583.8883    181162.64    10.472245    543.55776 
   46500   -1189.9915    160.19658   -1029.7949    2483.6367    184671.44    10.472245    544.71777 
   46600   -1173.2089    155.41432   -1017.7946     2409.494    192962.06    10.472245    543.01568 
   46700    -1183.502    167.53964   -1015.9623    2597.4811    188846.64    10.472245    542.93036 
   46800   -1196.5389    163.41073   -1033.1281    2533.4678    178889.42    10.472245    543.77036 
   46900   -1187.7142    169.35836   -1018.3558    2625.6779    186191.18    10.472245    543.96367 
   47000   -1187.7236    171.78397   -1015.9396    2663.2839    185744.56    10.472245      546.619 
   47100   -1188.2926    163.95447   -1024.3382    2541.8977    185621.14    10.472245    546.24155 
   47200   -1187.5064     176.9695   -1010.5368    2743.6787    188414.53    10.472245    545.68852 
   47300   -1178.9391    161.78683   -1017.1523    2508.2913    191260.29    10.472245     548.1418 
   47400   -1191.9772    162.24812    -1029.729    2515.4431    181400.34    10.472245    550.09831 
   47500   -1182.7154    171.05059   -1011.6648    2651.9138    191835.43    10.472245    550.76495 
   47600   -1188.8869    177.75568   -1011.1312    2755.8673    185549.53    10.472245    551.54625 
   47700   -1191.8518    167.67996   -1024.1719    2599.6566    183283.77    10.472245    554.19245 
   47800   -1184.4502    166.31057   -1018.1396    2578.4259    187958.84    10.472245     555.3217 
   47900   -1194.5261    156.82826   -1037.6979    2431.4152    179769.21    10.472245    555.22952 
   48000   -1188.5844    171.69688   -1016.8876    2661.9335    187801.87    10.472245    558.18507 
   48100   -1191.7289    172.79097   -1018.9379    2678.8961    184258.08    10.472245    561.35387 
   48200   -1199.8007    164.64784   -1035.1528    2552.6476    178191.88    10.472245    561.33474 
   48300   -1201.3854    175.06204   -1026.3234    2714.1059    178480.83    10.472245     562.2649 
   48400   -1183.2002    162.44825   -1020.7519    2518.5459     189979.2    10.472245    563.83433 
   48500   -1185.3303    158.54925    -1026.781    2458.0969    186499.67    10.472245    564.88576 
   48600   -1183.4352    175.26845   -1008.1668    2717.3061    188414.42    10.472245    565.82986 
   48700   -1187.3232    160.87366   -1026.4495    2494.1338    184543.63    10.472245    567.60641 
   48800    -1186.102    164.29969   -1021.8023    2547.2499    187714.74    10.472245    568.30164 
   48900   -1188.8948    168.73844   -1020.1564    2616.0669    184798.28    10.472245    570.05854 
   49000   -1195.1642    169.39539   -1025.7688     2626.252    181211.24    10.472245    570.94888 
   49100   -1179.6538    168.68925   -1010.9645    2615.3043    192255.19    10.472245    572.33006 
   49200   -1184.4556    176.44001   -1008.0156    2735.4696    189218.01    10.472245     571.2876 
   49300   -1190.4626     158.5503   -1031.9123    2458.1132    182346.12    10.472245    571.89089 
   49400   -1191.7015     174.7705    -1016.931    2709.5861    184851.85    10.472245    572.71631 
   49500    -1181.189    164.23409   -1016.9549    2546.2329    189991.45    10.472245    573.96817 
   49600    -1189.972    152.73328   -1037.2388    2367.9281    182964.97    10.472245    573.16763 
   49700   -1187.8377    168.29559   -1019.5421    2609.2011    184690.79    10.472245    577.33164 
   49800   -1196.3432    172.49012   -1023.8531    2674.2318    179916.95    10.472245    576.66082 
   49900   -1204.8725    161.97644   -1042.8961    2511.2309    175603.23    10.472245    575.46223 
   50000   -1193.6894    166.97658   -1026.7128    2588.7516    181230.26    10.472245    577.32254 
   50100   -1182.5226    166.67444   -1015.8482    2584.0672    188157.51    10.472245    578.94122 
   50200   -1194.6277    161.69253   -1032.9352    2506.8293    182551.38    10.472245    581.24466 
   50300   -1188.2664    163.72628   -1024.5401    2538.3599    186469.08    10.472245    583.97292 
   50400   -1188.5018    167.56531   -1020.9365     2597.879    185030.21    10.472245    586.18495 
   50500   -1179.7306    165.63729   -1014.0934    2567.9877    192613.28    10.472245    586.21088 
   50600   -1188.2787    173.48861     -1014.79    2689.7121       185880    10.472245    585.86315 
   50700   -1187.8506    158.99203   -1028.8586    2464.9616    184699.04    10.472245    587.55273 
   50800   -1189.1981    177.15416   -1012.0439    2746.5415    188247.48    10.472245     587.6358 
   50900   -1190.9261    169.08064   -1021.8454    2621.3722    184773.06    10.472245       587.33 
   51000   -1192.6657    167.58643   -1025.0793    2598.2065    180690.68    10.472245    589.69049 
   51100   -1186.0212    165.31503   -1020.7062    2562.9915    188278.56    10.472245    589.66218 
   51200     -1180.36    171.80914   -1008.5508    2663.6741    190446.99    10.472245    593.41903 
   51300   -1190.4603    168.08477   -1022.3755    2605.9326    184978.23    10.472245    592.96447 
   51400   -1192.7861    164.42729   -1028.3588    2549.2282    182318.44    10.472245    594.28635 
   51500   -1190.1395    152.10613   -1038.0333    2358.2048    182112.43    10.472245    594.12457 
   51600   -1186.0047    169.78589   -1016.2188    2632.3063     187999.1    10.472245    594.40114 
   51700   -1193.5871    167.11356   -1026.4735    2590.8753     183333.1    10.472245    595.24825 
   51800   -1190.2499    160.09731   -1030.1526    2482.0975    183543.39    10.472245    596.68004 
   51900   -1184.7983    164.30016   -1020.4981    2547.2571    187854.41    10.472245    596.13553 
   52000   -1193.8607    159.67204   -1034.1887    2475.5043    181609.82    10.472245    599.57138 
   52100   -1191.3417    177.94716   -1013.3946    2758.8359    186491.49    10.472245     602.7455 
   52200   -1192.3784    165.77583   -1026.6026    2570.1355    183358.79    10.472245    601.17769 
   52300   -1186.8621     169.7089   -1017.1532    2631.1125    186942.69    10.472245     602.1061 
   52400   -1187.0115    174.88931   -1012.1222     2711.428    188386.68    10.472245    602.54103 
   52500   -1190.2858    167.49709   -1022.7887    2596.8214    183857.24    10.472245    603.66341 
   52600   -1194.0973    168.34533    -1025.752    2609.9722    182917.76    10.472245    609.18302 
   52700   -1188.2717    169.85546   -1018.4163    2633.3849    186043.08    10.472245    611.48215 
   52800   -1190.1435    164.09655    -1026.047    2544.1005    184112.14    10.472245     612.2743 
   52900   -1194.4754    169.33007   -1025.1453    2625.2394    180954.88    10.472245    615.28567 
   53000   -1185.9048    178.14593   -1007.7589    2761.9176    189660.61    10.472245    615.42965 
   53100   -1188.3354     175.6175   -1012.7179    2722.7176    185956.26    10.472245    616.92908 
   53200   -1203.7805     176.7394   -1027.0411    2740.1113     178944.2    10.472245    619.00744 
   53300   -1188.3173    173.82801   -1014.4892     2694.974    185904.14    10.472245     620.6653 
   53400   -1188.3768    168.13107   -1020.2458    2606.6505    185319.63    10.472245    621.80401 
   53500   -1194.7406    163.95443   -1030.7862    2541.8971    180268.81    10.472245    623.93004 
   53600   -1176.0369    161.01816   -1015.0188    2496.3741     190993.9    10.472245    627.48276 
   53700   -1190.8263    170.94332    -1019.883    2650.2506    184580.31    10.472245    632.44592 
   53800   -1187.3009    167.14719   -1020.1537    2591.3966    187331.51    10.472245    630.72539 
   53900   -1194.0307    172.49584   -1021.5348    2674.3205    185083.67    10.472245    633.04783 
   54000    -1190.396    157.70727   -1032.6888    2445.0431    184097.85    10.472245    636.98402 
   54100   -1188.1616    175.33833   -1012.8232    2718.3896    186004.87    10.472245    638.72367 
   54200   -1183.1615    156.54695   -1026.6145    2427.0539    187822.72    10.472245    639.58715 
   54300   -1195.9462    179.68808   -1016.2581    2785.8266    183258.02    10.472245    641.77382 
   54400   -1184.4898    171.08755   -1013.4022    2652.4868    187288.83    10.472245    643.07152 
   54500   -1191.8143     164.7869   -1027.0274    2554.8035    182818.42    10.472245    644.71517 
   54600   -1182.5918    170.30861   -1012.2832    2640.4102    189145.41    10.472245    645.96108 
   54700   -1189.1416    169.05393   -1020.0877    2620.9581     186223.2    10.472245    648.71728 
   54800   -1192.6927    160.46629   -1032.2264    2487.8182    181846.98    10.472245    648.58604 
   54900   -1194.6686    172.71746   -1021.9512    2677.7563    183121.24    10.472245     651.7646 
   55000   -1189.6044    169.95909   -1019.6453    2634.9914       186028    10.472245     651.4808 
   55100   -1181.5135    166.98921   -1014.5243    2588.9474    190831.97    10.472245    651.82459 
   55200   -1184.7463    163.58169   -1021.1646    2536.1183    187786.06    10.472245    652.67126 
   55300   -1192.9608    167.78165   -1025.1792    2601.2331    184743.43    10.472245    654.89916 
   55400   -1195.2579    159.06436   -1036.1935    2466.0831    181147.81    10.472245    655.44017 
   55500   -1200.1179    183.28495   -1016.8329    2841.5914    179362.74    10.472245    654.59774 
   55600   -1189.4647    162.45816   -1027.0065    2518.6994    186089.42    10.472245    652.94106 
   55700   -1179.0672    174.77097   -1004.2962    2709.5933     194131.8    10.472245    654.20458 
   55800   -1185.1636    167.37987   -1017.7837    2595.0041    188549.12    10.472245    655.04588 
   55900   -1185.5696    160.96597   -1024.6036     2495.565    185182.23    10.472245    656.48589 
   56000   -1209.9478    168.71797   -1041.2298    2615.7496    173727.64    10.472245    657.01464 
   56100   -1185.9931    159.83502   -1026.1581    2478.0311    185759.27    10.472245    659.23556 
   56200   -1192.5634     174.1325   -1018.4309    2699.6947    184832.69    10.472245    658.45862 
   56300   -1189.8824    168.26156   -1021.6209    2608.6735       184492    10.472245     660.9134 
   56400   -1194.8203    165.69963   -1029.1206    2568.9541    181102.28    10.472245    662.37399 
   56500   -1183.3461     172.4857   -1010.8604    2674.1632    187975.06    10.472245    664.47526 
   56600   -1179.7683    162.09229    -1017.676    2513.0272    191133.05    10.472245    665.67416 
   56700    -1193.147    170.23683   -1022.9102    2639.2975    184667.97    10.472245    666.30172 
   56800   -1188.8047    168.24854   -1020.5562    2608.4716    184601.35    10.472245    666.89989 
   56900   -1181.9507    174.38593   -1007.5647    2703.6238    191689.98    10.472245    666.79338 
   57000   -1192.8892    167.36215   -1025.5271    2594.7294    183058.33    10.472245    670.12802 
   57100   -1191.3055    163.60634   -1027.6991    2536.5004    186353.57    10.472245    669.22834 
   57200   -1192.1689    167.72657   -1024.4424    2600.3791    183350.59    10.472245    671.37766 
   57300    -1193.968    170.43272   -1023.5353    2642.3345    182947.16    10.472245    672.99277 
   57400   -1193.1981    163.66809     -1029.53    2537.4579    181480.49    10.472245    673.11407 
   57500    -1195.454    177.65072   -1017.8033    2754.2401    181598.46    10.472245    675.73371 
   57600   -1197.0345    165.78036   -1031.2542    2570.2057    179189.02    10.472245    677.91896 
   57700   -1186.0087    164.04715   -1021.9616    2543.3347    187241.51    10.472245    678.69609 
   57800   -1182.2707    164.28695   -1017.9837    2547.0525     188766.2    10.472245    677.29304 
   57900   -1196.0192    164.56655   -1031.4527    2551.3873    180665.47    10.472245    676.38504 
   58000   -1195.7144    172.83988   -1022.8745    2679.6543    181148.78    10.472245    677.10884 
   58100   -1190.1445    174.21297   -1015.9315    2700.9423    187293.88    10.472245    677.86706 
   58200      -1199.7    168.74795   -1030.9521    2616.2144    180085.42    10.472245      679.036 
   58300    -1193.639    167.99268   -1025.6463    2604.5049    181342.91    10.472245    680.60585 
   58400   -1178.5661    179.39719   -999.16892    2781.3167    194586.99    10.472245    681.32085 
   58500   -1186.8269    170.06344   -1016.7635    2636.6093    185880.84    10.472245    683.59351 
   58600   -1201.4406    171.44225   -1029.9983    2657.9859    178887.45    10.472245    686.34952 
   58700   -1187.4996    157.84164    -1029.658    2447.1264    186305.29    10.472245    688.60663 
   58800   -1183.1673    172.67056   -1010.4967    2677.0293    190406.35    10.472245    689.12785 
   58900   -1185.1137    156.22659   -1028.8871    2422.0872    186243.01    10.472245    689.37691 
   59000   -1200.3694     173.0329   -1027.3365    2682.6469    178332.11    10.472245    693.00029 
   59100   -1192.0747    168.01109   -1024.0636    2604.7902    183779.52    10.472245    695.19378 
   59200   -1179.5206    172.29045   -1007.2302    2671.1362    192698.99    10.472245    695.56194 
   59300   -1186.9301    163.18594   -1023.7442    2529.9828    187337.58    10.472245    698.47572 
   59400   -1189.1258    161.89121   -1027.2346    2509.9096       185431    10.472245    697.09952 
   59500   -1183.7921     180.3935   -1003.3986    2796.7633    189569.39    10.472245     697.8172 
   59600   -1186.1628    166.63331   -1019.5295    2583.4296    186846.45    10.472245    701.12032 
   59700   -1188.5716    166.85077   -1021.7208    2586.8011    184266.06    10.472245    703.96891 
   59800   -1186.4249    169.18797   -1017.2369    2623.0363    187594.39    10.472245    704.52909 
   59900   -1192.3549    178.61999   -1013.7349    2769.2673    185450.67    10.472245    704.24864 
   60000   -1195.1281    160.75048   -1034.3777     2492.224    181675.82    10.472245    700.90547 
   60100   -1190.0105    166.80847    -1023.202    2586.1452    185437.36    10.472245    703.41831 
   60200   -1185.8363    166.80404   -1019.0323    2586.0766    188448.46    10.472245    702.19877 
   60300   -1187.5824    168.55701   -1019.0254     2613.254    184674.74    10.472245    701.84165 
   60400   -1197.1028     172.8999   -1024.2029    2680.5848    181552.59    10.472245    705.75397 
   60500   -1202.9574    167.57131   -1035.3861    2597.9721    176444.68    10.472245    708.04049 
   60600   -1181.7253    170.23038   -1011.4949    2639.1974    190752.28    10.472245    709.62078 
   60700   -1197.4566    169.62616   -1027.8304    2629.8299    181708.24    10.472245     711.7129 
   60800   -1184.2255    161.82013   -1022.4054    2508.8077    187997.87    10.472245    716.40247 
   60900   -1188.7857    167.65734   -1021.1284    2599.3059    187372.82    10.472245    717.66683 
   61000   -1193.2765    163.38531   -1029.8912    2533.0737    183386.18    10.472245    717.85265 
   61100   -1194.6173    158.50777   -1036.1095    2457.4538    181043.79    10.472245     719.4985 
   61200   -1185.7176    167.71145   -1018.0062    2600.1447    187313.05    10.472245    720.23286 
   61300   -1191.8725    169.25446   -1022.6181    2624.0671    183347.49    10.472245    721.67978 
   61400   -1192.2044    159.55275   -1032.6516    2473.6549    182695.44    10.472245    721.99031 
   61500   -1193.0927    171.54951   -1021.5432    2659.6488    182557.23    10.472245    722.21971 
   61600   -1194.9801    172.67352   -1022.3066    2677.0751    182752.97    10.472245    723.51151 
   61700   -1196.1268    165.24087   -1030.8859    2561.8417    180550.61    10.472245    724.67691 
   61800   -1182.8515    171.35346    -1011.498    2656.6094    189136.67    10.472245    726.27033 
   61900   -1192.2404    167.37002   -1024.8704    2594.8514    183164.79    10.472245    730.12874 
   62000    -1187.102     162.0542   -1025.0478    2512.4366    186086.51    10.472245    732.05997 
   62100   -1188.2098    173.29196   -1014.9179    2686.6632    186641.45    10.472245    732.71736 
   62200   -1190.4188     157.7104   -1032.7084    2445.0916    184698.54    10.472245    736.19592 
   62300   -1196.1806    171.90708   -1024.2736    2665.1924     180515.8    10.472245    736.75449 
   62400   -1185.3271    166.11288   -1019.2142    2575.3611    190126.76    10.472245    736.47362 
   62500   -1197.0202    169.14013     -1027.88    2622.2946    181119.87    10.472245    738.17759 
   62600   -1178.1087    171.30494   -1006.8037    2655.8571    193190.74    10.472245    735.80189 
   62700     -1184.89    158.60509   -1026.2849    2458.9626    186851.14    10.472245     739.1291 
   62800   -1187.8174    163.96399   -1023.8534    2542.0454    187042.22    10.472245    740.70857 
   62900   -1185.3618    180.53965   -1004.8221    2799.0292    189287.69    10.472245    740.16491 
   63000   -1194.6701    168.30482   -1026.3652    2609.3443    183214.53    10.472245    744.39079 
   63100   -1192.3006    172.60176   -1019.6989    2675.9625    183243.43    10.472245    746.72643 
   63200   -1175.6161    163.72038   -1011.8957    2538.2684    194321.03    10.472245    749.23854 
   63300   -1197.3983    161.93965   -1035.4586    2510.6606    179217.07    10.472245    749.94782 
   63400   -1196.4075    179.72926   -1016.6782     2786.465    181468.42    10.472245    749.61543 
   63500   -1194.0936    167.11031   -1026.9833    2590.8249    182468.49    10.472245    749.41875 
   63600   -1189.9427    166.73601   -1023.2067    2585.0219    184513.05    10.472245    747.94311 
   63700    -1190.862    170.27427   -1020.5878     2639.878    185130.23    10.472245    748.83353 
   63800   -1188.2656    169.20313   -1019.0624    2623.2713    188141.94    10.472245    748.52369 
   63900   -1192.8564    178.68221   -1014.1741    2770.2319    183144.23    10.472245    752.39392 
   64000   -1196.0948    163.28417   -1032.8106    2531.5057     180371.2    10.472245    754.85393 
   64100   -1192.7686    174.12315   -1018.6455    2699.5498    184047.37    10.472245    758.73337 
   64200   -1180.4165    184.55327    -995.8632    2861.2549    194276.25    10.472245    760.20756 
   64300   -1190.2379    175.82378   -1014.4141    2725.9158    184979.31    10.472245    762.40682 
   64400   -1187.0332    159.82703   -1027.2062    2477.9073    185831.42    10.472245     763.8718 
   64500   -1189.5206    176.22681   -1013.2938    2732.1642    186642.15    10.472245    764.94413 
   64600   -1188.0833    172.45584   -1015.6275    2673.7003    188373.37    10.472245    768.06872 
   64700   -1199.3201    168.90196   -1030.4182    2618.6021    179645.15    10.472245     769.8193 
   64800   -1190.2817    176.72464   -1013.5571    2739.8823    185259.66    10.472245    767.31867 
   64900   -1190.0661    162.66918   -1027.3969    2521.9711    182255.35    10.472245    767.38353 
   65000   -1195.8026    164.66358    -1031.139    2552.8916    180045.24    10.472245    769.24999 
   65100   -1187.3772    170.56279   -1016.8144     2644.351    187020.63    10.472245    770.76322 
   65200   -1194.4148     170.9135   -1023.5013    2649.7884    183319.81    10.472245     769.7592 
   65300   -1190.4135     156.1775    -1034.236    2421.3261    182302.43    10.472245      768.289 
   65400   -1185.4546    167.76036   -1017.6942    2600.9031    187669.71    10.472245    764.87544 
   65500   -1191.5006     177.3233   -1014.1773    2749.1639    184740.13    10.472245    765.43526 
   65600   -1187.6696    163.61451   -1024.0551    2536.6271    186044.65    10.472245    770.32077 
   65700    -1195.468    181.21731   -1014.2507    2809.5353    183911.45    10.472245    770.33727 
   65800   -1199.4575    165.46101   -1033.9965    2565.2547    178866.16    10.472245    772.46862 
   65900   -1195.0044    167.63212   -1027.3723    2598.9149    180389.34    10.472245    776.22698 
   66000   -1189.4087    175.43544   -1013.9733    2719.8951    185926.69    10.472245    777.98571 
   66100   -1195.3265    172.12772   -1023.1988    2668.6132    181312.72    10.472245    782.34627 
   66200   -1194.7106    160.95092   -1033.7597    2495.3316    182562.28    10.472245      782.103 
   66300   -1195.5115    179.33203   -1016.1795    2780.3065     182877.2    10.472245    784.95625 
   66400    -1193.129    161.40166   -1031.7273    2502.3198    182844.62    10.472245    788.66963 
   66500   -1192.3557    156.39461   -1035.9611     2424.692    181890.65    10.472245    791.91063 
   66600   -1186.4875    161.80416   -1024.6834    2508.5601    184943.64    10.472245    793.90397 
   66700   -1187.1557    171.79372   -1015.3619     2663.435    188050.59    10.472245    797.35464 
   66800   -1190.0263    162.28777   -1027.7386    2516.0578    183064.88    10.472245    800.31117 
   66900   -1189.8506    168.77302   -1021.0776     2616.603    183803.76    10.472245    801.94243 
   67000    -1181.403    166.99423   -1014.4088    2589.0252    189844.62    10.472245    808.29596 
   67100   -1194.2339    171.79134   -1022.4425     2663.398     182841.5    10.472245    812.73852 
   67200   -1185.9646     160.4216    -1025.543    2487.1252    187972.01    10.472245    814.89854 
   67300   -1180.8165    175.64805   -1005.1685    2723.1913    190284.54    10.472245    812.07848 
   67400     -1182.31    164.28408   -1018.0259     2547.008    189955.52    10.472245    813.91304 
   67500   -1190.6727    163.02762   -1027.6451    2527.5282    182745.87    10.472245     815.9518 
   67600   -1190.9851    170.36888   -1020.6162    2641.3447    185538.67    10.472245    814.84776 
   67700   -1193.8966    184.28492   -1009.6117    2857.0946    183904.38    10.472245    816.35636 
   67800   -1184.7402    158.51979   -1026.2204    2457.6402    187171.01    10.472245    817.48001 
   67900   -1196.6281    176.73482   -1019.8933    2740.0402     182155.3    10.472245    817.64031 
   68000   -1195.9598    155.84011   -1040.1197    2416.0953    178748.06    10.472245    819.05114 
   68100   -1194.7937    171.83318   -1022.9606    2664.0468    182348.29    10.472245    821.21452 
   68200   -1188.1017    167.42365    -1020.678    2595.6828    187346.82    10.472245      823.321 
   68300   -1204.5826    165.22579   -1039.3568    2561.6079    174374.51    10.472245    825.38451 
   68400   -1179.9388    164.91261   -1015.0262    2556.7525    189557.38    10.472245    824.94536 
   68500   -1186.0631    168.91175   -1017.1513    2618.7539    186341.93    10.472245      825.916 
   68600   -1198.3558    169.69003   -1028.6657    2630.8201    179298.24    10.472245    828.40872 
   68700   -1180.9312    163.20987   -1017.7213    2530.3537    188895.33    10.472245    829.63243 
   68800   -1175.1842    181.25303   -993.93114    2810.0891    194797.14    10.472245    828.78838 
   68900   -1187.2545    176.00293   -1011.2516    2728.6933    186913.87    10.472245    830.46121 
   69000   -1193.6973    164.72309   -1028.9742    2553.8141    181747.19    10.472245    831.68937 
   69100   -1195.3673    179.70994   -1015.6573    2786.1655    183018.33    10.472245    834.21922 
   69200   -1191.6383    175.63143   -1016.0068    2722.9335    185768.28    10.472245    836.13326 
   69300   -1187.6092    166.21896   -1021.3902    2577.0056    184196.92    10.472245    836.47051 
   69400   -1186.8186    172.43718   -1014.3815    2673.4109     190136.1    10.472245    837.27239 
   69500   -1186.7484     170.4883   -1016.2601    2643.1962    187529.68    10.472245    839.68628 
   69600   -1189.3011    159.56711    -1029.734    2473.8775    184890.18    10.472245    839.12039 
   69700   -1182.1886    166.42919   -1015.7594     2580.265    191079.92    10.472245    840.73104 
   69800   -1197.1738    171.33244   -1025.8413    2656.2835    182306.14    10.472245     841.0797 
   69900     -1193.85    163.68315   -1030.1668    2537.6912     180742.6    10.472245    843.50769 
   70000   -1176.5895    164.36175   -1012.2278     2548.212    192468.54    10.472245    844.34167 
   70100   -1190.1594    161.33686   -1028.8225    2501.3152    184612.31    10.472245    844.53112 
   70200   -1183.3338    175.94104   -1007.3928    2727.7337    189905.18    10.472245    844.23519 
   70300   -1191.0103    167.53872   -1023.4716    2597.4668    183238.23    10.472245    849.00394 
   70400   -1184.9016    164.92343   -1019.9782    2556.9202    187963.16    10.472245     850.7108 
   70500   -1189.6274    170.08237    -1019.545    2636.9027    183553.18    10.472245    848.20246 
   70600   -1189.6691    162.90892   -1026.7602    2525.6879     182552.7    10.472245    850.51733 
   70700   -1193.6788    171.58699   -1022.0918    2660.2299    183397.26    10.472245    853.69751 
   70800   -1193.9822    172.89337   -1021.0888    2680.4836    182370.77    10.472245      854.693 
   70900    -1194.538    160.29793   -1034.2401    2485.2079    180531.04    10.472245    855.77862 
   71000   -1177.8018    164.73213   -1013.0697    2553.9544    191963.85    10.472245    854.83301 
   71100   -1178.1202    177.43242   -1000.6878    2750.8556    194575.94    10.472245    852.07344 
   71200   -1196.3732    167.23229   -1029.1409    2592.7161    180320.22    10.472245    849.81079 
   71300   -1194.3908    175.72538   -1018.6654    2724.3902    185016.36    10.472245    849.80585 
   71400   -1182.0092    169.62467   -1012.3845    2629.8067    189013.29    10.472245    849.53612 
   71500   -1194.5451    162.78658   -1031.7585    2523.7912    180335.59    10.472245    852.53345 
   71600   -1188.3567    171.50695   -1016.8497     2658.989    187155.26    10.472245    856.24234 
   71700   -1193.7932    159.14917    -1034.644    2467.3979    181810.39    10.472245    856.10724 
   71800   -1194.0852    165.54593   -1028.5393    2566.5713     181923.7    10.472245    857.61365 
   71900   -1182.8092    162.40025   -1020.4089    2517.8016    187535.45    10.472245    855.39456 
   72000    -1184.602    172.63494    -1011.967     2676.477    189812.66    10.472245    858.81095 
   72100   -1179.1617    162.19315   -1016.9685    2514.5908    189473.87    10.472245    861.25194 
   72200    -1191.049     167.5735   -1023.4755     2598.006    183918.28    10.472245    862.00627 
   72300   -1177.1631    172.48073   -1004.6824    2674.0862    194301.43    10.472245    863.03431 
   72400   -1187.2391    171.27975   -1015.9594    2655.4665    188044.13    10.472245     867.0438 
   72500    -1185.014    162.86859   -1022.1454    2525.0626    188897.85    10.472245    871.41626 
   72600   -1176.3497    162.93805   -1013.4117    2526.1395    191339.16    10.472245    872.89811 
   72700   -1180.4408    162.28318   -1018.1576    2515.9866    189630.89    10.472245    873.05422 
   72800   -1189.2102    155.02973   -1034.1805    2403.5314    185578.76    10.472245    874.79348 
   72900    -1191.891    172.18796    -1019.703    2669.5472    183300.75    10.472245    870.21205 
   73000   -1187.4489    175.70052   -1011.7484    2724.0048    188898.38    10.472245    871.51706 
   73100   -1190.4979    156.30114   -1034.1968    2423.2429    183958.04    10.472245    876.05404 
   73200    -1186.461    166.88528   -1019.5757    2587.3361    187172.54    10.472245    877.98809 
   73300   -1184.6959    163.63404   -1021.0619    2536.9298    186374.85    10.472245    879.32855 
   73400   -1189.3405    169.10179   -1020.2387    2621.7001    187962.06    10.472245    875.05291 
   73500   -1189.2874    167.14498   -1022.1424    2591.3623    185569.92    10.472245    879.05971 
   73600   -1198.4983    157.73052   -1040.7678    2445.4037    180439.29    10.472245    879.83431 
   73700   -1188.6029    166.16211   -1022.4408    2576.1243    185591.77    10.472245    880.82538 
   73800   -1195.5437     176.9598   -1018.5839    2743.5282     181462.2    10.472245    879.69263 
   73900   -1184.5612    146.27123     -1038.29    2267.7425    185863.92    10.472245    882.26445 
   74000   -1184.0771    164.53958   -1019.5376    2550.9691    188553.02    10.472245     881.8784 
   74100   -1186.4916    167.39384   -1019.0977    2595.2207    187453.22    10.472245    885.97592 
   74200   -1197.5723    157.89404   -1039.6782    2447.9387    177062.81    10.472245    888.84825 
   74300   -1189.7511    167.18356   -1022.5676    2591.9605    186358.92    10.472245    889.40808 
   74400   -1190.0453    173.23313   -1016.8122    2685.7512    185350.02    10.472245    893.68717 
   74500   -1191.2873    156.61272   -1034.6746    2428.0736    181860.28    10.472245    893.30625 
   74600   -1192.7921    178.03589   -1014.7562    2760.2116    184434.89    10.472245    894.28964 
   74700   -1185.9606    164.93027   -1021.0303    2557.0263    185732.39    10.472245    893.84961 
   74800   -1188.4078       158.33   -1030.0778    2454.6977    185409.32    10.472245    899.74064 
   74900   -1186.4637    170.69736   -1015.7664    2646.4374    185370.11    10.472245    901.28064 
   75000   -1198.3016    172.69342   -1025.6082    2677.3837    179916.01    10.472245    901.37246 
   75100   -1197.3271    164.45409    -1032.873    2549.6437    179002.52    10.472245    903.13056 
   75200   -1191.3158    180.32835   -1010.9874    2795.7532    184939.72    10.472245    903.44715 
   75300   -1197.6101    167.90126   -1029.7089    2603.0876    179661.19    10.472245    900.44174 
   75400   -1182.4545      160.205   -1022.2495    2483.7671    188988.24    10.472245    901.87095 
   75500   -1189.7118    174.44224   -1015.2696    2704.4967     185293.6    10.472245    903.05858 
   75600   -1200.0048    163.52585    -1036.479    2535.2525    177647.76    10.472245    904.10835 
   75700   -1191.1507     175.1994   -1015.9513    2716.2356    186081.45    10.472245    907.00869 
   75800    -1185.845    173.23081   -1012.6142    2685.7151    188514.97    10.472245    907.92693 
   75900   -1190.1267    157.68391   -1032.4428     2444.681    184045.16    10.472245    912.70343 
   76000   -1184.7591    166.56819   -1018.1909    2582.4201    187094.23    10.472245     911.5825 
   76100   -1194.0083    168.99721   -1025.0111    2620.0788    183652.13    10.472245    911.01999 
   76200    -1176.311    169.41921   -1006.8918    2626.6213    193461.19    10.472245     914.5907 
   76300   -1187.4972    180.88695   -1006.6103    2804.4134    187460.75    10.472245    914.46358 
   76400   -1189.8014     166.6852   -1023.1162    2584.2341    185326.16    10.472245     918.6084 
   76500     -1189.26    169.21588   -1020.0441     2623.469    186379.31    10.472245    919.77757 
   76600   -1185.0523    173.98348   -1011.0689    2697.3844    187012.21    10.472245    921.39284 
   76700   -1195.2731    162.92398   -1032.3491    2525.9214    180841.46    10.472245    923.12174 
   76800   -1198.4542    172.69085   -1025.7633    2677.3438    179064.24    10.472245    924.77523 
   76900   -1181.3934    178.37214   -1003.0213    2765.4248    192822.72    10.472245    926.83973 
   77000   -1189.9493    167.98214   -1021.9671    2604.3414    185571.14    10.472245    925.68136 
   77100   -1187.8991    160.73211    -1027.167    2491.9393    185060.87    10.472245    924.63993 
   77200   -1189.3092    177.35903   -1011.9502    2749.7178    187316.26    10.472245    925.69414 
[...]
   81400   -1191.1357    179.93608   -1011.1996    2789.6716    185923.87    10.472245    980.21242 
   81500   -1190.5492    167.13966   -1023.4096    2591.2798    183975.07    10.472245    982.23674 
   81600   -1203.2724    160.12072   -1043.1517    2482.4605    174777.09    10.472245     982.3493 
   81700   -1189.2292     163.3479   -1025.8813    2532.4936    183471.62    10.472245    983.19869 
   81800    -1192.371    177.73397    -1014.637    2755.5308    184653.41    10.472245    985.51377 
   81900   -1191.5551    161.05873   -1030.4963    2497.0032    183607.44    10.472245    985.47328 
   82000   -1188.7072    159.82601   -1028.8812    2477.8914    185822.89    10.472245    985.32591 
   82100   -1193.8468     174.2789   -1019.5679    2701.9644    182404.03    10.472245    989.88883 
   82200   -1194.9324    164.13629   -1030.7961    2544.7166    181573.85    10.472245    991.58342 
   82300   -1184.4901    171.71953   -1012.7706    2662.2848    187737.91    10.472245    993.03581 
   82400   -1187.7995    166.60937   -1021.1901    2583.0584    187616.98    10.472245    996.69318 
   82500    -1189.093    160.20993   -1028.8831    2483.8436    182331.12    10.472245    999.00782 
   82600   -1191.6271    170.72783   -1020.8993    2646.9097     185106.6    10.472245     1002.253 
   82700   -1180.1992    176.37218   -1003.8271     2734.418    193564.47    10.472245    1003.7202 
   82800    -1196.503    172.03246   -1024.4706    2667.1363    182708.58    10.472245    1003.8133 
   82900   -1196.7576    168.64471   -1028.1129    2614.6137    178920.05    10.472245    1006.9008 
   83000   -1193.2095    176.74594   -1016.4636    2740.2126    183475.79    10.472245     1006.959 
   83100   -1187.2043    172.29973   -1014.9046      2671.28    189684.33    10.472245    1010.9421 
   83200   -1199.5251    169.09685   -1030.4282    2621.6235     178906.9    10.472245    1012.7697 
   83300   -1183.3443    174.69197   -1008.6523    2708.3686    189306.37    10.472245    1014.8493 
   83400   -1186.4465    164.73452    -1021.712    2553.9914    186161.44    10.472245         1016 
   83500   -1188.5283    165.48448   -1023.0438    2565.6185    184429.31    10.472245    1017.1745 
   83600     -1175.39    169.43403   -1005.9559    2626.8511    195950.44    10.472245    1014.1197 
   83700   -1192.2313    166.20697   -1026.0243    2576.8199    183916.17    10.472245    1017.2431 
   83800   -1189.5408    167.28503   -1022.2558    2593.5337    185700.19    10.472245    1019.6013 
   83900    -1180.708    176.40499    -1004.303    2734.9267    192594.89    10.472245     1018.454 
   84000   -1190.3216    168.87058    -1021.451    2618.1155    184667.67    10.472245    1023.2865 
   84100   -1195.2741    168.15888   -1027.1153    2607.0816     182504.2    10.472245    1023.6762 
   84200   -1179.9803    169.10419   -1010.8762    2621.7373    193161.12    10.472245    1023.4742 
   84300   -1194.1004    158.63494   -1035.4655    2459.4255    181503.02    10.472245    1026.2031 
   84400   -1189.5988    163.82766   -1025.7711    2539.9317    185264.14    10.472245    1029.2567 
   84500   -1191.5971    168.84939   -1022.7477    2617.7871    184175.93    10.472245    1028.9006 
   84600   -1195.4771    161.40418    -1034.073    2502.3588    181815.22    10.472245    1029.5845 
   84700   -1177.4721    167.61154   -1009.8605    2598.5957    191394.93    10.472245    1030.5621 
   84800   -1189.4477    169.94926   -1019.4984    2634.8391    184767.59    10.472245    1029.9229 
   84900   -1196.0154    164.27507   -1031.7403    2546.8683    181580.29    10.472245     1031.306 
   85000   -1193.6483    167.35105   -1026.2973    2594.5572    183246.14    10.472245    1031.9082 
   85100   -1179.0673    180.84583   -998.22148    2803.7761    193365.26    10.472245    1035.3233 
   85200   -1180.9088    159.98689   -1020.9219    2480.3857    190343.59    10.472245    1035.2626 
   85300   -1188.9856    168.47366   -1020.5119    2611.9619    186253.18    10.472245    1035.9263 
   85400   -1173.8003    169.31007   -1004.4903    2624.9293    193567.41    10.472245    1040.3355 
   85500   -1189.9483    163.84621   -1026.1021    2540.2193    184268.43    10.472245    1042.1458 
   85600   -1197.5647    175.09416   -1022.4706    2714.6039    181163.58    10.472245    1042.4704 
   85700   -1185.5362    172.08463   -1013.4515    2667.9451    189908.19    10.472245    1040.7239 
   85800   -1200.5535    171.54104   -1029.0125    2659.5175    178771.54    10.472245    1041.5801 
   85900   -1189.3499    176.29514   -1013.0548    2733.2236    185630.75    10.472245    1041.0388 
   86000   -1195.8078    168.13717   -1027.6706     2606.745    181647.88    10.472245    1037.5416 
   86100   -1194.9084    171.42212   -1023.4862    2657.6738    182063.23    10.472245    1042.0273 
   86200   -1184.9871    164.58191   -1020.4052    2551.6254    189793.94    10.472245    1043.7867 
   86300   -1187.5865    144.80051    -1042.786    2244.9409    183823.79    10.472245     1045.544 
   86400   -1188.3592    165.49326    -1022.866    2565.7547    185987.69    10.472245    1042.4978 
   86500   -1188.1367    166.74782   -1021.3889     2585.205    186661.66    10.472245    1043.7707 
   86600   -1185.1729     168.7163   -1016.4566    2615.7237    187939.58    10.472245     1045.781 
   86700   -1193.7935    174.63306   -1019.1605    2707.4552     183951.7    10.472245    1046.7106 
   86800   -1189.9202    157.85038   -1032.0698    2447.2619    183679.85    10.472245    1051.7389 
   86900    -1182.087    173.39917   -1008.6878    2688.3254    190964.79    10.472245     1050.672 
   87000   -1183.2082    156.78174   -1026.4265    2430.6941    187448.12    10.472245    1051.9851 
   87100   -1188.8969    167.33298   -1021.5639    2594.2771    185986.34    10.472245    1051.3103 
   87200   -1187.8623    180.97785   -1006.8844    2805.8228    187095.11    10.472245    1054.3554 
   87300   -1192.1189    169.59187    -1022.527    2629.2982    183375.63    10.472245    1054.7441 
   87400   -1195.6446    166.54192   -1029.1027    2582.0127    180954.83    10.472245    1055.5564 
   87500   -1184.4443     157.8426   -1026.6017    2447.1412     188340.4    10.472245    1057.9609 
   87600   -1184.2024    171.70897   -1012.4934    2662.1211    189648.93    10.472245    1064.5382 
   87700   -1190.0573    165.53826   -1024.5191    2566.4523    185226.32    10.472245    1066.5794 
   87800   -1188.7878    157.69475    -1031.093    2444.8491    184857.61    10.472245    1067.0171 
   87900   -1186.2081    170.38955   -1015.8185    2641.6651    187168.55    10.472245    1065.9947 
   88000   -1194.2188    181.29793   -1012.9208    2810.7852    183768.07    10.472245    1063.9957 
   88100   -1197.3128    165.94807   -1031.3648    2572.8058    179653.36    10.472245    1064.5632 
   88200   -1190.3826    173.17998   -1017.2026    2684.9271    184982.24    10.472245     1065.465 
   88300   -1189.9267    174.39191   -1015.5348    2703.7164    186567.88    10.472245    1071.1808 
   88400   -1195.1965    164.82878   -1030.3677    2555.4527    181191.01    10.472245    1075.2471 
   88500   -1183.1004    171.56467   -1011.5357    2659.8838    188748.34    10.472245    1078.1597 
   88600   -1189.0723    173.31349   -1015.7588     2686.997    186978.97    10.472245    1077.5894 
   88700   -1189.9873    163.38208   -1026.6052    2533.0236    183551.11    10.472245    1079.9937 
   88800   -1187.3794    172.23744    -1015.142    2670.3143    188094.69    10.472245    1079.3211 
   88900   -1181.8898    175.33207   -1006.5577    2718.2924    190376.74    10.472245    1082.2471 
   89000   -1190.3761    165.52823   -1024.8479    2566.2969    183813.19    10.472245    1084.3308 
   89100   -1202.1651    168.67743   -1033.4877     2615.121    176881.86    10.472245    1084.0672 
   89200   -1187.5115    172.10744   -1015.4041    2668.2988    186805.53    10.472245    1083.9995 
   89300   -1187.3272    164.64981   -1022.6773    2552.6781    187667.02    10.472245    1083.9575 
   89400   -1197.5293     170.6827   -1026.8466      2646.21    181632.16    10.472245    1086.4322 
   89500   -1178.6791    168.91395   -1009.7652    2618.7879     193684.4    10.472245    1086.4177 
   89600   -1185.8606    173.61514   -1012.2455    2691.6737    188480.56    10.472245    1089.7199 
   89700    -1189.117    162.06303    -1027.054    2512.5734    183591.21    10.472245    1094.7535 
   89800   -1184.7604     175.9202   -1008.8402    2727.4106    189716.07    10.472245    1096.6011 
   89900   -1188.8193    164.86604   -1023.9533    2556.0304    186346.78    10.472245    1092.6306 
   90000    -1193.696    165.50901    -1028.187    2565.9988    182370.72    10.472245    1090.5262 
   90100   -1186.3945    173.12073   -1013.2738    2684.0086    188564.04    10.472245    1090.6513 
   90200   -1192.1629    178.74199   -1013.4209    2771.1587    185809.11    10.472245    1095.7017 
   90300   -1192.5198    168.53573   -1023.9841    2612.9241    183196.24    10.472245    1094.4161 
   90400    -1187.816    166.06066   -1021.7553    2574.5515    187757.95    10.472245    1096.4654 
   90500   -1185.7568    169.97323   -1015.7835    2635.2107    189498.17    10.472245    1093.4567 
   90600   -1190.4501    159.40628   -1031.0438    2471.3841    184158.65    10.472245    1098.6133 
   90700   -1197.1342    171.94322    -1025.191    2665.7527    180873.22    10.472245    1100.0981 
   90800   -1190.2432    176.15253   -1014.0907    2731.0125     186285.6    10.472245    1101.7728 
   90900    -1200.655    174.02226   -1026.6328    2697.9855    180141.36    10.472245    1102.0426 
   91000   -1204.8601    166.66488   -1038.1952    2583.9191    175779.31    10.472245    1104.5382 
   91100   -1193.2417    173.42551   -1019.8162    2688.7338    182116.55    10.472245    1102.7962 
   91200   -1187.4198    174.85196   -1012.5678    2710.8489     186295.1    10.472245    1100.7325 
   91300   -1197.2091    165.46363   -1031.7455    2565.2953    180162.34    10.472245    1100.9444 
   91400   -1189.2961    175.38966   -1013.9065    2719.1853    185976.75    10.472245    1104.7838 
   91500    -1173.532    158.07889   -1015.4532    2450.8046    192988.88    10.472245    1107.2656 
   91600    -1190.983    167.10444   -1023.8786    2590.7339    183891.32    10.472245    1105.7098 
   91700   -1189.5585    182.58266   -1006.9758    2830.7033    186772.29    10.472245    1107.2247 
   91800   -1188.9267    168.31417   -1020.6125    2609.4892    186028.06    10.472245    1108.6813 
   91900   -1199.2402    172.51882   -1026.7214    2674.6767    180586.16    10.472245    1111.5111 
   92000   -1183.8271    180.89488   -1002.9323    2804.5365    190072.82    10.472245    1116.2359 
   92100   -1189.0042     173.4765   -1015.5277    2689.5243     184417.4    10.472245    1117.7117 
   92200     -1190.99     168.8724   -1022.1176    2618.1438    182164.57    10.472245    1119.9482 
   92300   -1195.1132    160.58943   -1034.5237    2489.7272    180685.58    10.472245    1119.6769 
   92400   -1192.6354    158.70296   -1033.9325    2460.4801    182917.85    10.472245    1123.5241 
   92500   -1189.4848    169.44378    -1020.041    2627.0023    185245.49    10.472245     1125.306 
   92600   -1184.4194    172.02827   -1012.3911    2667.0714     188369.7    10.472245    1126.8373 
   92700   -1197.8753    163.25595   -1034.6193    2531.0682    179004.03    10.472245    1126.0225 
   92800   -1188.3293    167.99299   -1020.3363    2604.5097    184982.93    10.472245    1126.3003 
   92900    -1188.424    166.30665   -1022.1174    2578.3653    184798.98    10.472245    1127.7924 
   93000   -1184.5218    163.14141   -1021.3804    2529.2924    188947.08    10.472245    1127.9759 
   93100   -1198.8387    167.21838   -1031.6203    2592.5004    179712.91    10.472245    1129.6809 
   93200    -1198.026     167.3172   -1030.7088    2594.0325    180662.58    10.472245     1130.347 
   93300   -1185.2532    173.33767   -1011.9156     2687.372    189130.45    10.472245    1130.6233 
   93400    -1187.637    160.99138   -1026.6456     2495.959    185954.48    10.472245    1134.2583 
   93500    -1185.021    160.73547   -1024.2855    2491.9914    186683.02    10.472245    1134.6902 
   93600   -1187.6761    168.73753   -1018.9386    2616.0528    184188.93    10.472245    1135.3809 
   93700   -1193.8991    153.31689   -1040.5822    2376.9761    181216.76    10.472245    1138.4978 
   93800   -1201.6876    179.99777   -1021.6899     2790.628    179522.88    10.472245     1144.424 
   93900   -1188.1579    169.95288    -1018.205    2634.8952     185322.2    10.472245    1146.7499 
   94000   -1191.4128    169.63414   -1021.7787    2629.9535    184203.45    10.472245    1146.7956 
   94100   -1198.0307    166.78562   -1031.2451     2585.791    180205.73    10.472245    1150.7339 
   94200   -1188.0656    173.96073   -1014.1048    2697.0316    187196.59    10.472245    1150.0191 
   94300   -1190.8432    168.95546   -1021.8877    2619.4314    184945.09    10.472245    1151.2264 
   94400   -1194.7922    168.46131   -1026.3309    2611.7704    181894.38    10.472245    1149.0868 
   94500    -1182.229    165.70785   -1016.5211    2569.0815     191144.3    10.472245    1150.0843 
   94600   -1171.0139    172.11785   -998.89609    2668.4603    198189.26    10.472245      1150.51 
   94700   -1186.4363    165.14207   -1021.2942    2560.3099    187773.27    10.472245    1149.3469 
   94800   -1189.7751    165.70535   -1024.0697    2569.0429    186060.57    10.472245    1153.4352 
   94900    -1188.647    160.48472   -1028.1623    2488.1038    185372.03    10.472245    1153.2006 
   95000   -1192.9663    155.91859   -1037.0478     2417.312    182004.08    10.472245    1151.9129 
   95100   -1176.7948     162.8655   -1013.9293    2525.0148     193262.7    10.472245    1149.1889 
   95200   -1192.0777    165.92429   -1026.1534    2572.4373    182501.03    10.472245    1153.0699 
   95300   -1186.3791    168.31979   -1018.0593    2609.5762    187678.05    10.472245    1155.9632 
   95400    -1177.384     166.7019   -1010.6821     2584.493    195428.52    10.472245    1152.8399 
   95500    -1182.259      152.602    -1029.657    2365.8927    188543.38    10.472245    1153.4255 
   95600   -1194.0712    167.38346   -1026.6877    2595.0597    183109.32    10.472245    1154.9868 
   95700   -1188.4334    166.47097   -1021.9624    2580.9128    186950.15    10.472245     1151.997 
   95800    -1185.142    174.84254   -1010.2994    2710.7029       189385    10.472245    1150.7118 
   95900   -1184.0664    161.73618   -1022.3302     2507.506    189546.34    10.472245    1154.4417 
   96000   -1198.2251     164.5708   -1033.6543    2551.4532    178382.93    10.472245    1156.5395 
   96100   -1196.9231    163.10467   -1033.8184    2528.7228    181230.55    10.472245    1157.5885 
   96200   -1186.2673    170.90433    -1015.363    2649.6462    188273.76    10.472245    1162.5113 
   96300   -1189.0827    159.20055   -1029.8822    2468.1945    184079.47    10.472245    1169.9812 
   96400   -1188.9774    161.05056   -1027.9268    2496.8764    185717.91    10.472245    1171.5344 
   96500   -1187.4556     174.1488   -1013.3068    2699.9474    187446.47    10.472245    1175.4139 
   96600   -1192.8597    163.02545   -1029.8342    2527.4946     183034.4    10.472245    1175.7975 
   96700   -1181.9435    171.68106   -1010.2625    2661.6884    190332.79    10.472245    1177.2037 
   96800   -1181.9784    166.77924   -1015.1992    2585.6921    187937.23    10.472245    1183.3193 
   96900   -1188.1157    167.45432   -1020.6614    2596.1583    184991.55    10.472245    1184.9846 
   97000   -1193.8484    173.20593   -1020.6425    2685.3295    184157.96    10.472245    1188.0827 
   97100   -1194.1541    175.05326   -1019.1009    2713.9698    181233.09    10.472245    1192.1152 
   97200    -1186.698    155.64275   -1031.0553    2413.0355    185964.51    10.472245    1193.6174 
   97300   -1186.0808     164.7304   -1021.3504    2553.9276    187065.71    10.472245     1197.925 
   97400   -1181.9781    170.18821   -1011.7899    2638.5437    187874.21    10.472245    1198.6983 
   97500   -1180.3159    164.95682   -1015.3591    2557.4379    189347.59    10.472245    1200.9443 
   97600   -1202.9229    167.30524   -1035.6176     2593.847    177392.73    10.472245    1204.5525 
   97700    -1189.534    168.43488   -1021.0991    2611.3606    185324.62    10.472245    1207.2544 
   97800   -1182.8962    158.97693   -1023.9192    2464.7276    186654.52    10.472245    1208.1876 
   97900   -1188.3581    173.86568   -1014.4924    2695.5579    185948.24    10.472245    1212.6283 
   98000     -1179.19    168.71736   -1010.4727    2615.7402    191213.73    10.472245    1215.5245 
   98100   -1190.0835    162.06099   -1028.0225    2512.5418    184290.55    10.472245    1215.2627 
   98200   -1189.5117    170.75452   -1018.7572    2647.3236    184824.11    10.472245    1212.5769 
   98300    -1175.648     173.5177   -1002.1303     2690.163     195835.9    10.472245      1212.28 
   98400   -1189.3839    166.80806   -1022.5758    2586.1388    185181.08    10.472245    1210.5843 
   98500   -1184.9356    157.45407   -1027.4815    2441.1177    187008.62    10.472245    1214.8647 
   98600   -1183.5162    173.92753   -1009.5886    2696.5169    188733.59    10.472245    1218.3468 
   98700   -1179.0282    158.15206   -1020.8761    2451.9391    190084.18    10.472245    1221.3977 
   98800     -1196.73    172.03781   -1024.6922    2667.2193    182361.06    10.472245    1220.5347 
   98900   -1188.6632    178.84706   -1009.8162    2772.7877    187238.87    10.472245    1223.5502 
   99000   -1192.4131    165.43389   -1026.9792    2564.8342    181025.93    10.472245    1220.3246 
   99100    -1197.774    166.30811   -1031.4659    2578.3879    180325.51    10.472245    1220.8969 
   99200    -1182.352     174.0665   -1008.2855    2698.6714    188043.75    10.472245     1221.688 
   99300   -1191.1621    172.33195   -1018.8302    2671.7796    185335.26    10.472245    1221.8996 
   99400   -1186.2208    159.19803   -1027.0228    2468.1554    184703.55    10.472245    1226.9893 
   99500   -1192.5226    170.90729   -1021.6153     2649.692    183000.36    10.472245    1227.1552 
   99600   -1184.0011     165.7807   -1018.2204    2570.2111    187460.39    10.472245    1228.6711 
   99700   -1181.0907    174.60261   -1006.4881    2706.9831    190416.32    10.472245    1231.8635 
   99800   -1198.8788    168.82927   -1030.0495    2617.4752    179133.89    10.472245    1236.7827 
   99900   -1190.9465    170.17746    -1020.769    2638.3771     184314.2    10.472245    1237.5058 
  100000   -1186.5101    168.97421   -1017.5359    2619.7223    187598.41    10.472245    1237.4821 
Loop time of 145.575 on 1 procs for 100000 steps with 500 atoms

Performance: 296.755 ns/day, 0.081 hours/ns, 686.933 timesteps/s
100.0% CPU use with 1 MPI tasks x no OpenMP threads

MPI task timing breakdown:
Section |  min time  |  avg time  |  max time  |%varavg| %total
---------------------------------------------------------------
Pair    | 86.388     | 86.388     | 86.388     |   0.0 | 59.34
Neigh   | 8.2526     | 8.2526     | 8.2526     |   0.0 |  5.67
Comm    | 1.3241     | 1.3241     | 1.3241     |   0.0 |  0.91
Output  | 0.036192   | 0.036192   | 0.036192   |   0.0 |  0.02
Modify  | 49.319     | 49.319     | 49.319     |   0.0 | 33.88
Other   |            | 0.2554     |            |       |  0.18

Nlocal:    500 ave 500 max 500 min
Histogram: 1 0 0 0 0 0 0 0 0 0
Nghost:    2114 ave 2114 max 2114 min
Histogram: 1 0 0 0 0 0 0 0 0 0
Neighs:    26227 ave 26227 max 26227 min
Histogram: 1 0 0 0 0 0 0 0 0 0

Total # of neighbors = 26227
Ave neighs/atom = 52.454
Neighbor list builds = 7570
Dangerous builds = 160
    
Total wall time: 0:02:25
