LAMMPS (3 Mar 2020)
Reading data file ...
  orthogonal box = (0 0 0) to (16.36 16.36 16.36)
  1 by 1 by 1 MPI processor grid
  reading atoms ...
  256 atoms
  read_data CPU = 0.00101536 secs
Reading potential file /usr/share/lammps-stable/potentials/Ag_u3.eam with DATE: 2007-06-11
Neighbor list info ...
  update every 1 steps, delay 10 steps, check yes
  max neighbors/atom: 2000, page size: 100000
  master list distance cutoff = 7.55
  ghost atom cutoff = 7.55
  binsize = 3.775, bins = 5 5 5
  2 neighbor lists, perpetual/occasional/extra = 1 1 0
  (1) pair eam, perpetual
      attributes: half, newton on
      pair build: half/bin/atomonly/newton
      stencil: half/bin/3d/newton
      bin: standard
  (2) compute rdf, occasional, copy from (1)
      attributes: half, newton on
      pair build: copy
      stencil: none
      bin: none
Setting up Verlet run ...
  Unit style    : metal
  Current step  : 0
  Time step     : 0.001
Per MPI rank memory allocation (min/avg/max) = 3.744 | 3.744 | 3.744 Mbytes
Step PotEng KinEng TotEng Temp Press Density c_msdall[4] 
       0       -729.6    42.190511   -687.40949         1280    10291.568    10.472245            0 
     100   -704.28515    26.151967   -678.13318    793.41341     42766.01    10.472245  0.074033711 
     200   -694.62964    38.114594   -656.51505    1156.3425    60101.193    10.472245  0.096672495 
     300   -682.83915    44.529114   -638.31003    1350.9499    76169.845    10.472245   0.12823741 
     400   -680.93883    43.249682   -637.68915    1312.1337    79336.866    10.472245   0.12313537 
     500   -691.51413    40.867836    -650.6463    1239.8719    64334.604    10.472245  0.089646402 
     600   -691.63642    40.134492   -651.50193    1217.6233    64300.417    10.472245  0.084358629 
     700   -688.11416    46.485491   -641.62867    1410.3036    70825.256    10.472245  0.095096411 
     800   -686.48464    40.348864   -646.13578     1224.127    71183.852    10.472245   0.11613573 
     900   -688.86839    44.523132   -644.34526    1350.7684    68667.309    10.472245   0.11883203 
    1000   -685.85394    44.773178   -641.08076    1358.3544    74167.494    10.472245    0.1165547 
    1100   -688.90039    43.318856   -645.58153    1314.2324    69070.905    10.472245  0.094612285 
    1200   -688.55915    40.235101   -648.32405    1220.6756    68568.561    10.472245  0.096711639 
    1300   -685.15462    41.401802   -643.75282    1256.0717    73743.303    10.472245   0.10570607 
    1400    -681.6283    44.030489   -637.59781    1335.8223    79275.817    10.472245   0.11737749 
    1500    -687.4888    43.925999    -643.5628    1332.6522    71705.785    10.472245   0.10220228 
    1600    -692.2999    44.101345   -648.19855     1337.972    64763.779    10.472245  0.078700165 
    1700   -690.52937     42.33984   -648.18953    1284.5304     66570.08    10.472245  0.087498323 
    1800   -686.58606    41.812593   -644.77347    1268.5345    72222.236    10.472245  0.099643333 
    1900   -685.24603    44.151308   -641.09473    1339.4878    74820.717    10.472245  0.096293572 
    2000   -688.77488    39.857289   -648.91759    1209.2134    69723.745    10.472245  0.086177569 
    2100   -688.74215    39.884634   -648.85752     1210.043    69165.749    10.472245  0.087167821 
    2200   -685.32522    43.225863   -642.09935    1311.4111    73878.912    10.472245   0.10020593 
    2300   -685.62634    44.348771   -641.27756    1345.4785    74364.514    10.472245   0.10001905 
    2400   -687.43773    40.427608   -647.01012     1226.516    71088.915    10.472245  0.097524567 
    2500   -688.78516    45.122745   -643.66242    1368.9598    70320.366    10.472245  0.085550313 
    2600   -691.02178      44.1954   -646.82638    1340.8255     65979.01    10.472245  0.085611299 
    2700   -689.06203    42.055006   -647.00702     1275.889    68923.428    10.472245  0.094776959 
    2800   -687.75998    44.629666   -643.13032    1354.0005    71076.275    10.472245  0.096213755 
    2900   -688.60598    42.406838   -646.19914     1286.563    69022.754    10.472245  0.095631528 
    3000   -685.03322    42.397023    -642.6362    1286.2653     74158.92    10.472245  0.099932975 
    3100   -686.85073    41.820384   -645.03035    1268.7709    71731.751    10.472245   0.10259046 
    3200   -691.44381    46.106276   -645.33753    1398.7987     66686.27    10.472245  0.097733535 
    3300   -689.24145    41.822544   -647.41891    1268.8364    68968.628    10.472245    0.1009575 
    3400   -686.39845    43.627864   -642.77059    1323.6072    73162.151    10.472245  0.093024735 
    3500    -692.3035    41.745266   -650.55824    1266.4919    64478.641    10.472245  0.081237294 
    3600   -692.81395    44.229833   -648.58411    1341.8701    64682.212    10.472245  0.077773814 
    3700   -688.49956     41.62943   -646.87013    1262.9776     69296.71    10.472245  0.097623542 
    3800   -684.81558     40.93989   -643.87569    1242.0579    74336.627    10.472245    0.1077739 
    3900   -688.09843    44.631576   -643.46685    1354.0584     70870.97    10.472245  0.098950274 
    4000   -690.14847    43.731649   -646.41682    1326.7559    67378.856    10.472245  0.092267056 
    4100   -685.89368    41.564667   -644.32902    1261.0128    72456.806    10.472245  0.098797619 
    4200   -685.69448    41.481409   -644.21307    1258.4869    72940.174    10.472245   0.10750488 
    4300     -691.868    46.755059   -645.11294    1418.4819    66335.174    10.472245  0.092177034 
    4400   -686.46816    40.262065    -646.2061    1221.4937    71361.306    10.472245   0.10113343 
    4500   -686.80658    45.734477    -641.0721    1387.5189    72148.738    10.472245  0.099426822 
    4600   -689.74148    44.338725   -645.40275    1345.1737    67953.488    10.472245   0.10015571 
    4700   -691.40698    47.180547   -644.22643    1431.3906    66921.962    10.472245  0.097090599 
    4800   -689.18477    45.481535   -643.70324     1379.845    69029.718    10.472245  0.097923325 
    4900   -687.74902    42.085559   -645.66346    1276.8159    70620.928    10.472245   0.10410209 
    5000   -690.59437     42.35926   -648.23511    1285.1196    66379.224    10.472245  0.089813807 
    5100   -689.46025    41.670526   -647.78972    1264.2244    68112.857    10.472245  0.093556365 
    5200   -685.69871    43.144143   -642.55457    1308.9318    73057.493    10.472245   0.11392252 
    5300   -686.32919    44.465077   -641.86411    1349.0071    72500.153    10.472245   0.10811213 
    5400   -689.43729    41.563715   -647.87357    1260.9839    69078.468    10.472245  0.094077075 
    5500    -688.4383    42.021312   -646.41699    1274.8667    70107.826    10.472245  0.087476496 
    5600   -684.13587    44.477501   -639.65837     1349.384    75668.578    10.472245  0.097733516 
    5700   -690.63182    43.559308   -647.07251    1321.5273     67187.67    10.472245  0.098620819 
    5800   -688.84938    42.978262   -645.87112    1303.8992    69117.002    10.472245  0.099409177 
    5900   -685.75908    41.602395   -644.15668    1262.1574    72906.511    10.472245  0.098372361 
    6000   -687.29923    39.932513   -647.36672    1211.4956    70553.664    10.472245  0.096396824 
    6100   -688.47164    42.835017   -645.63663    1299.5534    69681.507    10.472245  0.096048367 
    6200   -686.35708    43.188436   -643.16865    1310.2756    72565.909    10.472245  0.098540626 
    6300   -685.59846    41.017731   -644.58073    1244.4195    74307.716    10.472245  0.098226857 
    6400   -689.00712    42.206963   -646.80016    1280.4991      68390.8    10.472245  0.087335915 
    6500   -691.20597    42.655544   -648.55042    1294.1084    66409.503    10.472245  0.086955889 
    6600   -691.83924    38.620322   -653.21892    1171.6855    64093.254    10.472245  0.097078761 
    6700    -686.9822    41.344809   -645.63739    1254.3426    71093.256    10.472245     0.102812 
    6800   -684.23163    42.513286   -641.71835    1289.7925    75048.659    10.472245    0.1119413 
    6900   -686.09538    42.705205   -643.39017    1295.6151     73443.66    10.472245   0.11089001 
    7000   -687.88564    42.891914   -644.99372    1301.2796    69625.238    10.472245   0.10769281 
    7100   -688.17767    40.267413   -647.91025    1221.6559    68870.958    10.472245   0.10624324 
    7200   -689.10227    40.416225   -648.68604    1226.1707    68026.514    10.472245   0.10201952 
    7300   -684.36934    42.006382   -642.36295    1274.4138    75566.825    10.472245   0.10721459 
    7400   -687.43161    40.765501   -646.66611    1236.7672    70409.473    10.472245   0.10214981 
    7500   -689.02023    39.145309   -649.87492    1187.6129    67655.277    10.472245   0.10203792 
    7600   -685.43406     40.23014   -645.20392    1220.5251    73052.871    10.472245   0.10835569 
    7700   -688.53571    44.846019   -643.68969    1360.5643    70439.966    10.472245  0.093935099 
    7800   -689.38684     42.27566   -647.11118    1282.5833    68960.915    10.472245  0.094573678 
    7900   -686.78142    40.505257   -646.27617    1228.8718    70254.101    10.472245   0.11246473 
    8000   -682.23303    42.763507   -639.46952    1297.3839    78662.005    10.472245   0.12882747 
    8100   -686.22382    45.587201   -640.63662    1383.0507     73887.92    10.472245   0.11881189 
    8200   -691.11724    41.946404   -649.17084    1272.5941    66133.669    10.472245  0.090849918 
    8300   -688.90374    40.570499   -648.33324    1230.8511    67904.198    10.472245  0.094586629 
    8400   -686.09233    43.099074   -642.99326    1307.5645    73091.705    10.472245   0.10725128 
    8500   -686.90435    43.244572   -643.65978    1311.9787    71533.932    10.472245   0.11107412 
    8600   -688.80188     37.90463   -650.89725    1149.9725    67956.391    10.472245   0.10077513 
    8700   -687.62019    40.810983    -646.8092    1238.1471    69905.665    10.472245  0.094580158 
    8800   -686.62853    46.248585   -640.37995    1403.1162    73023.549    10.472245    0.1003726 
    8900   -682.90454    47.218836   -635.68571    1432.5522    78633.584    10.472245   0.10913542 
    9000   -691.25921    47.066701   -644.19251    1427.9366    67419.381    10.472245  0.093800579 
    9100   -688.46292    41.237168   -647.22575    1251.0769    68811.231    10.472245   0.10231446 
    9200   -687.11508    42.992694   -644.12238    1304.3371     71047.55    10.472245   0.10161869 
    9300   -690.84613      40.3841   -650.46203    1225.1961    66434.238    10.472245  0.097428092 
    9400   -693.04927    44.566879   -648.48239    1352.0956    63711.063    10.472245  0.083326873 
    9500   -686.47396    40.223288   -646.25067    1220.3173    72249.438    10.472245   0.10227846 
    9600   -686.42009    43.004067   -643.41602    1304.6821    72405.925    10.472245   0.10587346 
    9700   -689.13101    40.804006   -648.32701    1237.9354    68858.372    10.472245   0.10084337 
    9800   -690.87189    43.373015   -647.49888    1315.8755    66077.232    10.472245   0.09324264 
    9900   -689.34568    42.986847   -646.35883    1304.1597    68605.974    10.472245  0.094693407 
   10000   -686.95545    43.871094   -643.08436    1330.9865    71408.157    10.472245    0.1108111 
Loop time of 6.59301 on 1 procs for 10000 steps with 256 atoms

Performance: 131.048 ns/day, 0.183 hours/ns, 1516.758 timesteps/s
100.0% CPU use with 1 MPI tasks x no OpenMP threads

MPI task timing breakdown:
Section |  min time  |  avg time  |  max time  |%varavg| %total
---------------------------------------------------------------
Pair    | 4.1653     | 4.1653     | 4.1653     |   0.0 | 63.18
Neigh   | 0.031096   | 0.031096   | 0.031096   |   0.0 |  0.47
Comm    | 0.064255   | 0.064255   | 0.064255   |   0.0 |  0.97
Output  | 0.0027954  | 0.0027954  | 0.0027954  |   0.0 |  0.04
Modify  | 2.3131     | 2.3131     | 2.3131     |   0.0 | 35.08
Other   |            | 0.01645    |            |       |  0.25

Nlocal:    256 ave 256 max 256 min
Histogram: 1 0 0 0 0 0 0 0 0 0
Nghost:    1431 ave 1431 max 1431 min
Histogram: 1 0 0 0 0 0 0 0 0 0
Neighs:    13000 ave 13000 max 13000 min
Histogram: 1 0 0 0 0 0 0 0 0 0

Total # of neighbors = 13000
Ave neighs/atom = 50.7812
Neighbor list builds = 55
Dangerous builds = 0
Total wall time: 0:00:06
