LAMMPS (3 Mar 2020)
Reading data file ...
  orthogonal box = (0 0 0) to (17.469 17.469 17.469)
  1 by 1 by 1 MPI processor grid
  reading atoms ...
  217 atoms
  read_data CPU = 0.00107722 secs
Reading potential file library.meam with DATE: 2012-06-29
Reading potential file LiSi.meam with DATE: 2020-11-07
1 atoms in group Li
216 atoms in group Si
Neighbor list info ...
  update every 1 steps, delay 10 steps, check yes
  max neighbors/atom: 2000, page size: 100000
  master list distance cutoff = 6
  ghost atom cutoff = 6
  binsize = 3, bins = 6 6 6
  2 neighbor lists, perpetual/occasional/extra = 2 0 0
  (1) pair meam/c, perpetual
      attributes: full, newton on
      pair build: full/bin/atomonly
      stencil: full/bin/3d
      bin: standard
  (2) pair meam/c, perpetual, half/full from (1)
      attributes: half, newton on
      pair build: halffull/newton
      stencil: none
      bin: none
Setting up Verlet run ...
  Unit style    : metal
  Current step  : 0
  Time step     : 0.003
Per MPI rank memory allocation (min/avg/max) = 8.895 | 8.895 | 8.895 Mbytes
Step Temp E_pair E_mol TotEng Press Volume 
       0         1500   -951.04357            0   -909.16328   -115839.99    5330.9442 
    3200    1605.3074   -951.34425            0   -906.52376    3346.4516    4590.9507 
Loop time of 2.30393 on 1 procs for 3200 steps with 217 atoms

Performance: 360.011 ns/day, 0.067 hours/ns, 1388.930 timesteps/s
100.0% CPU use with 1 MPI tasks x no OpenMP threads

MPI task timing breakdown:
Section |  min time  |  avg time  |  max time  |%varavg| %total
---------------------------------------------------------------
Pair    | 2.2432     | 2.2432     | 2.2432     |   0.0 | 97.37
Neigh   | 0.012471   | 0.012471   | 0.012471   |   0.0 |  0.54
Comm    | 0.01384    | 0.01384    | 0.01384    |   0.0 |  0.60
Output  | 2.5639e-05 | 2.5639e-05 | 2.5639e-05 |   0.0 |  0.00
Modify  | 0.029552   | 0.029552   | 0.029552   |   0.0 |  1.28
Other   |            | 0.004803   |            |       |  0.21

Nlocal:    217 ave 217 max 217 min
Histogram: 1 0 0 0 0 0 0 0 0 0
Nghost:    957 ave 957 max 957 min
Histogram: 1 0 0 0 0 0 0 0 0 0
Neighs:    4254 ave 4254 max 4254 min
Histogram: 1 0 0 0 0 0 0 0 0 0
FullNghs:  8508 ave 8508 max 8508 min
Histogram: 1 0 0 0 0 0 0 0 0 0

Total # of neighbors = 8508
Ave neighs/atom = 39.2074
Neighbor list builds = 21
Dangerous builds = 0
Setting up Verlet run ...
  Unit style    : metal
  Current step  : 3200
  Time step     : 0.003
Per MPI rank memory allocation (min/avg/max) = 9.665 | 9.665 | 9.665 Mbytes
Step PotEng KinEng TotEng Temp Press Density c_msdli[4] c_msdsi[4] 
    3200   -951.34425    44.820491   -906.52376    1605.3074    3346.4516    2.1967799            0 8.4559024e-32 
    3300   -951.92187    45.126555   -906.79532    1616.2696   -9273.7939      2.16278   0.27762395  0.096418394 
    3400   -952.81142    38.860064   -913.95135    1391.8266   -3498.7806    2.1836765  0.053277534   0.11415346 
    3500   -952.32878    43.342944   -908.98583    1552.3871    6572.4976    2.2074131  0.095382742   0.10935622 
    3600   -949.79596    42.898801   -906.89716    1536.4795    6328.9688    2.1997586   0.11099942   0.10975783 
    3700   -955.20818    40.852362   -914.35582    1463.1835   -7504.2506    2.1780836  0.037326898  0.085121244 
    3800   -950.86331    38.633965   -912.22935    1383.7285   -8372.9259    2.1663454   0.11502516   0.10846206 
    3900   -949.91661    42.545758   -907.37085    1523.8348    4351.7311    2.1942478  0.021036343   0.11666668 
    4000   -952.15857    41.974527   -910.18404    1503.3753    10058.998     2.209802 0.0035259646   0.10967136 
    4100   -953.85119    37.477883   -916.37331    1342.3219    -1675.341    2.1910546   0.15997539  0.087703299 
    4200   -948.20794     40.63571   -907.57223    1455.4238   -10354.328    2.1513243  0.061010158   0.10686276 
    4300   -951.86105    43.185926   -908.67512    1546.7633    247.26385     2.186642   0.43848363  0.098710712 
    4400   -953.50865    41.857689   -911.65096    1499.1906    12877.374    2.2220228   0.25141077   0.10119165 
    4500    -950.4919    47.477266   -903.01463    1700.4635    -952.4923    2.1795034   0.23424871   0.10487108 
    4600   -948.72529    42.154287   -906.57101    1509.8137   -8435.3204    2.1612535   0.23817123  0.098874631 
    4700   -952.96909    42.117097   -910.85199    1508.4817   -4484.1318    2.1814146   0.14127837    0.1106658 
    4800   -952.35257    43.738875    -908.6137    1566.5679    8460.2231    2.2079072   0.11143443   0.11198639 
    4900   -949.19487    47.103171    -902.0917    1687.0647    1895.1177    2.1860018   0.31163707   0.13129823 
    5000   -950.92126    40.762065    -910.1592    1459.9493   -6121.0823    2.1733573   0.25184166   0.10046803 
    5100   -950.85809     40.91686   -909.94123    1465.4935   -3987.7991    2.1777242  0.028191333  0.099721295 
    5200   -949.01198    45.966201   -903.04578    1646.3426    5198.3464    2.1943304   0.26163447    0.1130965 
    5300   -949.37593     41.41912   -907.95681    1483.4827    6702.1745    2.2000008  0.077261793    0.1221728 
    5400   -954.08367    43.204907   -910.87876    1547.4431    -7945.635    2.1756411   0.17867859   0.10614529 
    5500   -949.70852    41.957135   -907.75139    1502.7524   -6719.5302    2.1685018   0.14116851  0.097081648 
    5600   -947.69515     45.19171   -902.50344    1618.6031    3690.9538    2.1887767   0.10087394    0.1009789 
    5700    -951.0307    39.582701     -911.448    1417.7088     7936.185    2.2090279  0.022445692   0.10417442 
    5800   -951.45645    40.831739   -910.62471    1462.4448   -6668.7445    2.1711547  0.067585427   0.12461493 
    5900   -948.06998    39.574851   -908.49513    1417.4276   -5793.6093    2.1648328   0.11472563   0.11781234 
    6000   -948.56427    42.821229   -905.74304    1533.7011    4955.3983    2.1932446  0.077406765   0.10607199 
    6100   -945.38483     49.19356   -896.19127    1761.9349         5516    2.1872854   0.12682775   0.12296733 
    6200   -948.46853    42.873533   -905.59499    1535.5745    269.66538    2.1837165   0.14729675   0.11268783 
    6300   -950.72374    41.880043    -908.8437    1499.9913   -7497.0438    2.1682934   0.16650154   0.11744929 
    6400   -952.96328    42.801368   -910.16191    1532.9898   -3006.0693    2.1826573   0.15463991   0.10938082 
    6500   -953.22807    40.456372    -912.7717    1449.0005    7036.6126    2.2127037   0.23132341  0.095112795 
    6600   -956.44929    36.894284   -919.55501    1321.4194    5819.4786    2.2183489   0.10963972   0.10134498 
    6700   -951.27532    39.593725   -911.68159    1418.1036   -6962.7196    2.1708855  0.011055468    0.1099346 
    6800   -951.75521    42.295545   -909.45967     1514.873   -7453.3733    2.1691764   0.15638299    0.1158571 
    6900   -949.99087    43.466626   -906.52425    1556.8169     6926.536    2.2010122  0.090581477   0.10832576 
    7000   -952.91947    38.644368    -914.2751    1384.1011    8910.1438    2.2154755  0.064908068   0.11314197 
    7100   -952.20371    39.573281   -912.63043    1417.3714   -3907.1259    2.1809954  0.077079841   0.11127292 
    7200   -949.43179    40.970748   -908.46104    1467.4236   -5655.5722    2.1707328   0.17274843   0.12346949 
    7300   -953.50282    45.215626    -908.2872    1619.4598    155.54326    2.1940412   0.33054258   0.11509368 
    7400   -956.80596     40.45175   -916.35421     1448.835    6024.4223    2.2176495   0.11848311  0.095958868 
    7500   -952.38159    43.391121   -908.99047    1554.1126   -2573.5719    2.1825207  0.049089135   0.10533771 
    7600   -948.72346    40.543434   -908.18003    1452.1188   -3522.9977    2.1774929  0.060956327   0.11968166 
    7700     -953.559    41.400524   -912.15847    1482.8166   -17.222418    2.1920551  0.090646307   0.11281514 
    7800   -955.29425    39.575767   -915.71848    1417.4604    4166.7908    2.2074237   0.14010261   0.11037603 
    7900   -949.02062    41.699489   -907.32113    1493.5245    1407.0923     2.183046  0.060398781   0.10589952 
    8000   -952.23158    43.062609   -909.16897    1542.3465   -2220.5027    2.1832893  0.070323044   0.10053552 
    8100   -953.23052    40.456994   -912.77352    1449.0228     1158.458    2.1961277   0.12027919   0.11543937 
    8200   -956.45419    37.968769   -918.48543    1359.9036    1880.8854    2.2083235  0.071461915   0.11544282 
    8300    -950.1362    40.581599    -909.5546    1453.4857   -2540.5386    2.1813338   0.29881786   0.12503768 
    8400   -953.48626    44.271285   -909.21497    1585.6369   -214.62785    2.1901399   0.16395728   0.10508249 
    8500   -949.26988    40.433906   -908.83597    1448.1959    3964.1743    2.1982934  0.026287708   0.11181265 
    8600   -952.59833    41.852989   -910.74534    1499.0223   -111.53186    2.1913287   0.12718984   0.11316556 
    8700   -954.90048    36.870938   -918.02954    1320.5833    339.91265    2.1991565  0.061434032   0.11601277 
    8800   -950.16763    39.299199   -910.86843    1407.5548   -1761.8611    2.1842311    0.1326616   0.11602379 
    8900   -951.84841    43.259719   -908.58869    1549.4062    200.12389    2.1856204  0.095474161  0.096535564 
    9000   -948.99784    41.543912   -907.45393    1487.9523    4614.7123    2.1939662   0.10345673   0.11026031 
    9100   -955.10405    38.593344    -916.5107    1382.2736    3031.0588    2.2038529   0.10199302  0.099430037 
    9200   -949.26794    37.938321   -911.32962    1358.8131   -6921.1337    2.1673762  0.065617678   0.11407954 
    9300   -950.12574    41.653013   -908.47273    1491.8599   -3550.4632     2.175871   0.22797339   0.12876514 
    9400   -949.06507    40.444035   -908.62104    1448.5587    9516.2995    2.2049409  0.091131822     0.116978 
    9500   -956.96697    39.817919   -917.14905    1426.1335    7883.4365    2.2204566   0.10124712   0.11314218 
    9600   -952.95269    43.036218   -909.91647    1541.4012   -10137.026    2.1655012  0.034832422   0.11775486 
    9700   -950.00541    41.252242   -908.75317    1477.5057   -6681.6913    2.1656507   0.04253621   0.10864928 
    9800   -951.94329    42.486066   -909.45722    1521.6968    4601.5974    2.1991991  0.077105701   0.10973502 
    9900   -954.85985    37.503285   -917.35657    1343.2317    10681.248    2.2228788  0.035947878  0.098233346 
   10000   -950.08682    39.971752   -910.11507    1431.6432   -4653.4233    2.1751634   0.12620317    0.1076278 
   10100   -947.78849     38.89393   -908.89456    1393.0395   -3626.8711    2.1685499  0.016633138   0.10109315 
   10200   -952.73304    43.842982   -908.89006    1570.2966    2768.5651    2.1926308   0.14068109   0.10737103 
   10300   -954.30157    37.735399   -916.56617    1351.5451    6050.6719    2.2091407  0.027598884  0.093572165 
   10400   -951.88746    39.715093   -912.17236    1422.4506    -2187.758    2.1813981   0.09675151    0.1039012 
   10500   -950.92524    41.966669   -908.95857    1503.0939   -2500.4958    2.1779212  0.025959936   0.12206129 
   10600   -948.71698    40.083196   -908.63378    1435.6347    3605.4009    2.1910413   0.26070696   0.11053751 
   10700   -955.85644    40.502189   -915.35425    1450.6415    660.62235    2.2014254  0.019179953   0.11643858 
   10800   -954.30758    40.470951   -913.83663    1449.5227   -3648.3354    2.1877804  0.056139655   0.10453056 
   10900   -948.98774    40.042752   -908.94499    1434.1862   -1376.7354    2.1830065   0.12757375   0.11368463 
   11000   -948.66272    39.932754   -908.72997    1430.2464    3894.7053    2.1922149  0.072509301    0.1121463 
   11100   -954.49826    39.100551    -915.3977    1400.4399    2805.2325    2.2052762  0.067781233   0.10410512 
   11200   -954.38389    40.778125   -913.60577    1460.5246   -3642.0426     2.186544    0.1278859    0.1003142 
   11300   -952.03193    42.978673   -909.05326    1539.3402   -2822.5413    2.1809938   0.20395023   0.10503309 
   11400   -951.41147    42.666974    -908.7445    1528.1763    1811.0491    2.1928127  0.065552513   0.11809633 
   11500   -952.99111     37.91056   -915.08055    1357.8188    3624.1384    2.2040617   0.18242835   0.11145974 
   11600   -955.98285    42.053023   -913.92983    1506.1868   -1979.9643    2.1921888  0.089628234   0.11879338 
   11700   -948.40065    39.475565   -908.92509    1413.8716    324.57184    2.1858343   0.11180722   0.12537854 
   11800   -949.55594    40.533605   -909.02234    1451.7667    1386.2346    2.1876487   0.25240876   0.11220404 
   11900   -954.67465    39.666522   -915.00813     1420.711   -767.65389    2.1969623  0.036020633   0.11427158 
   12000   -951.51284    37.155339    -914.3575    1330.7695    1820.9061    2.1952509  0.074974056   0.10574927 
   12100   -949.97272    40.931857   -909.04086    1466.0307    2284.8704    2.1917747  0.033483496   0.11352777 
   12200    -949.9189    41.180706   -908.73819    1474.9435     551.8411    2.1875148   0.14540212   0.10757785 
   12300   -952.17959    38.324676   -913.85491    1372.6509   -2554.3305    2.1874608   0.28300995   0.10349645 
   12400    -956.6999    41.806931   -914.89297    1497.3726   -1245.6832    2.1949105  0.048555666   0.09654507 
   12500   -952.94563    44.289659   -908.65597     1586.295    2989.6184    2.1958516  0.063750716   0.10571714 
   12600   -955.83988    46.854605   -908.98528     1678.162   -3656.2417    2.1876022  0.085465252   0.11427057 
   12700   -951.95287    37.772381   -914.18049    1352.8697   -5290.3683    2.1775871   0.11912205   0.11400957 
   12800    -954.9879    40.414155   -914.57374    1447.4885   -2862.2288    2.1862288  0.099500078   0.11027395 
   12900   -949.96043    41.633377   -908.32705    1491.1566    7918.2401     2.205367  0.099447453   0.10625611 
   13000   -949.93327    41.232452   -908.70082    1476.7969    5149.4233    2.1969109   0.17424781   0.10293529 
   13100   -951.34719    37.971024   -913.37616    1359.9844   -8158.5042    2.1676252   0.36528601  0.094721039 
   13200   -948.72709    32.962802   -915.76428     1180.608    -3362.148    2.1805533    0.1993864    0.1100154 
   13300   -952.41935    43.717731   -908.70162    1565.8106    6025.9853    2.2084045   0.16551559   0.12153016 
   13400   -951.77743    43.282925   -908.49451    1550.2374    5425.9761    2.2028257   0.14182216  0.097973792 
   13500   -952.91248    41.087133   -911.82535    1471.5921   -6864.3434    2.1717076   0.19285629  0.097378799 
   13600   -953.93718    35.726964   -918.21021    1279.6103   -5685.7737    2.1857087  0.085494628  0.098556187 
   13700   -949.62158    39.659948   -909.96163    1420.4755     2870.635    2.1941916  0.099988675   0.11281712 
   13800   -949.55573    41.006686   -908.54904    1468.7108    6393.9599    2.2022163 0.0038121277   0.12779784 
   13900   -953.06462    42.189471   -910.87515    1511.0739   -2169.5288    2.1868302   0.14617157   0.10621455 
   14000   -958.51527    39.910919   -918.60435    1429.4644   -4663.9882    2.1906666  0.058949735     0.094967 
   14100   -953.18471    42.418903   -910.76581    1519.2913   -3221.0175    2.1831019  0.044322099   0.10967082 
   14200   -954.09205    45.350069   -908.74198     1624.275    751.90616    2.1907853   0.28088983   0.10833595 
   14300   -953.81385     44.40854   -909.40531    1590.5529    44.339715    2.1908683   0.25839161   0.10628904 
   14400   -956.36351    38.486067   -917.87744    1378.4314   -1687.0319    2.1981594  0.025349995   0.10755052 
   14500   -953.48074     42.18084    -911.2999    1510.7647   -5037.8374    2.1811115   0.30936202   0.10356891 
   14600    -952.0122    43.520619   -908.49158    1558.7507    929.35549    2.1909759    0.2367764   0.10533238 
   14700    -951.6188    42.172318   -909.44648    1510.4595    1741.9124    2.1961752 0.0077801614   0.13034227 
   14800   -955.76478    38.020687   -917.74409    1361.7631    201.19805    2.2014736   0.04873114   0.10464253 
   14900    -950.9652    40.463421   -910.50178     1449.253    -5293.224      2.17481   0.07801676   0.11864696 
   15000   -949.55502    41.085835   -908.46918    1471.5456    2035.4396    2.1877403   0.11295324   0.12272712 
   15100   -948.54698     38.96322   -909.58376    1395.5212    9323.1892    2.2062709  0.045827528   0.12114875 
   15200   -956.58227    38.974217   -917.60805    1395.9151    1166.1804    2.2059214   0.32741057   0.11770575 
   15300   -951.33475     41.95999   -909.37476    1502.8547   -12985.884    2.1561481  0.074231088   0.11343025 
   15400    -950.8399    42.014398    -908.8255    1504.8034   -3854.8148    2.1776593  0.061439681   0.11387351 
   15500   -951.44367    43.022049   -908.42162    1540.8938    14547.846    2.2232943   0.11718847   0.11842953 
   15600   -955.19508    39.206262   -915.98882    1404.2261    5680.9294      2.21377   0.09539772   0.11145185 
   15700   -953.59787    40.011831   -913.58604    1433.0787   -12562.833    2.1606555  0.014139551   0.10125358 
   15800   -948.96262    39.281145   -909.68148    1406.9082   -5042.6139    2.1711201    0.1059713   0.11177801 
   15900   -949.94207    41.749422   -908.19265    1495.3129    7480.8456    2.2007149  0.042941615   0.11812373 
   16000   -952.56492    39.834807   -912.73012    1426.7383    4391.5558    2.2022853   0.18555153   0.11786497 
   16100   -955.93132    40.066578   -915.86474    1435.0395    -2707.009    2.1933244   0.15455212   0.11075651 
   16200   -952.30674    43.203232   -909.10351    1547.3831   -4873.0727    2.1756638   0.16385462   0.11062552 
   16300   -949.14652     40.48649   -908.66003    1450.0793     657.9548    2.1840906  0.052759371   0.11072979 
   16400    -953.4831    39.391185   -914.09192    1410.8494    4501.1296    2.2026879     0.233348   0.10384938 
   16500   -955.80638    41.062278    -914.7441    1470.7019    917.77168    2.2006754  0.056769047   0.10540496 
   16600   -952.55203    43.595559   -908.95647    1561.4348   -5056.1495    2.1771595   0.10857186   0.11586043 
   16700   -950.61739    41.483491    -909.1339    1485.7882   -4518.7464     2.175678  0.030263866   0.10085088 
   16800   -955.41104    40.643774   -914.76726    1455.7126    1073.5265    2.1989883   0.10945679   0.10349092 
   16900   -954.51747    40.243289   -914.27418    1441.3687    6438.9985    2.2106911 0.0004532641    0.1115124 
   17000   -952.71586    44.192345   -908.52351    1582.8095    34.232537     2.189388   0.12556359   0.11751504 
   17100   -951.83812    42.209287   -909.62883    1511.7836   -12758.211    2.1585128  0.057863697     0.129066 
   17200   -950.56568    40.067018   -910.49866    1435.0553   -3814.4075    2.1766368   0.23630463   0.12706837 
   17300   -956.90458    37.983972   -918.92061    1360.4481     15907.85    2.2432076  0.026316436   0.11182815 
   17400   -955.35829    44.099661   -911.25863    1579.4899    4002.0703    2.2045293   0.28607958   0.10875283 
   17500   -951.53236    42.129722   -909.40264    1508.9339   -13112.332    2.1581299   0.29476097   0.11895616 
   17600   -949.17048     40.70548     -908.465    1457.9227   -5528.9045    2.1694667   0.13952392   0.11561846 
   17700    -954.8817    38.759362   -916.12233    1388.2198    7101.7063    2.2161508   0.16146682   0.12045987 
   17800   -951.02157    38.814216   -912.20735    1390.1845    6311.4486    2.2037822  0.066745568   0.11109946 
   17900   -952.40499    43.696245   -908.70875     1565.041   -4717.7058    2.1774936   0.12236423   0.10039643 
   18000   -950.79479    41.412101   -909.38269    1483.2313   -5970.3902    2.1723574   0.10922665   0.11109754 
   18100   -952.24812    35.202517    -917.0456    1260.8265     3943.461    2.2025444  0.088268932   0.11447446 
   18200   -953.37496    43.125415   -910.24954     1544.596   -180.56327    2.1956838   0.11948923   0.11642131 
   18300    -951.8432     43.46081   -908.38239    1556.6086    1434.7429    2.1881724   0.10125052   0.12038333 
   18400   -950.35464    39.777877   -910.57676    1424.6993   -2266.0257    2.1801803  0.077866519   0.12581939 
   18500   -958.52679    40.768552   -917.75824    1460.1817    -4033.414    2.1944512   0.10420728   0.10190991 
   18600   -953.99658    43.188738   -910.80784     1546.864    1313.9044     2.192516   0.14454082  0.095661018 
   18700   -953.64145    44.988347    -908.6531    1611.3194    4993.7149    2.2044205   0.26852272   0.10089105 
   18800   -947.17001     37.77482   -909.39519    1352.9571    3090.7466    2.1846115   0.02508849  0.095257386 
   18900   -948.09762    41.587006   -906.51061    1489.4958   -11814.009    2.1518646   0.15512931   0.11811457 
   19000   -949.19833    47.728119   -901.47021    1709.4481   -7407.7999    2.1621085   0.55150778   0.10007423 
   19100    -953.3264    45.893875   -907.43252    1643.7522    10167.968    2.2156244   0.25847441   0.10855508 
   19200   -952.86714    43.484519   -909.38262    1557.4578     6176.726      2.20811   0.27790869   0.12153446 
   19300   -950.76253    40.633009   -910.12952     1455.327   -9103.4258    2.1646966  0.015168644   0.12146696 
   19400   -945.51664    44.437005   -901.07964    1591.5724   -6446.4592    2.1555709   0.44672275   0.14640655 
   19500   -949.20536    45.526143   -903.67922    1630.5814    9720.5783    2.2045424   0.17083804   0.11638019 
   19600   -951.74037    43.818391   -907.92198    1569.4159    4154.5314     2.198387   0.14816476   0.10935053 
   19700   -954.20941    43.426765   -910.78264    1555.3892   -7279.5898    2.1745277   0.04857802   0.10744121 
   19800   -948.46563    43.376034   -905.08959    1553.5722   -3026.5835    2.1740987  0.086814329   0.10414068 
   19900    -947.8831    43.703159   -904.17994    1565.2887    3574.2102    2.1913821   0.27733337   0.11464758 
   20000   -951.64828    41.672496   -909.97578    1492.5577    2121.8271    2.1984167   0.12610818   0.11162544 
   20100   -950.37821     41.24446   -909.13375     1477.227   -561.52004    2.1846518   0.14014187   0.10650627 
   20200   -947.49787    46.079936   -901.41793    1650.4162   -4567.0329    2.1679841   0.15711782   0.13328312 
   20300   -947.71317    38.088979   -909.62419    1364.2091    5729.2108      2.20176   0.43294078   0.13054506 
   20400   -952.48683    42.529455   -909.95737    1523.2509    1444.1209     2.198087   0.23922413   0.12517435 
   20500   -948.41487    40.735663   -907.67921    1459.0037   -776.80538    2.1797883   0.12659402   0.13710023 
   20600   -947.65447    47.078282   -900.57619    1686.1733   -4517.6255    2.1667944   0.22847421   0.11912403 
   20700   -952.68171    44.642637   -908.03908    1598.9374    4072.3458    2.2008592   0.11565933   0.10790822 
   20800    -951.5503    42.199533   -909.35076    1511.4342    1990.8431    2.1959157  0.051476046   0.11404465 
   20900   -947.50044    38.260423   -909.24001    1370.3496   -5281.0383    2.1704526   0.17418146   0.12730266 
   21000   -948.35618    42.711247   -905.64493     1529.762   -6768.1938    2.1699538   0.10756102   0.13151169 
   21100   -946.02441    48.101568   -897.92284    1722.8237    5674.7449    2.1896446   0.15025505   0.12078716 
   21200   -951.15605    43.876916   -907.27914     1571.512    10758.572    2.2158564   0.54984455   0.12464032 
   21300   -951.02472    41.795575   -909.22915    1496.9659   -5919.1865    2.1770988 0.0021133032   0.12251717 
   21400   -951.77497    42.067954   -909.70702    1506.7216   -11918.461    2.1606995   0.15600076   0.12641641 
   21500   -958.02725    39.670798   -918.35645    1420.8641    324.91494    2.2063252   0.23182771   0.12293569 
   21600   -953.56892    40.923818    -912.6451    1465.7428    8660.0676    2.2165837  0.085075617   0.11052197 
   21700   -952.32621    43.301059   -909.02515    1550.8869    489.04557    2.1938294   0.10799144   0.12120933 
   21800   -952.56289    43.709705   -908.85318    1565.5231   -7555.2206    2.1742471   0.21311994   0.12669699 
   21900   -952.60953    36.829463   -915.78006    1319.0978   -3507.1522    2.1886613   0.21266743   0.12083384 
   22000   -953.09185    39.964851     -913.127     1431.396     4079.226    2.2051725   0.43069739    0.1215215 
   22100   -952.32262      44.3188   -908.00382    1587.3387     3687.779    2.2016314  0.071892382   0.11979189 
   22200   -950.99324    41.302878   -909.69036    1479.3193   -3421.8591    2.1805661   0.15944889   0.11324012 
   22300   -956.94547    39.833993   -917.11148    1426.7092   -8357.3293    2.1810342  0.075488136   0.12267833 
   22400   -950.95571    40.514042   -910.44167    1451.0661    644.51824    2.1908994   0.15089714    0.1204886 
   22500   -949.79944    42.112418   -907.68702    1508.3141    11834.793    2.2133877   0.25830639   0.12144074 
   22600   -952.06247    40.930614   -911.13186    1465.9862    782.29815    2.1938488   0.22866189   0.12664457 
   22700   -950.24429    34.014806   -916.22948     1218.287   -13667.476    2.1536557   0.11789878    0.1160546 
   22800   -951.19886    39.573435   -911.62543    1417.3769   -6673.1238    2.1765771   0.15454528   0.12238895 
   22900   -950.32581    43.112776   -907.21303    1544.1433    23822.611    2.2440517   0.23922114   0.10729693 
   23000   -951.48079    42.877025   -908.60376    1535.6995    5759.6294    2.2042272  0.074667826   0.10972591 
   23100   -952.20666    41.379354   -910.82731    1482.0584   -10605.379    2.1668114   0.28696543   0.11231691 
   23200    -955.8469    37.912758   -917.93414    1357.8975   -3888.8612    2.1935473  0.042199253   0.10020333 
   23300   -950.04492    40.343664   -909.70125    1444.9638    4246.5677     2.203452  0.093924839   0.12772388 
   23400   -952.01276     43.50601   -908.50675    1558.2275    4801.5507    2.2051444   0.26012328   0.11349203 
   23500   -953.86148    43.462775    -910.3987     1556.679   -3374.6589    2.1856174   0.18223477   0.11809054 
   23600   -955.19662    36.839444   -918.35717    1319.4553   -5405.3837    2.1911852   0.23358632   0.13137481 
   23700   -950.36253    39.776471   -910.58606    1424.6489   -909.27691    2.1884645   0.21653136   0.12201033 
   23800   -952.83394    44.466903   -908.36704    1592.6432    5062.6545    2.2047441   0.37982149    0.1140698 
   23900   -952.48714    42.225159   -910.26198    1512.3521    2613.3831    2.2004312   0.13106307   0.10646928 
   24000   -955.53545    37.324995   -918.21045     1336.846   -3827.1472    2.1897689   0.16021021   0.10709383 
   24100   -954.26901    43.651441   -910.61757    1563.4363   -8144.3911     2.174412  0.071687482   0.11800161 
   24200   -949.91007    41.513608   -908.39646    1486.8669    7007.1936    2.2038336    0.3139089   0.11193138 
   24300   -951.51587     42.01929   -909.49658    1504.9786    8661.3917     2.212435  0.026227844  0.095927306 
   24400   -955.74553    38.248168   -917.49736    1369.9107   -3603.1259    2.1882617   0.11117207  0.097515805 
   24500   -952.56027    41.499876   -911.06039     1486.375    -11846.92    2.1621491   0.16281882   0.11611376 
   24600   -952.36654    43.759608   -908.60693    1567.3105    1540.9073     2.194111    0.2464527   0.11657529 
   24700   -949.11812    40.382294   -908.73583    1446.3473    11125.663    2.2101769   0.16394823   0.12673112 
   24800   -954.23071    40.980285   -913.25042    1467.7652   -2551.1308    2.1891681   0.18621144   0.11392803 
   24900   -952.59976    36.272764   -916.32699    1299.1589   -3377.4469    2.1845105   0.15233717   0.10608446 
   25000    -953.1234    42.863302    -910.2601     1535.208    1387.1411    2.1911781   0.38639909   0.10152389 
   25100   -954.93137    46.718143   -908.21323    1673.2745   -427.21072    2.1929092  0.045578437   0.10084883 
   25200    -950.1015    40.053049   -910.04845    1434.5549   -64.551945    2.1872174   0.15202173   0.11015138 
   25300   -955.49631     38.60015   -916.89616    1382.5174    180.86757    2.1988829  0.073269266   0.10029839 
   25400   -954.70116    44.905945   -909.79522    1608.3681    -3129.646    2.1866346  0.007808471   0.10986079 
   25500   -953.50024    45.313347    -908.1869    1622.9598   -2370.2843    2.1880864   0.17754538   0.11862913 
   25600   -955.48653    43.054492   -912.43204    1542.0558   -1044.2538    2.1948382   0.16080261   0.10794049 
   25700   -958.55378    43.169752   -915.38402     1546.184   -2833.4361    2.1991681   0.21145523  0.099637581 
   25800   -951.67926    43.264814   -908.41444    1549.5888   -86.600678     2.186606  0.012199605   0.10980576 
   25900   -952.00506    43.061714   -908.94334    1542.3144   -3384.9599    2.1826856    0.1602482    0.1265495 
   26000   -955.71475    40.269695   -915.44505    1442.3144    138.34075    2.1986334  0.070446997   0.12401821 
   26100   -954.45176    41.660732   -912.79103    1492.1363    2233.2463    2.2015721    0.1627158  0.098327895 
   26200   -948.12208    39.922132   -908.19995     1429.866     5001.658    2.1933389  0.063874915  0.095137831 
   26300   -951.26764    41.221196   -910.04645    1476.3937   -4563.4367    2.1763475  0.031990111   0.10626072 
   26400   -954.03835    38.168775   -915.86958    1367.0671   -4656.0673    2.1827259   0.19034327   0.11601074 
   26500   -954.51657    41.060905   -913.45567    1470.6527     4025.291    2.2047093  0.090774051   0.11191826 
   26600   -954.26597    45.778588   -908.48738     1639.623    6019.3873    2.2058226   0.15907414   0.10920436 
   26700   -951.45931    42.201887   -909.25743    1511.5185   -5054.7773    2.1730879  0.094870021  0.097262078 
   26800   -948.88849    39.812803   -909.07569    1425.9502   -9327.0133    2.1590859   0.15062121   0.11072716 
   26900   -956.88391    38.341138   -918.54277    1373.2405    4943.9157     2.212429    0.2123945   0.11803904 
   27000   -952.73665    40.859641     -911.877    1463.4442    7297.1858     2.209064    0.1554656   0.11687521 
   27100   -952.31888    43.343081    -908.9758     1552.392    -3152.242    2.1797167   0.16064981   0.10490664 
   27200    -949.0148    40.645729   -908.36907    1455.7826   -7656.7645    2.1658253  0.035150367   0.10383419 
   27300   -958.06453    40.850347   -917.21419    1463.1113    196.34994    2.2047872    0.1302952      0.10098 
   27400   -953.31287    42.478901   -910.83397    1521.4402    4426.9575    2.2024882    0.0520118   0.10220065 
   27500    -950.5315    42.379699    -908.1518    1517.8871   -653.26956    2.1871519  0.071831647   0.11738934 
   27600   -950.74456    40.230291   -910.51427    1440.9031   -7230.1605    2.1699993   0.15063846   0.11550315 
   27700   -955.56789    38.397909   -917.16998    1375.2739   -1944.6862    2.1934601   0.09683352   0.10862425 
   27800   -951.75122    43.077837   -908.67338    1542.8919    7894.6722    2.2053382   0.15513536   0.12246992 
   27900   -950.56241    42.553443   -908.00897      1524.11    7160.3028    2.2032492  0.098596814   0.11887014 
   28000   -950.71637    38.924386   -911.79198    1394.1303   -9791.4005    2.1625187   0.46126688   0.11321667 
   28100   -953.55424    37.469764   -916.08448    1342.0311   -13618.343    2.1626128  0.099855887   0.12033286 
   28200   -948.21888    38.455952   -909.76293    1377.3528    12111.704    2.2147116  0.060328107   0.13785535 
   28300   -953.22219    45.534186     -907.688    1630.8694    13636.273    2.2247172   0.11175308   0.11353927 
   28400   -950.44319    40.833751   -909.60944    1462.5169   -4774.5657    2.1755555  0.092362353   0.10546792 
   28500   -950.12844     42.05238   -908.07606    1506.1638   -10882.261    2.1594653   0.20888818   0.11227916 
   28600   -944.91106    46.125312   -898.78575    1652.0414    1352.0413     2.175281    0.2821833   0.12596091 
   28700   -949.39743    42.923289   -906.47414    1537.3565    13109.878    2.2141218 0.0099060257   0.13142671 
   28800   -950.93617    41.461322   -909.47484    1484.9942   -553.44372    2.1838814   0.16387507   0.12548239 
   28900    -951.3902     41.39503   -909.99517    1482.6199   -8868.8772    2.1644712   0.18871115   0.11331368 
   29000   -949.83211    45.562406    -904.2697    1631.8802   -606.75583    2.1797742   0.18587503   0.11356372 
   29100    -951.5243    48.143131   -903.38116    1724.3124    4985.5128    2.1961217    0.2032794   0.11731805 
   29200   -953.89526    44.909932   -908.98532    1608.5109   -2868.4827    2.1833147  0.055272336   0.11193948 
   29300   -951.54224    41.124553   -910.41769    1472.9324   -6400.8106    2.1710072  0.060782017   0.11676839 
   29400   -944.47358    40.434771   -904.03881    1448.2269    3074.8851    2.1799694   0.27437496   0.12531471 
   29500   -947.84291    43.680256   -904.16266    1564.4684    6748.3378    2.1977559  0.043717689   0.11006279 
   29600   -951.26256    41.578925   -909.68363    1489.2063   -748.80045    2.1885716  0.083907962   0.12383719 
   29700   -948.75038    38.937604   -909.81278    1394.6038    -4928.201    2.1723111  0.080360026   0.12877861 
   29800   -949.35694    46.837561   -902.51938    1677.5516   -3357.2043    2.1750916   0.10990083   0.12532985 
   29900   -948.55085     42.73211   -905.81874    1530.5092    9781.7894    2.2072734   0.30034545   0.14071463 
   30000   -949.99875    40.342862   -909.65589     1444.935    1678.8273    2.1902387  0.067986679   0.12170215 
   30100   -947.92519    38.894353   -909.03084    1393.0547   -9092.1086    2.1573282   0.10965083   0.12595606 
   30200   -949.05633    45.840285   -903.21604    1641.8328    -7036.526    2.1686879   0.17467313   0.13818474 
   30300   -950.88744    46.998227   -903.88921    1683.3061    14744.362    2.2220819  0.076282445   0.12594429 
   30400   -952.49682    42.985834   -909.51099    1539.5967    6079.0132     2.205438  0.053401296   0.11304893 
   30500   -948.68408    39.286384    -909.3977    1407.0958   -9591.5053    2.1615081  0.055389495   0.12552839 
   30600   -946.53154    38.333182   -908.19835    1372.9556   -3855.5162    2.1698058   0.06895735    0.1302789 
   30700   -955.16446    38.239241   -916.92522    1369.5909    7508.2317    2.2181793  0.076869384   0.12331473 
   30800   -954.42288    41.975943   -912.44694     1503.426    2110.3943    2.2044849   0.35289237     0.133932 
   30900   -951.38489    42.514807   -908.87009    1522.7262     -2312.55     2.182971  0.097541401   0.11947558 
   31000   -947.59732    38.922878   -908.67444    1394.0763   -1992.5158     2.178218   0.21530378   0.13069845 
   31100   -956.63054    39.500256   -917.13029    1414.7559      75.9081    2.2053096   0.15823433   0.12863304 
   31200   -952.33035    41.630284   -910.70007    1491.0458    1428.5489    2.1977492   0.14472705   0.12743758 
   31300   -951.15251    42.996316    -908.1562    1539.9721    476.30666    2.1923174  0.068703714   0.12505988 
   31400   -948.81625    38.309123   -910.50713    1372.0939   -2299.2675    2.1852622   0.12593076   0.12670339 
   31500   -954.24222    36.815413   -917.42681    1318.5946    903.14486    2.2002638  0.013833119    0.1161291 
   31600   -951.14435    42.003615   -909.14073    1504.4172   -64.682277      2.19034    0.2304009   0.12029836 
   31700   -952.65612    44.182245   -908.47388    1582.4478     1479.927    2.1970676   0.14547175    0.1326795 
   31800   -952.67631    41.324729   -911.35158    1480.1019    480.67564    2.1945051   0.17378366    0.1193677 
   31900   -951.30099    32.890291    -918.4107    1178.0109   -2267.6426     2.194651   0.16333005   0.12213747 
   32000    -949.8233    40.047068   -909.77623    1434.3407   -5772.5848    2.1745925   0.24600162   0.12271645 
   32100   -953.04144    44.389674   -908.65176    1589.8771     3586.923    2.2041739   0.13458463   0.12486889 
   32200   -950.68036    41.093314   -909.58704    1471.8135    9177.1172    2.2134293   0.13936591   0.11085268 
   32300   -956.18795     40.26822   -915.91973    1442.2616   -8950.5425      2.18063   0.20027732   0.12377554 
   32400   -952.64127    37.122124   -915.51915    1329.5799   -9432.0234    2.1720502   0.16805617   0.12616581 
   32500   -949.57836    39.322123   -910.25623    1408.3759    5631.5887    2.2049215  0.075807161   0.12591043 
   32600   -949.36981    41.467481   -907.90233    1485.2148    9501.0614    2.2109603   0.13123062   0.12567581 
   32700   -952.31749    41.524473   -910.79302     1487.256   -3373.5908    2.1815205  0.083849199   0.11201574 
   32800   -954.08408    37.089239   -916.99484     1328.402    -6989.294    2.1809404  0.029769143   0.10135209 
   32900   -951.08123    41.403621   -909.67761    1482.9276   -647.76875    2.1879286   0.23551208   0.11884034 
   33000   -949.28866    41.279006   -908.00965    1478.4643    6779.4483    2.2023749   0.52078259   0.12205449 
   33100   -948.59166    35.835072   -912.75659    1283.4823    3723.3653    2.1964041   0.23741181   0.12458586 
   33200   -956.08624    40.233474   -915.85276    1441.0171   -6231.5767    2.1816637   0.26281672   0.10969483 
   33300   -950.97093    42.169354   -908.80158    1510.3533   -3483.4691    2.1786271  0.092423853   0.10751404 
   33400   -950.83288    42.061336   -908.77155    1506.4845     4209.164    2.1983825   0.23171182   0.13187867 
   33500   -952.11643    39.105824    -913.0106    1400.6288    6464.2123    2.2070817  0.015829449    0.1237089 
   33600   -952.79531    35.415652   -917.37966    1268.4602   -2274.6576    2.1887618   0.11146314    0.1180052 
   33700   -951.68233    41.984567   -909.69776    1503.7349   -12552.986    2.1579965   0.13508894    0.1242415 
   33800   -950.44393     41.58947   -908.85446     1489.584    3056.0033    2.1938475   0.40846594   0.10216359 
   33900   -950.63479    42.582296   -908.05249    1525.1434    19859.662    2.2330373   0.38897092   0.11594524 
   34000   -945.63564    47.038351   -898.59729    1684.7432   -1923.2776    2.1708526   0.46287859   0.13933911 
   34100   -948.91894    43.611045    -905.3079    1561.9895   -15447.096    2.1484144   0.36313221   0.13190632 
   34200   -949.82679    40.565137   -909.26166    1452.8961   -2784.3772    2.1791243  0.023420293   0.12605369 
   34300   -952.41348     42.98887   -909.42461    1539.7054    8144.2389    2.2118271   0.42528879   0.12452777 
   34400   -947.53861    45.829492   -901.70912    1641.4462     5256.353     2.187587   0.11108038   0.12278649 
   34500   -951.73454      45.8453   -905.88924    1642.0124   -5925.5062    2.1698505   0.14526066   0.12663551 
   34600   -951.08483     40.68794   -910.39689    1457.2945    -3646.863     2.175099  0.071065285    0.1149914 
   34700   -953.15521    44.806934   -908.34827    1604.8219    1238.0789    2.1941974   0.20542652  0.099817897 
   34800   -946.67032     46.34575   -900.32457    1659.9367    4878.3102    2.1849646   0.20626523   0.10882431 
   34900   -948.28619    39.093945   -909.19224    1400.2033    1704.0112     2.187696  0.079732076   0.11453648 
   35000   -952.94456    42.951308   -909.99325    1538.3601   -6010.0645     2.175751   0.11960903   0.11575377 
   35100   -950.24872    44.150998   -906.09773    1581.3286   -1917.4162    2.1792588   0.20270627   0.11760523 
   35200   -946.12016    46.191412   -899.92875    1654.4088    3407.1282    2.1826774  0.091302404   0.12914947 
   35300   -950.90985    41.639696   -909.27016    1491.3829    5423.5068    2.2020702  0.042640942   0.10915243 
   35400   -953.37482    44.005844   -909.36897    1576.1298   -3670.8547    2.1826325  0.030361468   0.11750689 
   35500   -951.92746    43.774441   -908.15302    1567.8417   -10568.545    2.1621041   0.15994785   0.11966822 
   35600    -945.5068    44.822704   -900.68409    1605.3867     4320.756    2.1819121   0.44639559   0.11737532 
   35700    -948.7009    46.483782   -902.21712    1664.8805    15264.214    2.2208128  0.084292008    0.1237149 
   35800   -951.13501    43.679122   -907.45589    1564.4277   -6317.0042    2.1676451   0.21227635  0.093575838 
   35900   -950.95832    41.057947   -909.90037    1470.5468    -14644.34    2.1470303 0.0037099901   0.11224992 
   36000   -951.52944    43.952481   -907.57696    1574.2185    1619.5516    2.1891853   0.15039393   0.10384713 
   36100   -947.37025    48.362488   -899.00776    1732.1689    9482.6414    2.1972937   0.10545513   0.10993342 
   36200   -949.89955    42.164152    -907.7354     1510.167    3162.2835     2.191634   0.10454439   0.11001922 
   36300   -950.41999    40.460671   -909.95932    1449.1545   -6797.8964    2.1698844   0.19443802   0.11359569 
   36400   -945.48714    38.151067   -907.33607    1366.4329   -1145.4436    2.1740083   0.12659289   0.11882686 
   36500   -947.53888    47.899877   -899.63901    1715.5999    1667.5514    2.1836086   0.10857341   0.11874112 
   36600   -951.45799     42.95736   -908.50063    1538.5768    7827.7545    2.2085979   0.26546838   0.11007835 
   36700   -949.08077    39.050766      -910.03    1398.6568   -1470.9059    2.1830546   0.13317633   0.11441604 
   36800   -949.84417    43.672535   -906.17164    1564.1918   -7346.8277    2.1629465   0.10393245   0.12077256 
   36900   -945.75175    45.069909   -900.68184    1614.2407   -700.86526    2.1722022  0.044244517   0.12121332 
   37000   -953.19625    43.693411   -909.50284    1564.9395    8196.4265    2.2106621  0.053975068   0.12131951 
   37100   -951.51207    42.302623   -909.20944    1515.1266    2323.9976    2.1933413  0.040829927  0.098532761 
   37200   -946.96222    40.654981   -906.30723     1456.114   -6512.0362    2.1633677  0.098960335    0.1126948 
   37300   -941.41301    42.193945   -899.21907    1511.2341   -3381.7994    2.1587515   0.66116931    0.1302657 
   37400   -947.59044    39.095241    -908.4952    1400.2497    7900.4372     2.203272    8.5346735   0.14279481 
   37500   -948.53373    39.976871   -908.55685    1431.8265    3310.4904    2.1938446    7.3515042   0.14323947 
   37600   -946.48558    42.051085   -904.43449    1506.1174    1374.5991    2.1767922    6.5516786   0.14548466 
   37700   -944.80722    43.601336   -901.20589    1561.6417   -6051.6014    2.1634364    3.1935404   0.13956538 
   37800   -951.63857    41.944707   -909.69386    1502.3073    2873.3014    2.1935825    6.3823492    0.1391019 
   37900   -951.43041    43.511035   -907.91937    1558.4075    2519.3131    2.1974991     9.111847   0.14723927 
   38000   -949.86906    43.731523   -906.13754    1566.3046   -2355.2385    2.1749852   0.52286409   0.12371007 
   38100   -943.14695    45.944771   -897.20218    1645.5751   -2440.7804    2.1591629   0.64356084   0.12030397 
   38200   -950.63347    45.851337   -904.78213    1642.2286    2210.7181    2.1875621   0.12896563    0.1059937 
   38300   -950.95552    42.957338   -907.99818    1538.5761    -411.6079    2.1840811   0.21804661   0.10454425 
   38400   -952.02327    42.249063    -909.7742    1513.2082   -4121.1262     2.177042  0.070856329    0.1112703 
   38500   -952.66329    42.732952   -909.93034    1530.5394   -2271.5729    2.1834922   0.14456615   0.11661427 
   38600   -947.36322    46.951612   -900.41161    1681.6365    1828.9448    2.1794478  0.099420025   0.11561502 
   38700   -953.39204    46.818629   -906.57341    1676.8735    3268.5478    2.1971479 0.0079789422   0.10587284 
   38800   -953.07492    42.930344   -910.14457    1537.6092   -5620.1365    2.1768556   0.10974236   0.10677782 
   38900   -950.27901    41.106017   -909.17299    1472.2685   -8995.4425    2.1636258  0.093964942   0.10891816 
   39000   -946.38441    45.595381   -900.78903    1633.0612    186.68929    2.1774147   0.24362153   0.12866368 
   39100   -953.15442    44.686044   -908.46837    1600.4921    12689.796     2.223498  0.095693746   0.10942063 
   39200    -953.6358    43.432314   -910.20349     1555.588   -907.55381    2.1892345   0.38806572    0.1001061 
   39300   -948.35553    42.124905   -906.23063    1508.7613    -13440.07    2.1496018   0.50152915    0.1239926 
   39400   -950.85712    48.967831   -901.88929    1753.8501   -8140.2582     2.162265   0.01582768   0.10646236 
   39500    -952.2652    41.424377   -910.84082     1483.671    13454.454    2.2211504   0.24678139   0.10870884 
   39600   -951.19279    42.175249   -909.01754    1510.5645    4337.5671    2.1982237   0.16219904   0.11763468 
   39700   -944.92383      38.2295   -906.69433    1369.2421   -3707.7144     2.165621    0.0233667   0.11666793 
   39800   -954.36195    39.273277   -915.08867    1406.6263   -4912.7246    2.1850798   0.25980184   0.11962312 
   39900   -951.80248    39.291506   -912.51097    1407.2792    1740.5009    2.1988804  0.034641334    0.1222117 
   40000   -949.97291    42.294306    -907.6786    1514.8287     6637.973    2.2017235   0.20358049   0.10706244 
   40100   -948.22717    38.707105   -909.52007    1386.3481   -288.68443    2.1864978  0.060605828    0.1137478 
   40200   -954.03014    37.499723   -916.53042    1343.1041   -2700.3436    2.1897091  0.071282907   0.10955177 
   40300   -951.44083    42.530505   -908.91033    1523.2885   -1796.6739    2.1852934    0.1822961   0.11687108 
   40400   -947.65553    39.516588   -908.13894    1415.3409    4219.0272    2.1992749   0.24338886   0.12773857 
   40500   -953.67568    39.293544   -914.38213    1407.3522    1020.3156    2.2014328  0.090792469   0.11277218 
   40600   -951.45912    38.928654   -912.53047    1394.2832    -5683.165    2.1771607  0.079279828     0.114464 
   40700   -951.62922    43.493477   -908.13574    1557.7786   -3837.8404    2.1783252  0.069868348   0.12210812 
   40800    -950.9691    41.745898    -909.2232    1495.1867    7783.9567     2.207172   0.01870175   0.12482001 
   40900   -954.50173    40.847116   -913.65462    1462.9956    6397.8132    2.2080535  0.042039588   0.10695031 
   41000   -950.51746    43.233592   -907.28387    1548.4705    -8870.639    2.1655374    0.1493282   0.10944867 
   41100   -946.65513     40.07787   -906.57726     1435.444   -6488.1542    2.1691635   0.16303012    0.1225477 
   41200   -951.76959     42.69904   -909.07055    1529.3248    4792.9595    2.2016364   0.21603483    0.1115115 
   41300   -953.09856    42.336558     -910.762     1516.342    8253.2703      2.21404   0.25581858    0.1113849 
   41400    -943.8315    42.585508   -901.24599    1525.2584    -2163.564    2.1635894  0.046005412   0.11513165 
   41500   -951.79073    44.841556   -906.94918    1606.0619    -8137.834    2.1672092  0.010134976   0.10669544 
   41600   -951.70382    41.624552   -910.07926    1490.8405    2139.0932     2.193985  0.039592738   0.10683642 
   41700   -951.45035    42.653653    -908.7967    1527.6992     9253.893    2.2090139   0.50578138   0.11896417 
   41800    -947.8626    46.835309   -901.02729    1677.4709   -4035.8184    2.1673425  0.024624692   0.12190438 
   41900   -950.32122    40.590808   -909.73041    1453.8155   -7512.7241    2.1710864    0.2901331   0.11900276 
   42000   -950.94526    41.149953    -909.7953    1473.8421   -32.835473    2.1911392  0.040868102    0.1107861 
   42100   -948.79739    43.552793    -905.2446    1559.9031    12327.901    2.2120941  0.078227811   0.11279634 
   42200    -948.4046    45.166464   -903.23814    1617.6989   -130.33178    2.1788557  0.017905295   0.11472638 
   42300   -953.85157     42.52213   -911.32944    1522.9885   -15911.567    2.1537709   0.14499085   0.09993907 
   42400   -951.09085    40.951708   -910.13915    1466.7417   -1399.8549    2.1837132   0.14993424   0.10799412 
   42500   -950.54431    45.063748   -905.48056      1614.02    15425.974     2.222133   0.17804048   0.10338464 
   42600    -956.3238    46.185886   -910.13791     1654.211   -50.472808    2.1965465   0.19666581   0.11301348 
   42700   -954.90639     41.11701   -913.78938    1472.6622   -9797.4964    2.1718458   0.22842385   0.11230096 
   42800   -950.26184    41.703792   -908.55804    1493.6786   -2428.0526    2.1812838   0.17242008   0.10551444 
   42900   -948.68738    41.379249   -907.30813    1482.0546    5072.7471    2.1980513  0.081138083   0.11601633 
   43000   -953.73099    37.837526   -915.89347     1355.203     4751.728    2.2067063   0.13157641    0.0987008 
   43100    -950.7438    40.472658   -910.27114    1449.5838    -4768.387    2.1768941   0.11557806   0.11262349 
   43200    -948.4019    40.428857   -907.97304     1448.015   -1284.9401    2.1805834  0.069129714   0.11733111 
   43300   -955.37504     43.47768   -911.89736    1557.2128      822.893     2.202949  0.016804281     0.109535 
   43400   -954.82035    39.079635   -915.74071    1399.6908     4161.759    2.2089579  0.024369038    0.1081657 
   43500   -950.30026    42.925844   -907.37442     1537.448    -3625.451     2.173976   0.21166061   0.11170727 
   43600   -950.40256    40.969921   -909.43264     1467.394   -5103.6341    2.1739788  0.070169709   0.13604461 
   43700   -956.19222    43.216826   -912.97539      1547.87    3070.9551     2.205943  0.050320684   0.12022579 
   43800   -957.54042    41.359877   -916.18055    1481.3608    5943.0461     2.220577   0.13454225   0.12408291 
   43900   -948.64389    42.066685    -906.5772    1506.6761   -8897.8241    2.1658961   0.20708169   0.12429856 
   44000   -952.71443    44.235226   -908.47921    1584.3454   -14047.094    2.1565483  0.044839578   0.11922602 
   44100   -951.15107    41.877901   -909.27317    1499.9145    5125.7564    2.2040547   0.57286603   0.12481463 
   44200   -955.58427    41.655715   -913.92856    1491.9566    15259.531    2.2344388   0.08897662   0.11634463 
   44300   -955.11695    37.412321   -917.70463    1339.9737   -1353.0873    2.1974946   0.11669402   0.11974825 
   44400   -951.65117    42.237154   -909.41401    1512.7817   -12770.489    2.1610846    0.1165022   0.11182217 
   44500    -952.1115     42.90696   -909.20454    1536.7717   -2033.7557    2.1869979   0.11497554   0.12486539 
   44600   -951.38356    42.437708   -908.94585    1519.9648    6194.8179    2.2042704   0.13117794   0.11343951 
   44700   -946.95474    45.927827   -901.02691    1644.9682    2863.6885    2.1850469   0.10547394   0.12321105 
   44800   -947.69923    43.911007   -903.78822     1572.733   -2062.0595    2.1758257  0.055281011   0.12322722 
   44900   -950.80114     41.84242   -908.95872    1498.6437   -5416.1309    2.1762551   0.12667615   0.12670848 
   45000   -953.99055    43.910042    -910.0805    1572.6985   -1043.0674    2.1917853   0.12323536   0.11283941 
   45100   -955.59077    47.468173   -908.12259    1700.1378    4098.3937    2.2030248   0.10585188   0.11325339 
   45200   -945.14107    43.159477   -901.98159    1545.8159   -724.05117    2.1706859   0.12541111   0.12299381 
   45300    -952.2675    43.357643   -908.90985    1552.9136   -8459.1862    2.1669557  0.062141499   0.10322617 
   45400   -950.46656    40.385633   -910.08093    1446.4669    1546.4967    2.1909975   0.03981411   0.12345276 
   45500   -950.48576    41.916555   -908.56921     1501.299    9648.9683    2.2100217  0.084396822  0.099793362 
   45600   -944.99235    43.569896   -901.42245    1560.5157   -735.70276    2.1706534   0.19342861   0.12454203 
   45700   -946.64041    37.714577   -908.92583    1350.7994   -6536.1356     2.162918   0.13831699   0.12301283 
   45800   -954.20436    44.210611   -909.99375    1583.4638   -2994.7808    2.1866835   0.24405576    0.1013964 
   45900   -948.10245    41.427571   -906.67488    1483.7854    11991.687    2.2105078   0.22664661   0.11643674 
   46000   -950.02831    48.729472   -901.29884     1745.313   -1535.8518    2.1763671   0.19072738   0.10594355 
   46100   -950.15648    40.470436   -909.68604    1449.5042   -7780.0345    2.1659363 0.0029496363   0.12103164 
   46200    -949.5415     39.81475   -909.72675      1426.02   -68.747387    2.1830672   0.20341864   0.12157652 
   46300   -947.15899    41.168087    -905.9909    1474.4916    9116.8008     2.202093  0.013236983   0.11755084 
   46400   -945.52077    44.027943   -901.49282    1576.9212    748.27069    2.1766525  0.069455199   0.11038526 
   46500   -953.23496    43.059273   -910.17569     1542.227   -4674.2487     2.179966    0.1563351    0.1065705 
   46600   -951.02811    41.548226   -909.47989    1488.1068   -215.04099    2.1881496   0.27732816   0.10437981 
   46700   -951.25504     45.29482   -905.96022    1622.2962    1662.3156    2.1884572   0.13858395   0.11859296 
   46800   -943.20578    42.748195   -900.45759    1531.0853    291.28827    2.1703976   0.21014353   0.12619601 
   46900   -953.11921    43.541289   -909.57792    1559.4911   -1054.3953    2.1883594   0.20529218   0.10701588 
   47000   -950.64567    41.228902   -909.41677    1476.6697    1774.6341    2.1907028   0.15743177    0.1271876 
   47100   -950.70368    43.023728   -907.67996    1540.9539     -232.311    2.1842029  0.063313231   0.11985239 
   47200    -943.8811    45.395603    -898.4855    1625.9059   -298.31016    2.1687761  0.082902471   0.12745786 
   47300   -947.23869    39.393072   -907.84562     1410.917    7020.4211    2.1989855  0.076516715   0.11558174 
   47400   -950.78734    41.525175   -909.26217    1487.2812    1898.1764    2.1906262   0.13747892   0.10612704 
   47500   -951.23537    41.779259   -909.45611    1496.3816   -6187.1672    2.1728708   0.30258596   0.10784321 
   47600   -948.86493    46.595107   -902.26982    1668.8678   -3241.8573    2.1755026   0.37720514   0.11676895 
   47700   -951.05988    47.414615   -903.64527    1698.2196    8584.9251    2.2035873   0.13404558    0.1044202 
   47800   -951.20833    42.693192   -908.51514    1529.1153   -377.88274    2.1868707    0.2321493   0.10918626 
   47900   -949.89831    39.460268   -910.43804    1413.3237   -8121.1506    2.1650585   0.33094813   0.11026339 
   48000   -948.63067    42.886682   -905.74399    1536.0454   -1378.4578    2.1788739   0.12805871   0.11287534 
   48100   -948.64188    45.973368   -902.66851    1646.5993    10202.157    2.2087647  0.037103613   0.12279804 
   48200   -952.42844    43.620287   -908.80815    1562.3205     2486.503    2.1955798   0.10587676   0.10764594 
   48300   -946.58282    36.446766   -910.13605     1305.391     -5995.85    2.1647863 0.0032665882   0.11674199 
   48400   -948.93394    45.094293   -903.83965     1615.114   -6673.7088    2.1659077   0.28902804   0.12202773 
   48500    -952.2808    48.535383   -903.74542    1738.3614    6566.4437    2.2031734  0.061838679   0.11556491 
   48600   -952.97048    43.698834   -909.27165    1565.1338    4605.2225    2.2032128   0.26459684   0.11012583 
   48700   -950.59118    40.993853   -909.59733    1468.2511    -5263.976    2.1748138  0.040955362   0.11214859 
   48800   -947.66843     43.25017   -904.41826    1549.0642   -5395.1545    2.1691132  0.080306056   0.10963728 
   48900   -949.62307     47.91116   -901.71191     1716.004   -1058.7785    2.1790902     0.107964   0.11904472 
   49000   -952.57449    43.368746   -909.20574    1553.3112    3097.9149    2.1973584   0.06667007   0.12414729 
   49100   -953.07049    43.544593    -909.5259    1559.6094   -1314.2151    2.1902536  0.089462972   0.10903433 
   49200   -952.92593    45.480838   -907.44509    1628.9587   -3654.6062    2.1804062  0.066612663   0.10529823 
   49300   -946.03174    46.460335   -899.57141    1664.0407   -3106.5352    2.1670476   0.02958452   0.12147966 
   49400    -949.6835    41.162766   -908.52074     1474.301    6491.5327    2.2002801   0.10013779   0.11014461 
   49500   -949.74669    40.315128   -909.43157    1443.9417    6095.8616    2.2011646   0.27243406    0.1234394 
   49600    -950.5378    42.030263   -908.50754    1505.3716   -1998.4353    2.1819492   0.25363048   0.11615838 
   49700   -945.61563    46.151505   -899.46412    1652.9795   -7006.8819     2.157434  0.087041432   0.11933629 
   49800   -947.84636    39.623983   -908.22238    1419.1874    7299.4315    2.2001255   0.10087936   0.11388829 
   49900   -950.08655    41.025509   -909.06104     1469.385    9470.6488    2.2076719   0.20753259   0.11388335 
   50000   -950.36401    41.080185   -909.28382    1471.3432   -3855.2731    2.1779254  0.030750702   0.11865467 
   50100   -943.38768    43.681445   -899.70624     1564.511   -9441.4084    2.1474305  0.059992275   0.14912013 
   50200   -952.83877    44.969527   -907.86924    1610.6454    5078.9061    2.2014608  0.050881518   0.10139481 
   50300    -955.7163    46.572128   -909.14418    1668.0447    6680.6744     2.211776  0.021339436   0.10457644 
   50400   -949.62584    40.084782   -909.54106    1435.6915   -1267.8097    2.1815398   0.17839163   0.10472514 
   50500   -943.89605    43.371171   -900.52487    1553.3981   -8488.7198    2.1509498   0.20164936   0.12451294 
   50600   -948.15222    40.588776   -907.56344    1453.7428     2938.581    2.1900768   0.26254472   0.12412295 
   50700   -953.01567    43.331247   -909.68442    1551.9681     2819.747    2.1983546   0.12139753   0.10824149 
   50800   -950.91203    42.564578   -908.34745    1524.5088   -316.06401    2.1865056  0.058903219   0.11246932 
   50900   -949.62279    49.140446   -900.48234    1760.0326   -4354.6102    2.1684572   0.17721026   0.11780757 
   51000    -948.8126    39.680489   -909.13211    1421.2112    4321.0892    2.1939755   0.37214469   0.12401971 
   51100    -950.8622    41.157529   -909.70467    1474.1134   -99.467096    2.1877281   0.11103371   0.11125781 
   51200   -951.59337    43.538872    -908.0545    1559.4045   -2464.9996    2.1826487   0.13790246   0.10793747 
   51300   -945.50016    44.431838   -901.06833    1591.3873   -1189.3342    2.1762974  0.067367921    0.1213365 
   51400   -949.75704    44.188145   -905.56889    1582.6591    1532.5988    2.1856505   0.27918213   0.11252408 
   51500    -951.6035    42.490771   -909.11273    1521.8653   -4288.0973    2.1803086   0.11811301   0.11689427 
   51600   -950.70846    41.277128   -909.43133     1478.397   -925.59807    2.1848008   0.20898273   0.10850264 
   51700   -951.34131    42.140587   -909.20072     1509.323    3918.3971    2.1999213  0.038795952   0.10649064 
   51800   -945.55675    46.011594   -899.54516    1647.9684   -1589.3992    2.1746865    0.4008466   0.12504716 
   51900   -951.91571    45.354082   -906.56163    1624.4187   -5162.8755    2.1762946  0.078928002   0.11813764 
   52000   -950.94641    41.162981   -909.78343    1474.3087    831.36365    2.1906008   0.26965944   0.11630671 
   52100   -952.41741    42.217235   -910.20017    1512.0682    4667.5114    2.2015586   0.41056563   0.10184405 
   52200   -945.79438    44.953965   -900.84042     1610.088    -926.2055    2.1733078    0.1486619   0.10696427 
   52300    -951.3182    43.209348   -908.10885    1547.6021   -2027.8529    2.1827026  0.043233777   0.10294372 
   52400    -953.6479     43.27429   -910.37361    1549.9281   -2703.7235    2.1856971    0.1306532   0.11175706 
   52500    -953.4789    47.409598    -906.0693    1698.0399    138.30029    2.1906668   0.21865966   0.11047613 
   52600   -948.93182    46.530782   -902.40103    1666.5638    148.84671    2.1796576  0.080206672   0.11329056 
   52700   -953.43364    43.050603   -910.38303    1541.9165   -2487.2943    2.1862354  0.069414254    0.1086073 
   52800   -950.77361    41.516514   -909.25709     1486.971   -484.01488    2.1860306  0.027814798   0.11124278 
   52900   -948.07211    44.063305    -904.0088    1578.1878    2019.4646    2.1863947  0.089188169   0.12676833 
   53000   -945.52597    40.966319   -904.55965     1467.265    1801.0417    2.1812193   0.14316996    0.1181875 
   53100   -952.56124    41.910253   -910.65099    1501.0733   -3279.6964    2.1834091  0.061444732   0.11107919 
   53200   -948.79992    39.722845   -909.07707    1422.7282    3004.0025    2.1970728   0.13208547   0.12839567 
   53300   -949.66463    42.866578   -906.79805    1535.3254    4772.0617    2.1984716  0.098858769   0.11638257 
   53400   -943.96914    46.541659   -897.42748    1666.9535   -2032.8856    2.1621055   0.23039849   0.12657268 
   53500   -945.84986    39.313104   -906.53676    1408.0528    284.64848    2.1810464  0.070631173    0.1340318 
   53600   -952.75425     44.00933   -908.74492    1576.2546   -195.35591    2.1908553   0.18994755   0.12066667 
   53700   -952.42923    42.860979   -909.56825    1535.1248    1846.2393     2.196384  0.030491357   0.11650577 
   53800   -951.90754    43.794454   -908.11308    1568.5585   -2752.4975    2.1837497  0.010364208   0.10795528 
   53900   -948.58662    47.688358   -900.89827     1708.024   -9821.6301    2.1556982   0.08231646   0.11005996 
   54000   -949.70152    41.104946   -908.59657    1472.2301   -61.826349    2.1862191  0.037181499   0.11814329 
   54100    -953.6307    44.310066   -909.32063    1587.0259    7264.4663    2.2128336    0.1726969   0.11953712 
   54200   -953.69352    43.947709   -909.74582    1574.0475    164.61444    2.1933824  0.084991233   0.11313897 
   54300   -943.25303    43.492745   -899.76028    1557.7524   -11491.092    2.1391757  0.083449108   0.13806662 
   54400   -951.92118    43.465543   -908.45563    1556.7781   -2060.4397    2.1823078  0.080824131   0.10742477 
   54500   -950.02873    40.904627    -909.1241    1465.0554    11296.821    2.2148031   0.19650076    0.1218869 
   54600   -950.14467    40.505159   -909.63952    1450.7479     2763.225    2.1960552   0.33418335   0.12131525 
   54700   -945.28519    45.191243   -900.09395    1618.5864   -8746.0868    2.1497591  0.073897601   0.12124101 
   54800   -952.92609    44.300093     -908.626    1586.6687    -2351.404    2.1851951  0.097703065   0.11491788 
   54900   -950.64618     41.04126   -909.60492    1469.9491    4987.2891    2.2006235  0.082319062   0.11716885 
   55000   -949.55388     41.12735   -908.42653    1473.0325    1180.4062    2.1908694   0.56634676   0.13787969 
   55100   -944.41727    44.621375    -899.7959    1598.1758    -4287.975    2.1635057    0.2630865   0.12794374 
   55200   -951.66261    42.731023   -908.93158    1530.4703    2184.3836    2.1929732   0.10897079   0.11532095 
   55300    -953.6183    43.828487   -909.78982    1569.7774   -262.49479    2.1938268   0.09771501   0.11442781 
   55400   -949.70155    41.489697   -908.21185    1486.0105   -326.92334    2.1860634   0.13280913    0.1285431 
   55500   -942.20046    42.568658    -899.6318    1524.6549    658.96873    2.1704776    0.1761855   0.14927872 
   55600   -951.10044    42.905175   -908.19526    1536.7078    3677.8378    2.1987496   0.10131731   0.11330497 
   55700   -952.21985    42.693633   -909.52622    1529.1311   -1752.0275    2.1859448   0.16356358     0.113426 
   55800   -948.71917    39.892594   -908.82658    1428.8081    -3216.456    2.1779954  0.081483987   0.11233061 
   55900   -945.97282    44.831909   -901.14091    1605.7164    1806.2752    2.1787658   0.21442798   0.12051705 
   56000   -947.29822    42.310552   -904.98767    1515.4105    8841.8848    2.2013169   0.11174471   0.11511274 
   56100   -947.36237    38.362906   -908.99946    1374.0202     -3301.83    2.1758758   0.31294359   0.12312379 
   56200   -950.48773     40.50114   -909.98659    1450.6039   -11157.047    2.1557717  0.038179013   0.10791136 
   56300   -947.09765    42.095792   -905.00186    1507.7186    6704.2944    2.1955267   0.13346169   0.11332441 
   56400   -944.09486    42.960868   -901.13399    1538.7025    17024.549    2.2149499   0.25963783    0.1316466 
   56500    -952.0885    43.076052   -909.01245     1542.828   -2061.1451    2.1815545   0.20832986   0.11156357 
   56600    -950.4824    40.759114   -909.72329    1459.8437   -11021.601    2.1577644   0.22942768   0.11972392 
   56700    -951.5397    44.677217   -906.86248    1600.1759   -2929.0928    2.1795236    0.2617221    0.1098105 
   56800   -946.28318    47.609497   -898.67368    1705.1995    6152.1865    2.1914225   0.21108187   0.11559981 
   56900   -949.30692    41.565808   -907.74111    1488.7365    7328.4071      2.20111   0.07540437   0.10486346 
   57000   -951.69253    42.008475   -909.68406    1504.5912   -7067.9815    2.1736595   0.41318008   0.11129764 
   57100   -950.76574    42.614774   -908.15097    1526.3067   -6650.7016    2.1710968  0.078287048   0.11737275 
   57200   -946.92661    47.692196   -899.23442    1708.1615    2084.8438    2.1812183   0.37937709   0.12282936 
   57300   -949.70012    42.281582   -907.41854    1514.3729    9928.3984    2.2099015  0.071650511   0.11670616 
   57400   -953.80707     43.92519   -909.88188     1573.241   -5043.9336    2.1818803   0.21193735    0.1148214 
   57500   -950.05504    41.159371   -908.89567    1474.1794   -8152.1208     2.166372   0.16152188   0.12681804 
   57600   -946.38859    45.725136   -900.66345    1637.7085    1325.4891    2.1806784   0.22543071   0.12160684 
   57700   -948.39042    43.568519    -904.8219    1560.4663     7552.751    2.2015038  0.067328519   0.11722886 
   57800   -950.22442    41.094594   -909.12982    1471.8593   -835.35337    2.1879214  0.081729443   0.10651061 
   57900   -947.99027    38.305413   -909.68486     1371.961   -1148.6803    2.1810401   0.17083243   0.10993022 
   58000   -946.86646    42.624551   -904.24191    1526.6569    1768.5259     2.186819   0.15802837   0.12603518 
   58100    -947.3294    43.962297    -903.3671      1574.57    1737.2989     2.188016   0.61165568    0.1349839 
   58200     -952.693    43.448808    -909.2442    1556.1787   -3305.9376     2.185495   0.12158981   0.12834061 
   58300    -950.5731    40.908283   -909.66482    1465.1863   -2349.9122    2.1865222  0.052509408   0.11740608 
   58400   -949.26999    45.564741   -903.70525    1631.9638    2268.3969     2.189747  0.013290713   0.11803462 
   58500   -950.03076    46.355403   -903.67536    1660.2824    1749.9582    2.1864579  0.080883351   0.11544918 
   58600   -951.89665    42.254351    -909.6423    1513.3976   -4838.8053    2.1779806   0.11604387   0.11619954 
   58700    -947.4499     38.04593   -909.40397    1362.6673    405.12073    2.1835192  0.066820632   0.12030927 
   58800   -948.55478    45.782952   -902.77183    1639.7793    6306.1062    2.1978372   0.12838974   0.11102115 
   58900   -949.72052    44.535769   -905.18475    1595.1097    6232.3518    2.1969483   0.13523119   0.11081112 
   59000   -949.97127    39.963615   -910.00766    1431.3517    -12921.13    2.1543006   0.20071174   0.12079809 
   59100   -948.56456    39.159678   -909.40488    1402.5577   -8290.7719    2.1628588    0.1116109   0.11723922 
   59200   -951.25054    46.792192   -904.45835    1675.9266    13907.708    2.2196161   0.38060956   0.10760734 
   59300   -949.42629    48.966834   -900.45946    1753.8144    7667.7591     2.197909   0.14785864   0.10701705 
   59400    -950.6909    41.497304   -909.19359    1486.2829   -7282.9946    2.1675592  0.059703403   0.10763014 
   59500   -951.47314    41.975609   -909.49753    1503.4141   -6267.7091     2.171542   0.11077433   0.10682328 
   59600   -950.57595    43.195693   -907.38025    1547.1131    4080.5106    2.1967253   0.16033052   0.11468808 
   59700    -945.9111    47.025794   -898.88531    1684.2934    5399.8479    2.1895708 0.0042023932   0.11978302 
   59800   -949.41228    43.195912   -906.21637    1547.1209    -1017.898     2.181994   0.21633666   0.10473101 
   59900   -949.26818    40.008844   -909.25934    1432.9717    -7254.502    2.1658152   0.16714242   0.11405983 
   60000   -952.69908    43.225583    -909.4735    1548.1836   -3201.2683    2.1834612    0.1943433   0.11771965 
   60100   -951.98395    40.272801   -911.71115    1442.4257    7241.0336    2.2105799   0.23128516   0.10794945 
   60200    -955.2064    37.324385   -917.88201    1336.8241    6132.3973    2.2142709   0.19326903   0.11548583 
   60300   -952.16313    41.035197   -911.12794    1469.7319   -5063.8767    2.1770988  0.052824902   0.10039246 
   60400   -949.15721    40.255723   -908.90149     1441.814     -5371.22    2.1714557  0.084539968  0.098311179 
   60500   -950.06053    43.187548   -906.87298    1546.8213    3872.2343    2.1936416  0.036632705    0.1225288 
   60600   -951.68648    40.622993   -911.06349    1454.9683    4655.1724    2.2009894   0.03719828   0.10899046 
   60700    -954.1732    39.822704   -914.35049    1426.3048   -1739.8613    2.1918832   0.29850924     0.119367 
   60800   -951.46795    41.147188   -910.32077     1473.743   -3416.6432     2.180464   0.14330095   0.11015099 
   60900   -948.69487    41.367419   -907.32745    1481.6309    3251.7158    2.1886598  0.056485178   0.10291433 
   61000   -952.53344    40.100426   -912.43302    1436.2518     3351.173    2.1991431  0.051735037   0.11339529 
   61100   -953.93977     39.72246   -914.21731    1422.7145   -2778.2063    2.1898791    0.1066149    0.1098844 
   61200   -951.13225    42.752365   -908.37989    1531.2347    -4871.304    2.1753226    0.1013231   0.11987757 
   61300     -951.088    42.333186   -908.75481    1516.2212    1459.0245    2.1921642  0.088389332   0.10432664 
   61400   -956.55731    40.838149   -915.71916    1462.6744    7841.7836    2.2202277 0.0019826832   0.10050639 
   61500    -949.0132    41.353371   -907.65983    1481.1278   -2299.2452    2.1775961   0.22472458   0.12035953 
   61600   -948.18614     40.07646   -908.10968    1435.3935   -5361.4895    2.1661931   0.12566545   0.11852459 
   61700   -952.12101    40.683588   -911.43742    1457.1386    1617.0419    2.1943671   0.11015933   0.10634162 
   61800   -956.96752    42.456582   -914.51094    1520.6408    7966.7521    2.2194032  0.055385621   0.10247076 
   61900   -950.12672    44.736212   -905.39051    1602.2889   -4093.0104    2.1768889  0.037777525   0.12137181 
   62000   -949.80546      40.8905   -908.91496    1464.5494   -7833.0141    2.1639317   0.10284657   0.10240774 
   62100   -953.24582    42.105684   -911.14013    1508.0729   -1768.8551    2.1898414  0.088884295   0.10999116 
   62200   -956.33909    44.787653   -911.55144    1604.1313    8110.5055    2.2181248  0.090899843  0.095479853 
   62300    -946.6393    43.543624   -903.09568    1559.5747    870.88967    2.1765134  0.096493037   0.11010871 
   62400   -948.24639    39.991167   -908.25522    1432.3386   -8990.2787    2.1632315  0.023968137   0.11927997 
   62500    -951.4574    40.867073   -910.59032    1463.7104   -1143.8357    2.1879501  0.035471762   0.10978327 
   62600   -951.29781    41.366556   -909.93125       1481.6    9642.5495     2.214642   0.18201515   0.10666148 
   62700   -947.35882    44.939641   -902.41918     1609.575   -219.29476    2.1786103   0.14587604   0.11303439 
   62800   -948.08881    38.889736   -909.19907    1392.8893    -7040.534    2.1683246   0.31774142   0.11752545 
   62900   -950.37909    40.314949   -910.06414    1443.9353   -269.24597    2.1871916  0.053003182   0.10836169 
   63000    -951.7513    48.109272   -903.64202    1723.0996    5375.1778    2.1999108   0.13388397   0.11758416 
   63100   -949.70578    44.369294   -905.33649    1589.1472    789.88405    2.1869022   0.10854813   0.10814811 
   63200   -948.85077    37.997127   -910.85365    1360.9193   -3672.1263    2.1760478   0.12042802   0.10811801 
   63300   -948.89139    40.806886    -908.0845    1461.5547   -1470.0236    2.1830765   0.11293476   0.11673152 
   63400   -944.32866    42.284746   -902.04391    1514.4862    5217.9891    2.1863791      0.13979    0.1125532 
   63500   -952.78493    41.935512   -910.84941     1501.978    3084.7216    2.1969905  0.070227451   0.11792319 
   63600   -952.10398    41.698252   -910.40573    1493.4802    -3640.487    2.1785006   0.11928318   0.11668622 
   63700   -948.75887    41.536344   -907.22253    1487.6812   -2663.3441    2.1790316   0.14595153   0.11436711 
   63800   -949.11175    42.389354   -906.72239     1518.233    3941.5506    2.1912425   0.10941297   0.11625794 
   63900   -953.33616    38.677882   -914.65828    1385.3015    5407.0413     2.210543  0.054739012   0.11379191 
   64000   -951.60807    41.675472   -909.93259    1492.6643   -2644.5741    2.1850732  0.027035389   0.10361967 
   64100   -947.67553    40.229615   -907.44592    1440.8789   -2687.1244    2.1738327     0.117214   0.11122055 
   64200    -954.4268    40.592793   -913.83401    1453.8866    -1385.065    2.1934022  0.031504576   0.10366428 
   64300   -953.50202    40.634961   -912.86706     1455.397    3753.8524    2.2061175  0.065356155   0.10617288 
   64400   -951.55454    44.381829   -907.17271    1589.5962    2872.9795     2.195827  0.065524354   0.12031541 
   64500   -950.52626    40.050701   -910.47556    1434.4709   -4960.9093    2.1744876    0.2028009   0.10612861 
   64600   -953.49611    37.283962   -916.21214    1335.3763   -8639.2945    2.1783701   0.12869571   0.11712765 
   64700   -951.15146    43.214012   -907.93745    1547.7692    5413.6731    2.2006786   0.21264861   0.10670183 
   64800   -950.84522    43.827982   -907.01724    1569.7594    16613.189    2.2290991   0.20399286   0.11533225 
   64900   -951.75428    39.361958   -912.39232    1409.8026   -3962.3112     2.180225   0.12629863   0.11750808 
   65000   -944.52385    39.645817   -904.87803    1419.9694   -13694.914     2.143516  0.067004753   0.11292488 
   65100   -953.20687    47.706579   -905.50029    1708.6767    -2538.189    2.1828779   0.17989883  0.097482907 
   65200    -949.0365    39.644675   -909.39182    1419.9285    11390.761    2.2111123  0.075033588  0.095134962 
   65300   -950.77363    40.039745   -910.73388    1434.0785    784.27031    2.1910013   0.06656469   0.11712181 
   65400     -944.129    42.247356   -901.88165    1513.1471   -6905.6926    2.1541425  0.025738691   0.11939107 
   65500   -950.08217    40.229715   -909.85246    1440.8825     860.1005    2.1877725  0.026482437   0.11469051 
   65600   -950.86086    40.864999   -909.99586    1463.6361    4918.2887     2.200994  0.037604203   0.10019941 
   65700   -950.49924     45.05187   -905.44737    1613.5946    101.25603    2.1817747   0.11657973   0.10011482 
   65800   -949.24738    44.677095   -904.57028    1600.1715   -6422.4528    2.1655993   0.10638254   0.10976401 
   65900   -952.67673    41.088156   -911.58857    1471.6287   -1241.7769    2.1864895   0.11447758  0.092385064 
   66000   -952.26565    44.041744   -908.22391    1577.4156    5678.6122    2.2032802   0.05679008   0.10718948 
   66100   -951.16216     45.64002   -905.52214      1634.66    2951.4014    2.1934204   0.05369839   0.10688298 
   66200   -950.82643    39.020697   -911.80574    1397.5798   -10588.451    2.1622895 0.0044525777   0.11414103 
   66300   -950.36738    37.677078   -912.69031    1349.4563   -9187.8082    2.1655515   0.18548479   0.11261543 
   66400    -949.3373    41.501528   -907.83577    1486.4342    12988.271    2.2153898  0.084995131   0.11065959 
   66500    -952.1408    43.995861   -908.14494    1575.7722    11843.016    2.2184158   0.10409518   0.10745958 
   66600   -957.00892    41.118108   -915.89081    1472.7015   -10542.716    2.1751125  0.018836453   0.10806797 
   66700   -955.23332    43.176765   -912.05656    1546.4351   -9987.2062    2.1703027  0.086066013   0.11006446 
   66800   -950.38757    42.591389   -907.79619    1525.4691    2902.1483    2.1910307   0.15114743   0.10488387 
   66900    -947.7908    39.299566   -908.49123    1407.5679    6793.9201    2.1984426  0.053227675   0.11722002 
   67000    -954.0319    37.289779   -916.74212    1335.5847   -858.42732    2.1929701   0.17528881  0.095201689 
   67100   -952.56271    42.008147   -910.55457    1504.5795   -8941.5588     2.171716   0.18450296    0.1279177 
   67200   -947.60917    39.613705   -907.99546    1418.8193    3438.1275    2.1900239   0.10432907   0.12589997 
   67300   -950.42784    39.971355   -910.45649     1431.629    6065.1263      2.20492  0.058611556   0.11698617 
   67400   -954.54761    36.898602   -917.64901    1321.5741    1742.2128    2.2039637  0.081359733   0.11996405 
   67500   -949.91835    40.928627   -908.98973     1465.915    -8606.804     2.164754  0.057026717    0.1150406 
   67600   -951.22428    42.473689   -908.75059    1521.2535   -1080.4263    2.1853549   0.18276449   0.11980491 
   67700   -952.33336    42.734155   -909.59921    1530.5824    8611.8316    2.2110202   0.18074388    0.1098628 
   67800   -953.99315    37.824602   -916.16855    1354.7401    3035.0267    2.2049239   0.11427835  0.098467356 
   67900   -954.35502    39.054597   -915.30043     1398.794   -8271.2306    2.1756406   0.01585235   0.10674019 
   68000   -949.46185    38.957843   -910.50401    1395.3286   -3025.2701    2.1809772   0.35111582   0.12637824 
   68100    -949.8825    41.550407   -908.33209    1488.1849    6707.0043    2.2038225  0.037482108   0.11107838 
   68200   -950.23615    40.421885   -909.81426    1447.7653    7347.0297    2.2045912   0.10497695   0.11501998 
   68300   -956.62544    39.155918   -917.46952     1402.423   -4341.9291    2.1913062   0.20751348   0.10627726 
   68400   -951.00448    40.610917   -910.39357    1454.5358   -8783.7364    2.1664437   0.14556581    0.1166682 
   68500   -951.87785    43.538903   -908.33894    1559.4056    1566.2666    2.1927533  0.080049872   0.12133751 
   68600   -949.77763    40.074934    -909.7027    1435.3388     18237.25      2.23217   0.04392922   0.11576505 
   68700   -953.46366    36.283169   -917.18049    1299.5315    2579.4949    2.2057525   0.16084146   0.12092252 
   68800   -949.71517    41.067228   -908.64794    1470.8792   -20631.623    2.1323982   0.08727956   0.12093116 
   68900   -949.09992    40.741162   -908.35876    1459.2007   -5743.0558     2.172914  0.018914776   0.12606954 
   69000   -952.97435    42.360554   -910.61379    1517.2014    10366.969    2.2197773   0.10282604   0.12065489 
   69100    -955.9787    38.537764   -917.44093    1380.2829    5723.6581     2.213757    0.0349172   0.10179947 
   69200   -950.32362    40.856512   -909.46711    1463.3321   -7864.3555    2.1696138   0.15900898   0.12482906 
   69300   -950.93245     42.05005    -908.8824    1506.0803   -2462.1858    2.1801447  0.061128428   0.11198893 
   69400   -948.75846    40.024587   -908.73387    1433.5356    7609.4044    2.2030472  0.034528253   0.13453948 
   69500   -951.90933    38.138162   -913.77117    1365.9707    3146.5648     2.200778     0.132395   0.11227918 
   69600   -954.02348    37.804609   -916.21887     1354.024   -2718.2397    2.1866692   0.23489428    0.1077256 
   69700   -955.04245     45.15044   -909.89201     1617.125   -5322.9996    2.1805011   0.13817278   0.10119904 
   69800    -954.0284    45.587362   -908.44103     1632.774    1297.1964     2.194435  0.083694014   0.11263925 
   69900   -951.88764    41.639743    -910.2479    1491.3846    3704.6118    2.1993857   0.12591879   0.12322456 
   70000   -954.31027     37.41714   -916.89313    1340.1463     606.8467    2.1995481  0.090370117   0.09967046 
   70100   -950.54603    40.444694   -910.10134    1448.5823   -7248.2811    2.1727415  0.075633131   0.12240977 
   70200   -948.35988    40.145393   -908.21449    1437.8624    52.048314    2.1816876  0.040124953   0.10509406 
   70300   -952.66024    40.384132   -912.27611    1446.4132    8154.4314    2.2104875  0.055559077   0.11401842 
   70400   -957.10502    41.704759   -915.40026    1493.7132    3549.0386    2.2103592  0.070790582   0.11848613 
   70500   -950.54997    42.078626   -908.47135    1507.1038   -8607.7277    2.1631204   0.32908557    0.1145577 
   70600   -949.99919    40.754784   -909.24441    1459.6886   -9388.6659    2.1600146   0.13524339   0.10774806 
   70700   -952.95398     39.65223   -913.30176    1420.1991    8933.6861    2.2145793  0.018271998   0.10303693 
   70800   -955.08896    38.969478   -916.11948    1395.7454     15899.94    2.2372915   0.21243569   0.11718534 
   70900   -948.74065     40.44765     -908.293    1448.6881   -5338.7246    2.1686165   0.04615034   0.12447819 
[...]
  186800   -951.49734    43.948691   -907.54865    1574.0827    377.49391    2.1880478    19.058474   0.11627204 
  186900   -953.36126    50.755769   -902.60549    1817.8876    4355.7562    2.1952221    19.776491   0.10162233 
  187000   -954.50962    43.296465   -911.21315    1550.7224    2242.8553    2.1962898    19.857787   0.10836274 
  187100   -949.61455    40.001736   -909.61281    1432.7171   -3399.6889    2.1767173    23.324393   0.11744346 
  187200   -950.00597    45.462989   -904.54299    1628.3194   -5359.4535    2.1709531    20.227558   0.13164484 
  187300   -952.83693    39.683645   -913.15329    1421.3242     2708.016    2.2017533    21.078051   0.12431992 
  187400   -952.88467    41.697047   -911.18762     1493.437   -618.98778    2.1939756    20.751588   0.12090858 
  187500   -949.01951    41.972372   -907.04714    1503.2982   -2223.6522    2.1781857    19.224575   0.12507236 
  187600   -948.82269    38.631435   -910.19125    1383.6379   -2182.1303    2.1841486    18.359874   0.11747246 
  187700   -951.51995    37.660457   -913.85949     1348.861    5130.3977    2.2058976    17.337598   0.12078413 
  187800   -950.36244    43.325414   -907.03703    1551.7592    4018.3278    2.1966558    19.271991   0.12007288 
  187900   -948.88343    39.383609   -909.49982    1410.5781   -1380.4832    2.1833857    20.972567   0.12592876 
  188000   -953.64651    37.809595   -915.83692    1354.2026   -5871.6055     2.186786    18.512839   0.12136359 
  188100   -950.84627     43.10528   -907.74098    1543.8748   -821.44079     2.188225    20.386253   0.12697965 
  188200   -948.59897    40.583921   -908.01505    1453.5689    8678.3489    2.2108236    19.046969    0.1304705 
  188300   -955.55556    42.240899   -913.31466    1512.9158     280.4635    2.2000167    18.625674   0.12444417 
  188400   -950.58462    45.645995   -904.93863     1634.874   -10831.847    2.1606305    22.210295   0.12772467 
  188500   -948.71445    41.615084   -907.09936    1490.5014   -1138.4258    2.1850478    19.095855    0.1307787 
  188600   -951.39723    41.063879   -910.33335    1470.7592     9571.967    2.2148666    18.554673   0.12118873 
  188700   -951.22353    42.472474   -908.75106      1521.21    4400.6564    2.2004319     20.19812   0.11732438 
  188800    -947.3894    43.869712   -903.51968     1571.254    -11875.06    2.1520724     18.40182   0.12644549 
  188900   -948.98208    37.337366   -911.64471    1337.2891   -7021.5676     2.174819    21.715058   0.12660042 
  189000   -949.08406    40.231613   -908.85245    1440.9505    11128.191    2.2154579    22.290393   0.12907884 
  189100   -947.27366    44.617317   -902.65634    1598.0305    10458.303    2.2047261    21.156444   0.12595688 
  189200   -950.25032    40.273961   -909.97636    1442.4672   -4744.8918    2.1762185    19.072479   0.12631104 
  189300   -951.13198    40.231916   -910.90006    1440.9613   -6769.6079    2.1717403     19.07836   0.11842996 
  189400    -952.4956     46.98477   -905.51083    1682.8241   -80.500739    2.1883234    19.802114    0.1182544 
  189500    -953.2956     42.31583   -910.97977    1515.5996    3726.6728    2.2034573    21.146226   0.11625921 
  189600   -953.38407    40.844376   -912.53969    1462.8974   -1071.7753     2.193735    18.552224   0.12133965 
  189700   -951.67441    44.640554   -907.03385    1598.8628   -3581.5503    2.1804185     18.77847   0.12008695 
  189800   -952.47893     43.02954    -909.4494    1541.1621   -1653.4967    2.1898955    19.960626   0.11914649 
  189900   -954.32347    40.262945   -914.06052    1442.0727    3732.0879    2.2090531    20.417524   0.12105269 
  190000   -951.13223     44.45927   -906.67296    1592.3698    341.28586     2.188509     20.33948    0.1126469 
  190100   -948.40916    38.955803   -909.45335    1395.2556   -3650.2817    2.1781082    22.485427   0.13417924 
  190200   -952.53784    37.895422   -914.64242    1357.2766   -40.631144    2.1955535     18.75911   0.12262379 
  190300   -949.18174    42.914031   -906.26771     1537.025     3185.144     2.195857    22.648191   0.12989429 
  190400   -951.55392    43.735532   -907.81838    1566.4482    5440.6447    2.2049437    17.790798   0.13494732 
  190500   -953.73434    40.778664   -912.95568    1460.5438    -4125.207    2.1861378    21.477606   0.11876969 
  190600   -943.59061    38.561813    -905.0288    1381.1443   -7427.9006    2.1604243    20.665733   0.14153249 
  190700   -949.88361    43.302914    -906.5807    1550.9534    3461.9357    2.1970083    20.135631   0.13812832 
  190800    -954.6323     44.10353   -910.52877    1579.6285    10591.219    2.2235417    22.927313   0.12840905 
  190900   -949.96383    42.672227    -907.2916    1528.3644    -1983.413    2.1840928    17.528518   0.13497564 
  191000   -946.12102    41.250067   -904.87095    1477.4278   -13949.892    2.1469826    23.073957   0.12889104 
  191100   -953.44457    40.715874    -912.7287     1458.295   -2085.0252    2.1875575    23.895787   0.10982488 
  191200   -951.28176    43.623196   -907.65857    1562.4247    12168.821    2.2176682    22.009091   0.12077191 
  191300    -948.1981    42.236787   -905.96132    1512.7685     3633.581    2.1928336    19.032821   0.12339103 
  191400   -952.32875    37.983567   -914.34519    1360.4336   -2470.9507    2.1857993     19.55369   0.11774927 
  191500     -951.052    41.386332   -909.66566    1482.3083   -3220.4019    2.1804516    19.105519   0.11684205 
  191600    -951.8056    45.719276   -906.08632    1637.4987   -455.87542    2.1878887    18.941736   0.10534884 
  191700    -954.9745    40.961198    -914.0133    1467.0816    1968.1392     2.203127    23.131631   0.11367526 
  191800   -952.80808    42.656069   -910.15201    1527.7857   -2099.4522    2.1847633    20.927132   0.12270358 
  191900   -947.24306    40.445118   -906.79794    1448.5974   -320.95799    2.1798614    21.772951   0.12137759 
  192000   -950.39977    37.652052   -912.74772      1348.56    2937.8575    2.1945768    20.922569    0.1198438 
  192100     -951.901    41.171161   -910.72983    1474.6017     2616.037     2.198958    22.168312   0.11313998 
  192200    -951.5886    45.933681   -905.65492    1645.1779   -1787.6374    2.1836171    21.218183    0.1147064 
  192300   -954.20854    42.589512   -911.61903    1525.4019   -6352.8912    2.1802617    20.104906   0.11714661 
  192400   -950.32751    40.632937   -909.69457    1455.3245   -1585.1801    2.1854513     17.45195   0.10759356 
  192500    -949.6439     45.95709   -903.68681    1646.0163    6529.3095    2.1980112    21.112455   0.11633441 
  192600   -951.95539    41.551874   -910.40352    1488.2375    4471.3116    2.2038693    21.502635   0.11786604 
  192700   -953.53676      42.8886   -910.64816    1536.1141   -8255.5119    2.1700289    23.338748   0.11441213 
  192800   -949.74634    45.985584   -903.76076    1647.0369    -10831.65    2.1585568    22.093104   0.12270403 
  192900   -952.72047     41.09568   -911.62479    1471.8982    7469.4908     2.215273    21.422821   0.11850367 
  193000   -953.36072    43.436928   -909.92379    1555.7532    11129.232    2.2177142    19.716308   0.12760209 
  193100   -950.02077    44.509918   -905.51085    1594.1839   -5729.5752    2.1706202    20.589088   0.12115352 
  193200   -950.55784    39.252916   -911.30492    1405.8971   -10409.033    2.1632995    21.576749   0.11898263 
  193300   -949.38877    37.400364    -911.9884    1339.5454    3396.2386    2.1996308    20.168239   0.13385744 
  193400   -948.13399     42.78386   -905.35013    1532.3627    9338.6525    2.2079148    19.635274   0.11138649 
  193500   -952.73749    41.819698    -910.9178    1497.8299    6.5694113    2.1946102    19.232624   0.11539305 
  193600   -952.74935     39.32447   -913.42488    1408.4599   -5634.8246    2.1806456    21.313945   0.10714959 
  193700   -947.79753    41.475804   -906.32172    1485.5129   -2529.6976    2.1781292     23.04183   0.12728106 
  193800   -951.77024    41.499099   -910.27114    1486.3472    3374.3119    2.2022601    20.906458   0.13104839 
  193900   -956.20436    42.625295   -913.57906    1526.6835    2638.6203    2.2051888    20.687306   0.12257486 
  194000   -949.04224    43.847107   -905.19513    1570.4444    -2538.856    2.1748054    21.549324   0.12379166 
  194100   -951.93091    42.231816    -909.6991    1512.5905    -3061.733    2.1833572    18.081185    0.1152304 
  194200   -955.51929    43.403342   -912.11595    1554.5503    1521.2126    2.1993726    19.844322   0.10129228 
  194300   -948.07586    44.372413   -903.70345    1589.2589    2163.8992    2.1859179    18.133164   0.11472926 
  194400    -950.7804    41.237806   -909.54259    1476.9887     337.7043    2.1913507    19.817559   0.12955732 
  194500   -951.36556    39.483317   -911.88225    1414.1492   -1201.5383    2.1896473    19.414757   0.10981964 
  194600    -949.7061    45.875968   -903.83013    1643.1108   -2394.3937    2.1738816    21.384446  0.099676843 
  194700   -950.70974    40.606952   -910.10279    1454.3938    3486.6025     2.197791    22.309599   0.11688258 
  194800   -953.06114    41.827919   -911.23322    1498.1244    168.05971    2.1955901    20.577658   0.10754465 
  194900   -946.79707    41.883448   -904.91362    1500.1132   -5992.6398     2.163496    22.169924   0.14132372 
  195000    -950.3944    40.959239   -909.43516    1467.0114    -4238.845    2.1760975    18.370049   0.13499254 
  195100   -953.22295     41.77317   -911.44978    1496.1635      5483.03    2.2032238    20.718191   0.10359185 
  195200    -947.2366    41.581301    -905.6553    1489.2914    8155.3126    2.1967928    18.467127   0.11728245 
  195300   -949.28581    40.077111    -909.2087    1435.4168    -2910.916    2.1727743    18.156333   0.10395961 
  195400   -953.69216    40.044199   -913.64796     1434.238   -6880.4552     2.174924     18.72457   0.11302458 
  195500   -952.41485     45.71628   -906.69857    1637.3914    901.63263    2.1891346    18.438725   0.12033304 
  195600   -952.98009    44.065226   -908.91486    1578.2566    7571.9986    2.2088834     20.58555  0.095218125 
  195700   -954.20681    39.754361   -914.45245     1423.857   -301.37307    2.1956793    22.147279    0.1119859 
  195800   -950.43868    43.731648   -906.70704     1566.309   -10338.399    2.1607446    21.762418   0.12431319 
  195900   -948.04633    39.367663   -908.67867    1410.0069   -499.27917    2.1845446    18.533166   0.13012263 
  196000   -953.19058    40.415285    -912.7753     1447.529    9172.9605    2.2185032    19.171194   0.13701328 
  196100   -948.63291    44.187411    -904.4455    1582.6328    2561.2852    2.1894133    18.486685   0.12494928 
  196200    -950.5277    42.097013   -908.43069    1507.7623    -6724.769    2.1716296    17.313123   0.10454053 
  196300   -951.78189    39.449443   -912.33245     1412.936   -2172.4417    2.1833962    22.383938   0.11996981 
  196400   -946.15515    41.294905   -904.86024    1479.0337    7817.1161    2.1992138    18.907181   0.11772793 
  196500    -947.4588     40.75895   -906.69985    1459.8378    9441.6427    2.2074104    19.388796   0.11912695 
  196600   -951.00624    38.837189   -912.16906    1391.0073   -6324.2244    2.1780767    20.135612   0.12324165 
  196700   -948.63726    42.013258     -906.624    1504.7625   -12135.747    2.1527194    20.622679   0.11910898 
  196800   -947.34135    42.991623   -904.34973     1539.804    5657.8005    2.1955412    20.335959   0.12696876 
  196900   -952.25924    41.997987   -910.26125    1504.2156    20518.827    2.2439733    18.555281   0.13410081 
  197000   -948.73434    40.039013   -908.69533    1434.0522   -2377.0675    2.1839297    16.852255   0.13122126 
  197100   -951.09899    44.883821   -906.21517    1607.5757   -18797.693    2.1425976    19.198532   0.12527286 
  197200    -954.9316    40.725425   -914.20618     1458.637   -1601.2303    2.1961503    21.985576   0.10249855 
  197300   -953.32027    44.525356   -908.79492    1594.7368    6627.6047    2.2109425    21.237437   0.11619739 
  197400   -949.75724    42.991109   -906.76613    1539.7856    1973.1614    2.1937996    20.164039   0.13455302 
  197500   -953.16383    39.275367   -913.88846    1406.7012   -4796.4561    2.1846514    18.908697   0.11241372 
  197600   -950.79983    41.806282   -908.99355    1497.3494   -4236.0595    2.1795569    20.822312   0.11594837 
  197700   -949.10376    43.125263    -905.9785    1544.5905    4630.5827    2.1969384    21.261993   0.12458187 
  197800   -955.75716    43.859426   -911.89773    1570.8856    3768.8746    2.2069641    19.100944   0.12361101 
  197900   -951.24289    41.987807   -909.25508     1503.851   -3327.6013     2.180002    18.351838   0.13322741 
  198000   -949.61054    44.380626   -905.22991    1589.5531   -8506.8094    2.1628132    17.549507   0.12248468 
  198100   -953.70811    42.164092   -911.54402    1510.1649    83.915105    2.1936135    20.497397   0.11355656 
  198200   -951.12756    41.847151   -909.28041    1498.8132    7941.3006    2.2112985    19.855472   0.11984133 
  198300   -945.99268    42.387403   -903.60527    1518.1631     1330.419    2.1801901    19.638219   0.11811285 
  198400   -950.09395    38.311739   -911.78221    1372.1875   -5589.4625    2.1751578    19.027025   0.11598604 
  198500   -949.50823    39.658895   -909.84934    1420.4378   -3044.6604    2.1791788    20.807061   0.12191502 
  198600   -946.31639    42.613969   -903.70242    1526.2778    8652.9986    2.2008129      23.5241   0.12324078 
  198700    -952.3213    40.466726   -911.85457    1449.3714    8959.1579    2.2157073    19.244451   0.11624082 
  198800   -948.62343    38.164606   -910.45883    1366.9178   -7154.0858    2.1713346     20.14224   0.16130132 
  198900   -948.09298    41.685317   -906.40767    1493.0169   -12238.226    2.1547193    18.253346   0.14738798 
  199000   -953.80839    40.716828   -913.09156    1458.3291    7106.1704    2.2139093    17.838766   0.10972532 
  199100   -953.98348    42.912156   -911.07132    1536.9578    15548.606    2.2334558    18.235162   0.10826981 
  199200   -947.77943    41.328256   -906.45118    1480.2283   -2530.5752    2.1779034    23.108626   0.11234661 
  199300   -950.96046    40.583171   -910.37728     1453.542   -13503.775    2.1570547    19.538005   0.11601351 
  199400   -957.97608    45.105481    -912.8706    1615.5147   -2823.1259    2.1965768    20.091915   0.11181851 
  199500   -950.49003    45.874748   -904.61529    1643.0671     3573.403    2.1938175    19.331354   0.11215884 
  199600   -951.85807    42.036295   -909.82178    1505.5876     1572.139     2.193637    20.062209   0.12713442 
  199700   -954.15391    41.344636   -912.80927    1480.8149   -6193.6814    2.1854374    19.489219   0.13330371 
  199800   -944.58016    40.426389   -904.15377    1447.9266    -1918.197    2.1762579    19.721849   0.14378457 
  199900   -952.48212    43.102056   -909.38006    1543.7593    3344.5268    2.2007038    19.306921   0.12170791 
  200000   -953.93165    42.343093   -911.58855     1516.576    2574.3319    2.1990953    17.203338   0.11210689 
  200100   -948.24276    43.944823   -904.29794    1573.9442   -3565.7635    2.1745507    22.838283   0.11261368 
  200200   -949.76018    39.526562   -910.23362    1415.6981   -2632.3363    2.1841433    21.864826   0.13257133 
  200300   -951.73658    40.286917   -911.44966    1442.9313    289.06565    2.1956693    21.915094   0.12543542 
  200400   -948.55457     44.02348   -904.53109    1576.7614    5810.9513    2.1938865    19.846064   0.11120032 
  200500   -952.27416     41.88749   -910.38667     1500.258    1002.3156     2.192555     19.31427   0.12764569 
  200600   -951.81204    39.386371   -912.42567     1410.677   -6211.0689      2.17558      19.7822   0.12810264 
  200700   -947.03487    40.818022   -906.21684    1461.9535   -2519.9025    2.1757744    20.492872   0.13662206 
  200800   -952.38115    41.560848   -910.82031    1488.5589    8158.7997    2.2124142    18.421896   0.13172775 
  200900   -955.45472    42.855286   -912.59944    1534.9209    4868.3355    2.2088028    18.143418   0.10713002 
  201000   -949.28045    42.650619   -906.62984    1527.5905   -9879.7681    2.1652039    23.088229    0.1207505 
  201100   -950.18841    40.818847   -909.36957    1461.9831   -9320.3418    2.1638041    22.916865   0.10608447 
  201200   -951.37429    38.338582    -913.0357     1373.149    7503.6779     2.211357    22.303704   0.12137061 
  201300   -951.37068    46.856934   -904.51375    1678.2455    10421.694    2.2123492    20.933848   0.11366587 
  201400   -952.70872    44.103025   -908.60569    1579.6104   -2733.4481    2.1818401    21.338441   0.11139914 
  201500   -954.99617    41.552887   -913.44328    1488.2737   -10318.274    2.1682582    20.301902   0.11381462 
  201600   -947.62856    41.738822   -905.88974    1494.9332    -1150.414      2.18236    24.945185   0.12570148 
  201700   -948.89578     42.23554   -906.66024    1512.7239    8489.6084    2.2018765     19.79339   0.14496637 
  201800   -953.18709    41.090078   -912.09701    1471.6976     2897.982    2.1964806    19.840139   0.10679929 
  201900   -947.43352    42.273016   -905.16051    1514.0661   -2663.3952    2.1718191    18.467013   0.11917045 
  202000   -946.84126      40.5514   -906.28986    1452.4041    1896.4226    2.1833651    23.757778    0.1051525 
  202100   -953.44103    42.071302   -911.36973    1506.8415    2033.6619    2.1975235    23.501692   0.10268235 
  202200   -948.09684    41.701719   -906.39513    1493.6043    3541.8262    2.1905821    24.779553   0.11600343 
  202300   -948.95369    43.958656   -904.99503    1574.4396   -2420.0212    2.1786849    19.181531   0.12362465 
  202400   -952.04795     39.99358   -912.05437     1432.425     -1159.58     2.188651    22.554088   0.11063783 
  202500   -950.22855    42.654766   -907.57379     1527.739    3393.9126    2.1933901    19.646406   0.11653524 
  202600   -949.01272    44.200359   -904.81236    1583.0966    3234.2341    2.1923594    23.079683   0.12996452 
  202700   -955.90515    42.532845   -913.37231    1523.3723   -422.80201     2.197114    21.705925   0.11995319 
  202800   -950.29546    41.235721   -909.05974     1476.914   -7845.5679    2.1703909    21.854439   0.12814277 
  202900   -945.73249    39.117082    -906.6154     1401.032   -1767.3324    2.1738669    21.978056   0.11623357 
  203000   -953.91951    39.574549   -914.34496    1417.4168    13321.983    2.2261574    21.798371   0.11267858 
  203100   -953.06506    44.006987   -909.05807    1576.1707    5871.4556     2.205215    19.709901   0.11729769 
  203200   -950.76162    43.059377   -907.70224    1542.2307   -10793.259    2.1619287    19.274997   0.11952436 
Loop time of 143.255 on 1 procs for 200000 steps with 217 atoms

Performance: 361.873 ns/day, 0.066 hours/ns, 1396.116 timesteps/s
100.0% CPU use with 1 MPI tasks x no OpenMP threads

MPI task timing breakdown:
Section |  min time  |  avg time  |  max time  |%varavg| %total
---------------------------------------------------------------
Pair    | 139.54     | 139.54     | 139.54     |   0.0 | 97.41
Neigh   | 0.59876    | 0.59876    | 0.59876    |   0.0 |  0.42
Comm    | 0.86746    | 0.86746    | 0.86746    |   0.0 |  0.61
Output  | 0.067295   | 0.067295   | 0.067295   |   0.0 |  0.05
Modify  | 1.8703     | 1.8703     | 1.8703     |   0.0 |  1.31
Other   |            | 0.3085     |            |       |  0.22

Nlocal:    217 ave 217 max 217 min
Histogram: 1 0 0 0 0 0 0 0 0 0
Nghost:    953 ave 953 max 953 min
Histogram: 1 0 0 0 0 0 0 0 0 0
Neighs:    4298 ave 4298 max 4298 min
Histogram: 1 0 0 0 0 0 0 0 0 0
FullNghs:  8596 ave 8596 max 8596 min
Histogram: 1 0 0 0 0 0 0 0 0 0

Total # of neighbors = 8596
Ave neighs/atom = 39.6129
Neighbor list builds = 1011
Dangerous builds = 0
Total wall time: 0:02:25
