LAMMPS (3 Mar 2020)
Reading data file ...
  orthogonal box = (0 0 0) to (17.469 17.469 17.469)
  1 by 1 by 1 MPI processor grid
  reading atoms ...
  217 atoms
  read_data CPU = 0.00105586 secs
Reading potential file library.meam with DATE: 2012-06-29
Reading potential file LiSi.meam with DATE: 2020-11-07
1 atoms in group Li
216 atoms in group Si
Neighbor list info ...
  update every 1 steps, delay 10 steps, check yes
  max neighbors/atom: 2000, page size: 100000
  master list distance cutoff = 6
  ghost atom cutoff = 6
  binsize = 3, bins = 6 6 6
  2 neighbor lists, perpetual/occasional/extra = 2 0 0
  (1) pair meam/c, perpetual
      attributes: full, newton on
      pair build: full/bin/atomonly
      stencil: full/bin/3d
      bin: standard
  (2) pair meam/c, perpetual, half/full from (1)
      attributes: half, newton on
      pair build: halffull/newton
      stencil: none
      bin: none
Setting up Verlet run ...
  Unit style    : metal
  Current step  : 0
  Time step     : 0.003
Per MPI rank memory allocation (min/avg/max) = 8.895 | 8.895 | 8.895 Mbytes
Step Temp E_pair E_mol TotEng Press Volume 
       0         1600   -951.04357            0   -906.37126   -115280.58    5330.9442 
    3200    1357.2775   -945.38922            0   -907.49377    7336.3764    4594.0847 
Loop time of 2.25423 on 1 procs for 3200 steps with 217 atoms

Performance: 367.948 ns/day, 0.065 hours/ns, 1419.551 timesteps/s
100.0% CPU use with 1 MPI tasks x no OpenMP threads

MPI task timing breakdown:
Section |  min time  |  avg time  |  max time  |%varavg| %total
---------------------------------------------------------------
Pair    | 2.1987     | 2.1987     | 2.1987     |   0.0 | 97.53
Neigh   | 0.0072367  | 0.0072367  | 0.0072367  |   0.0 |  0.32
Comm    | 0.013659   | 0.013659   | 0.013659   |   0.0 |  0.61
Output  | 2.53e-05   | 2.53e-05   | 2.53e-05   |   0.0 |  0.00
Modify  | 0.029722   | 0.029722   | 0.029722   |   0.0 |  1.32
Other   |            | 0.004934   |            |       |  0.22

Nlocal:    217 ave 217 max 217 min
Histogram: 1 0 0 0 0 0 0 0 0 0
Nghost:    957 ave 957 max 957 min
Histogram: 1 0 0 0 0 0 0 0 0 0
Neighs:    4162 ave 4162 max 4162 min
Histogram: 1 0 0 0 0 0 0 0 0 0
FullNghs:  8324 ave 8324 max 8324 min
Histogram: 1 0 0 0 0 0 0 0 0 0

Total # of neighbors = 8324
Ave neighs/atom = 38.3594
Neighbor list builds = 12
Dangerous builds = 0
Setting up Verlet run ...
  Unit style    : metal
  Current step  : 3200
  Time step     : 0.003
Per MPI rank memory allocation (min/avg/max) = 9.664 | 9.664 | 9.664 Mbytes
Step PotEng KinEng TotEng Temp Press Density c_msdli[4] c_msdsi[4] 
    3200   -945.38922    37.895448   -907.49377    1357.2775    7336.3764    2.1952812            0 4.6222319e-32 
    3300   -952.03142    46.770101   -905.26132    1675.1354    7246.6933    2.2038758  0.079186598  0.091999837 
    3400   -943.21733     42.58567   -900.63166    1525.2643   -2677.1569    2.1620208   0.11123817   0.11721821 
    3500   -949.52246    43.884771   -905.63769    1571.7934   -7507.3705    2.1613614  0.029656661   0.10705001 
    3600   -953.75429    48.187287   -905.56701    1725.8939     4144.484     2.199906   0.11908954   0.11207478 
    3700   -942.11813    44.846494   -897.27163    1606.2388    6888.0677    2.1804895   0.47048537   0.10690017 
    3800   -945.68922    41.750501   -903.93872    1495.3515   -5500.9785    2.1620312   0.66600248   0.10839457 
    3900   -947.82044    43.146572   -904.67386    1545.3537   -2870.6807    2.1664911   0.54708552   0.11791585 
    4000   -942.52906    46.674214   -895.85484    1671.7011    6640.9131    2.1826228    0.1819736   0.12120574 
    4100   -947.79235    45.199906   -902.59245    1618.8967    7692.0128     2.197092   0.11332632  0.094277312 
    4200   -947.42141    43.078926   -904.34248    1542.9309   -6726.0243    2.1637186   0.90212897   0.11605355 
    4300   -945.54876     47.17172   -898.37704      1689.52    -8530.173      2.15273  0.092039252  0.099289157 
    4400   -950.84798    44.089465   -906.75851    1579.1247     7859.361    2.2071146   0.16030876    0.1108804 
    4500   -950.95803    46.333053   -904.62498    1659.4819    3739.5323    2.1945092   0.13952635   0.12368483 
    4600   -943.68223    43.769141   -899.91309    1567.6519   -5107.6577    2.1575454   0.25875605   0.12266051 
    4700   -946.71751    40.307122   -906.41038    1443.6549   -3830.6259     2.170483   0.27842401   0.11637638 
    4800   -951.45021    45.660635   -905.78958    1635.3983    4377.5106    2.1991458   0.08114929   0.12064555 
    4900   -945.92986    46.990822   -898.93904    1683.0408    5826.1874    2.1900401   0.19126744    0.1017727 
    5000    -949.1383    44.033153   -905.10514    1577.1079   -7648.6611     2.165953   0.10978244   0.11621784 
    5100   -950.03981    43.303845   -906.73596    1550.9867   -5922.1237    2.1703105    0.1463011    0.1131838 
    5200   -944.09109    45.774026   -898.31706    1639.4596    7207.0058    2.1885852   0.26301295   0.12202294 
    5300   -947.66038    44.725621   -902.93476    1601.9095    6619.0685    2.1957942   0.21551997   0.12956768 
    5400   -949.94889    42.552693   -907.39619    1524.0832   -6437.9251     2.169453   0.30959654   0.12756432 
    5500   -941.29998    42.965027   -898.33496    1538.8515   -4180.7661    2.1568339   0.23728158   0.13573103 
    5600   -949.90653    47.760631    -902.1459    1710.6126    6010.0445     2.199012   0.32201432   0.13407495 
    5700   -950.02503    44.672564   -905.35246    1600.0092    5770.3918    2.1967046   0.36877661    0.1161762 
    5800    -943.9517    45.488301    -898.4634     1629.226   -6863.3706    2.1514578   0.19468507   0.11503701 
    5900   -948.52208    47.411705   -901.11037    1698.1153   -5595.9924    2.1651398  0.079065583   0.12246231 
    6000   -951.57711    46.595865   -904.98125    1668.8949    6491.8606    2.2009715   0.36140397   0.11662278 
    6100   -948.24429    48.561946   -899.68234    1739.3128    5051.3745     2.190777   0.15710566   0.12441979 
    6200   -945.37934    44.745476   -900.63386    1602.6207   -8538.3698    2.1524854   0.31197801   0.12870498 
    6300   -947.83325    40.173803   -907.65945    1438.8799   -3895.0401    2.1731122   0.23840841   0.11865218 
    6400    -946.6592    45.880244   -900.77896    1643.2639    9260.8872    2.1981886    0.1894532   0.12034617 
    6500   -946.20612    44.580597   -901.62552    1596.7153    3175.2286    2.1851329   0.25230638   0.12619554 
    6600   -952.75978    43.125798   -909.63398    1544.6097    -6807.381    2.1706253   0.29760465  0.092139918 
    6700   -949.50032    46.625103   -902.87521    1669.9421   -6947.5822    2.1645982  0.085356927   0.11176426 
    6800   -947.82885    47.686523   -900.14233    1707.9583     5381.589    2.1900865   0.16137808   0.11091676 
    6900   -949.31813    41.417394   -907.90074    1483.4209    6996.1798    2.1978113   0.11360355    0.1149138 
    7000   -945.75789     43.36066   -902.39723    1553.0216   -4641.8016    2.1598741   0.30608968   0.12881925 
    7100   -948.88646    48.521777   -900.36469    1737.8741   -4282.1967    2.1658255   0.11540352   0.11174506 
    7200   -952.17382    46.591335   -905.58249    1668.7327    2676.3298    2.1923678  0.090723529   0.10236807 
    7300   -950.77818    45.182189   -905.59599    1618.2622    1227.2031    2.1874316  0.083765341   0.12254658 
    7400   -947.13828    48.500069   -898.63821    1737.0966   -7804.0123    2.1550561    0.1252365    0.1299955 
    7500   -946.82816    41.921974   -904.90618    1501.4931   -688.37396    2.1762229   0.45073871   0.10654239 
    7600   -951.41995    46.926213   -904.49373    1680.7268    1704.8865     2.190035   0.15286814   0.11216885 
    7700   -943.18528    46.441707   -896.74358    1663.3735   -1388.8464    2.1649057  0.059891703   0.12156542 
    7800   -947.88853    42.836685   -905.05184    1534.2547    79.959657    2.1797163  0.054119755   0.11768007 
    7900   -949.15773    45.322498   -903.83523    1623.2875   -5.9893198    2.1803207   0.14772619   0.12125102 
    8000   -944.19552    47.137188   -897.05834    1688.2831   -2118.4497    2.1682078   0.21379485   0.13618254 
    8100    -947.6649    41.733033   -905.93187    1494.7259    2097.1094    2.1867213   0.31737008   0.11531598 
    8200   -949.77205    45.392243    -904.3798    1625.7855   -4482.0391    2.1715282   0.66911319   0.11872049 
    8300   -946.09926    47.193655   -898.90561    1690.3056   -1846.3094    2.1692002   0.50631866   0.11057172 
    8400   -951.88937    44.365725   -907.52365    1589.0194    4064.0492    2.1952496  0.064827424   0.10616415 
    8500   -945.25439    40.720425   -904.53396    1458.4579     1422.373    2.1796095   0.47898704    0.1077183 
    8600   -943.85854    43.412966   -900.44557     1554.895   -2634.6936    2.1616973  0.090258984   0.10977994 
    8700   -950.34516    43.132809   -907.21235    1544.8608    315.66226     2.185252  0.055301261   0.10380789 
    8800   -950.88656    45.121298   -905.76526    1616.0813    7550.8498    2.2007649   0.13780057   0.11702171 
    8900   -945.02935    45.585042   -899.44431    1632.6909   -333.11687     2.170753   0.19610407   0.12138725 
    9000   -946.69781    41.230816     -905.467    1476.7383   -8585.3571     2.155049   0.12648049   0.11477373 
    9100   -948.42196    43.404028   -905.01793    1554.5749    1346.0911    2.1827756   0.32832681   0.11723243 
    9200   -942.70627    45.941275   -896.76499    1645.4498    11690.876    2.1936097  0.023891741    0.1102768 
    9300    -949.9036     46.38606   -903.51754    1661.3805   -3412.8247    2.1719803   0.10577485   0.10694036 
    9400   -949.64724    43.679877   -905.96736    1564.4548   -12297.169    2.1540824   0.10820341   0.10966044 
    9500    -944.1323    46.954182   -897.17812    1681.7285    4838.9503    2.1777643  0.019168864   0.10824641 
    9600   -952.35076    50.491207   -901.85955    1808.4119    9333.5714    2.2104887  0.085703649     0.106161 
    9700   -946.98429    41.241835   -905.74246     1477.133   -1885.9263    2.1751749   0.27017976   0.11798359 
    9800    -945.6554    45.865285   -899.79012    1642.7282    -8694.675    2.1531809   0.13028632   0.12701997 
    9900   -946.00801    46.706577   -899.30143    1672.8602    3010.1308    2.1809551   0.20134725   0.13675626 
   10000   -949.47175    43.276913   -906.19484    1550.0221    8906.1509    2.2070587   0.15441526   0.12307868 
   10100   -948.67008    47.199054   -901.47103    1690.4989   -2156.9404    2.1756639  0.049060989    0.1167892 
   10200   -947.54764    47.325421   -900.22221     1695.025   -7096.6142    2.1607091  0.074293645   0.11992616 
   10300   -951.11419    42.255971   -908.85822    1513.4556    3181.8836    2.2001439   0.10608378   0.12415263 
   10400   -945.29242    43.719874   -901.57255    1565.8873     6845.314    2.1911352   0.12362839   0.12424266 
   10500   -946.16394    44.962495   -901.20144    1610.3935   -2037.3542    2.1716204  0.050413952   0.12221114 
   10600   -951.38977    42.476683   -908.91309    1521.3607   -4127.3406    2.1809844  0.043749862    0.1147022 
   10700   -947.88701     45.15903   -902.72798    1617.4327    353.83089    2.1846277   0.32194179    0.1327425 
   10800   -942.95778    42.711952   -900.24583    1529.7872    6962.2133    2.1893385    0.6647608   0.13603856 
   10900   -947.57949    40.621713   -906.95777    1454.9224   -315.83782    2.1821018   0.30629988   0.13991231 
   11000   -947.87373    44.924202   -902.94953     1609.022   -5374.6274    2.1697602   0.16308815   0.14106086 
   11100   -946.30128    47.193564   -899.10771    1690.3023    3052.1146    2.1845566   0.12702888    0.1261342 
   11200   -944.17237    39.693445   -904.47893    1421.6753    9034.3946    2.1960989   0.22261905   0.13499334 
   11300   -945.16241     40.70421    -904.4582    1457.8772   -4809.7603    2.1642224  0.011651382   0.12632196 
   11400   -943.88229    46.603686   -897.27861     1669.175   -10715.958    2.1401527   0.08111392   0.12907725 
   11500   -947.87558    43.211305   -904.66427    1547.6722      12868.1    2.2110126   0.65219267    0.1113865 
   11600   -951.26923    47.547133   -903.72209    1702.9659    8873.4776    2.2042245   0.10016939   0.10985274 
   11700   -946.40353    47.280124    -899.1234    1693.4026   -12121.608    2.1435137   0.36315257   0.12714057 
   11800   -947.71709    42.935872   -904.78122    1537.8072   -8548.9753    2.1585182   0.22152122   0.13786455 
   11900   -952.73529    46.927161   -905.80812    1680.7607    5268.1138    2.2038961   0.31804592    0.1217262 
   12000   -946.69872    46.940684   -899.75803    1681.2451    6765.3379    2.1917104   0.18697073   0.13978414 
   12100   -951.48222    47.806784   -903.67544    1712.2656   -10044.255    2.1590224  0.049920789   0.11301221 
   12200   -947.29313    38.878104   -908.41503    1392.4727   -1301.1884    2.1777848   0.06335907   0.10974264 
   12300   -945.49691    45.730032   -899.76688    1637.8839    4894.7504    2.1855878   0.17022324   0.12410244 
   12400   -949.13513    46.426917   -902.70821    1662.8438    4222.3866    2.1866435  0.013141087   0.11072745 
   12500   -951.32028      42.6766   -908.64368    1528.5211   -4791.3212    2.1764128  0.051413697   0.10761223 
   12600   -949.64642    49.784197   -899.86222    1783.0894    -6503.093    2.1662614   0.12841934   0.11409828 
   12700   -948.93698    47.852853   -901.08413    1713.9157    6585.8261    2.1968749  0.043551649   0.13284406 
   12800   -950.76208    44.480066   -906.28201    1593.1146    1268.7033    2.1910472   0.22951815   0.12750403 
   12900   -949.66031    51.297796   -898.36251     1837.301   -8975.6853    2.1565093   0.14442697   0.13220887 
   13000   -944.60192     44.07592     -900.526    1578.6396    -435.2292    2.1727345 0.0075345199   0.12163904 
   13100   -948.42065    43.165859   -905.25479    1546.0445    6826.3328    2.1962089   0.16775528   0.11599793 
   13200   -947.54198    47.827354   -899.71463    1713.0024    1186.1163    2.1802255   0.20392532    0.1252154 
   13300   -947.22962    47.778795   -899.45083    1711.2632   -10042.773     2.153147   0.22266719   0.13192199 
   13400   -948.36007    41.432798   -906.92727    1483.9726    593.65455    2.1805691   0.32176465   0.13135337 
   13500   -947.99411    47.575927   -900.41818    1703.9972    15989.987    2.2195352   0.12248752   0.12042953 
   13600    -943.3256    42.118803    -901.2068    1508.5428    2127.0051    2.1776822   0.11208878   0.13485261 
   13700   -949.43479    39.817077   -909.61771    1426.1033   -15550.937    2.1465902   0.31482019   0.12197506 
   13800   -948.63503    44.253912   -904.38112    1585.0146   -155.25287    2.1776128   0.22331593   0.12163085 
   13900   -945.33579    46.249121   -899.08666    1656.4758    13276.014    2.2060565  0.034375376    0.1258253 
   14000   -946.04669     39.95325   -906.09344    1430.9805   -239.98253    2.1801533   0.14440226   0.11191676 
   14100    -950.0559    43.267461   -906.78844    1549.6836   -9416.7675    2.1576983  0.077209422   0.11313759 
   14200   -946.39932    46.533755   -899.86556    1666.6704    714.21661    2.1761732  0.085718703   0.12520406 
   14300    -950.8342    47.390765   -903.44343    1697.3653    6933.8088    2.2006202   0.66189225   0.12198706 
   14400   -949.70479    41.709998    -907.9948    1493.9009   -1425.9589    2.1808119   0.22705326   0.12438385 
   14500   -946.09502    47.799878   -898.29514    1712.0183   -9857.7128    2.1489048  0.095838578   0.13759448 
   14600   -953.13308    50.904287   -902.22879     1823.207    1035.3063    2.1887867   0.30158226   0.11422366 
   14700   -948.46723    43.124315   -905.34292    1544.5566    6724.4332     2.200251   0.27993913    0.1276153 
   14800   -941.56455    44.389671   -897.17488     1589.877   -2734.1433    2.1589018  0.098214852   0.11796346 
   14900   -948.68896    47.415406   -901.27355    1698.2479   -7693.5404    2.1613693   0.11012828   0.11926072 
   15000   -951.17344    46.292526   -904.88091    1658.0304    2268.6066    2.1904308   0.07302711   0.11258957 
   15100   -948.99862     49.69422    -899.3044    1779.8667     5903.109    2.1896613   0.11870882   0.12046477 
   15200   -945.59931    46.207115   -899.39219    1654.9713   -4898.2725    2.1603365   0.26715928   0.12970829 
   15300   -948.70366    42.028544   -906.67512      1505.31   -5679.6989    2.1712635  0.044222047   0.11823579 
   15400   -950.90563    49.885791   -901.01984    1786.7281    4702.5615    2.1948164   0.41467104   0.12527705 
   15500   -946.40853    47.007661   -899.40087    1683.6439    6667.1102    2.1935785   0.12669826   0.11431284 
   15600   -949.14654    40.957414   -908.18912     1466.946   -11099.583    2.1578449   0.38017898   0.12318233 
   15700   -943.56999    39.456861   -904.11312    1413.2017   -9291.0449     2.150291  0.054795366   0.12619688 
   15800   -947.16174    48.414458   -898.74728    1734.0303    16762.949    2.2170357  0.019344417   0.11435074 
   15900   -949.67695    44.513093   -905.16386    1594.2976    9666.3103     2.207835   0.16439158   0.11236156 
   16000   -950.50563    42.181268   -908.32436      1510.78   -12143.568    2.1564298   0.21900531   0.11184621 
   16100   -948.40372    48.882871   -899.52085    1750.8072   -7541.6965    2.1578227   0.15377554   0.12880236 
   16200    -947.8076    45.584474   -902.22313    1632.6705    10684.393    2.2038538   0.21514105   0.13234612 
   16300   -950.27764    43.670541    -906.6071    1564.1204    4199.9547    2.1959044   0.16400616   0.13400988 
   16400   -944.87679    47.681792   -897.19499    1707.7889   -8382.3888    2.1487787   0.27078578   0.14024521 
   16500   -947.82292    46.043893   -901.77902    1649.1253   -2107.8913    2.1765593   0.11782833   0.12056525 
   16600   -948.58195    43.808927   -904.77302    1569.0769    6456.7331      2.20055   0.11692579   0.12305542 
   16700   -946.71969    48.616919   -898.10277    1741.2817   -1080.2149    2.1730077   0.05973674   0.12682689 
   16800   -945.41798    45.310617   -900.10736     1622.862    -5632.088    2.1623629  0.016428686   0.11799456 
   16900   -949.89505    44.245991   -905.64906    1584.7309   -2211.1626    2.1823061  0.047184179   0.11010236 
   17000   -946.38451    46.421235   -899.96328    1662.6403    7777.8573    2.1937269  0.048849266    0.1128013 
   17100   -948.67765    49.381503   -899.29615    1768.6663    231.68686    2.1786722   0.48318536   0.11861252 
   17200   -947.48798    40.564642   -906.92333    1452.8784   -5367.3685     2.168489   0.28105537   0.13961137 
   17300   -948.61965    46.433246   -902.18641    1663.0705   -824.11221    2.1781688   0.13735765   0.13665137 
   17400   -943.60209    45.732899   -897.86919    1637.9866     10476.56    2.1995398   0.20039756   0.15447962 
   17500   -951.25004    44.035955   -907.21409    1577.2082   -335.47191    2.1875477   0.20331671   0.12435502 
   17600   -946.73158    43.128208   -903.60338     1544.696   -16286.653    2.1402766   0.12685201   0.13197844 
   17700   -943.34427    43.412818   -899.93145    1554.8897    2227.6773    2.1815773   0.48481582   0.13482921 
   17800   -949.44671    44.723254   -904.72346    1601.8248     14833.62    2.2252623  0.059425578   0.12693382 
   17900   -947.65977    39.021993   -908.63777    1397.6263   -1345.7413    2.1849484  0.052202189   0.12047919 
   18000   -945.69333    45.697125    -899.9962    1636.7053   -12820.919    2.1450657   0.18489156   0.13438101 
   18100   -949.58669    46.148226   -903.43846    1652.8621    636.18746    2.1873631   0.28796438   0.13614109 
   18200   -949.49281    42.950543   -906.54226    1538.3327    6877.4324    2.2066695   0.43515176   0.12731774 
   18300   -944.58246    47.219875   -897.36259    1691.2447   -2276.1195    2.1644437   0.26343735   0.14851778 
   18400   -948.63079    45.296377   -903.33441     1622.352   -3574.5602    2.1705512    0.1379206   0.12871079 
   18500   -946.89919    41.709762   -905.18943    1493.8924    3896.8324    2.1904455   0.14524797   0.13440308 
   18600   -944.11903    47.373103   -896.74593    1696.7327    3638.9739    2.1817812   0.33249623   0.13737962 
   18700   -946.60495    43.929745   -902.67521    1573.4042   -140.09873     2.177074  0.098009484   0.13022225 
   18800   -947.95694    42.132847   -905.82409    1509.0458    -5384.683    2.1701399   0.40426659   0.11654004 
   18900   -941.90458     43.42357   -898.48101    1555.2748    4472.0463    2.1786079   0.27335064   0.13561966 
   19000   -946.50201    43.574509   -902.92751    1560.6809    9601.2827    2.2002179   0.18280622   0.13774666 
   19100   -949.64856    43.108787   -906.53977    1544.0004   -4253.4154     2.175879   0.28360855   0.12815699 
   19200   -941.26619     40.64931   -900.61688    1455.9109    -5986.954    2.1536562   0.28771463    0.1502002 
   19300   -946.29469     45.59538   -900.69931    1633.0612    5305.1693    2.1911461   0.23814135   0.14514407 
   19400   -951.43294     44.71347   -906.71947    1601.4743    14587.779    2.2237258   0.10414061    0.1304424 
   19500   -943.77613    43.390718   -900.38541    1554.0982   -6357.7552    2.1565798   0.20640181   0.14680723 
   19600   -945.76029    44.149498   -901.61079    1581.2749   -14245.879    2.1406007   0.16481283   0.13847176 
   19700   -950.84257     44.21877    -906.6238     1583.756     6620.652    2.2034615    0.1314787   0.11924512 
   19800   -950.03082    47.387659   -902.64316    1697.2541    10261.445    2.2085658   0.19016414   0.11591512 
   19900   -945.39921    45.654788   -899.74442    1635.1889   -5236.3718    2.1605228   0.68922166   0.12477773 
   20000   -947.89239    41.788319   -906.10407     1496.706   -4627.3083    2.1692687   0.10856142   0.13325509 
   20100   -945.62121    42.292809    -903.3284     1514.775    5807.5357    2.1899513   0.11468368   0.13799108 
   20200   -946.76554     48.91794    -897.8476    1752.0632    111.79629    2.1768747   0.20753704   0.14435784 
   20300   -951.45752    45.611913   -905.84561    1633.6533   -3853.4626    2.1771736   0.32175925   0.13675938 
   20400   -948.54726    45.612391   -902.93487    1633.6704   -2607.7248    2.1727707   0.52675468   0.13974103 
   20500   -942.36881     45.16217   -897.20664    1617.5452    2819.2412    2.1739012   0.13539663   0.14329973 
   20600   -949.87817    44.051185   -905.82698    1577.7537     3682.483     2.193788  0.086226609   0.13139432 
   20700   -947.58221    44.553896   -903.02832     1595.759   -2933.8012    2.1723367   0.31538852   0.12354045 
   20800   -945.18116    46.724526   -898.45663    1673.5031   -5500.3887    2.1562268  0.082993412   0.13026492 
   20900   -952.96097    45.502846   -907.45812    1629.7469    4959.7687    2.2001274   0.27648972   0.11216849 
   21000   -946.61541    43.815428   -902.79998    1569.3097    7264.6097    2.1934898   0.16985043   0.12573136 
   21100   -941.93132    41.595412   -900.33591    1489.7968   -6547.3978    2.1560601   0.41144966   0.15301948 
   21200   -949.20086    40.481651    -908.7192    1449.9059   -7425.6364     2.168259   0.23850537   0.13619506 
   21300   -947.68529    43.291792    -904.3935     1550.555    10913.583    2.2052618   0.11294231   0.13994051 
   21400   -946.29499    47.618595    -898.6764    1705.5254    9535.0763    2.2001098   0.18013739   0.13456586 
   21500   -947.05651    41.589029   -905.46749    1489.5682   -10246.261    2.1535707   0.18411634   0.13187576 
   21600   -947.69784    42.565275   -905.13257    1524.5338   -7932.2444    2.1599516  0.069287667    0.1250538 
   21700    -943.7021     46.38548   -897.31663    1661.3597    8379.0805    2.1893505   0.28106643   0.11283234 
   21800   -950.43512    47.339112   -903.09601    1695.5153    4097.1889    2.1893224   0.05482835   0.11016071 
   21900   -948.74228    42.233385    -906.5089    1512.6467   -5476.7086    2.1687618   0.15118733   0.11810763 
   22000   -941.97801    44.736259   -897.24176    1602.2905   -2601.7986    2.1601576   0.20779501   0.12553893 
   22100   -946.23354    43.578987   -902.65456    1560.8413    5153.8081    2.1894127   0.48272097    0.1314919 
   22200   -945.24709      39.8842   -905.36289    1428.5074    4979.8703    2.1849702   0.15478377   0.13023679 
   22300   -946.89996    48.723232   -898.17673    1745.0895   -5768.2903    2.1612105  0.048279111   0.12628843 
   22400   -946.92295    44.811995   -902.11095    1605.0032   -1329.9302    2.1713721  0.021595654   0.12217235 
   22500   -949.08614    43.409229   -905.67691    1554.7611    3171.9317    2.1885925  0.073650901   0.10593377 
   22600   -942.21135    42.612034   -899.59932    1526.2085    6231.0206    2.1801573   0.16293628   0.11689963 
   22700    -948.0365    45.364385   -902.67211    1624.7877   -4829.8236    2.1651126   0.30150758   0.11050888 
   22800   -953.22022    45.607633   -907.61259       1633.5   -1822.1523    2.1805362   0.10267432   0.10234623 
   22900   -944.81776    44.794245   -900.02352    1604.3674    6912.8135    2.1899273   0.17602656   0.12376592 
   23000   -947.53703    44.350406   -903.18662    1588.4707   -1256.4175    2.1767142   0.32944203    0.1297652 
   23100   -949.90247     40.27506   -909.62741    1442.5066   -11181.758     2.159109   0.33064631   0.13180311 
   23200   -947.50488    45.989383    -901.5155    1647.1729    1337.7695    2.1779893   0.14223918    0.1191706 
   23300   -948.57057    48.339874   -900.23069     1731.359    16120.044    2.2172692   0.29384391   0.13841208 
   23400   -948.64863    41.337137   -907.31149    1480.5463    652.85629    2.1818688   0.13274146   0.12117204 
   23500   -946.10233    46.163212   -899.93911    1653.3988   -15732.831    2.1372159   0.15163788   0.11685263 
   23600   -945.47442    45.932233   -899.54219     1645.126     1865.129    2.1800593   0.19458252   0.13295501 
   23700   -946.83087     42.35082   -904.48005    1516.8528    9994.9108    2.2054298  0.027993383   0.11672537 
   23800   -945.64777     43.75312   -901.89465    1567.0781   -1205.2676    2.1710083  0.092576231   0.12466121 
   23900   -943.37943    46.329618   -897.04981    1659.3589   -10050.091     2.144647  0.029377357    0.1555204 
   24000   -947.17879    41.652052   -905.52674    1491.8255    5546.0223    2.1918867  0.049115171   0.11732965 
   24100   -944.81594    42.257829   -902.55811    1513.5222    9513.9879    2.1948582   0.39903257   0.13536665 
   24200   -942.66109     44.95814   -897.70295    1610.2375   -2806.0861    2.1598971   0.34213564   0.14125704 
   24300   -951.15508    44.099366   -907.05571    1579.4793   -4608.0552    2.1738871   0.32893165   0.12331135 
   24400   -950.74832    46.474824    -904.2735    1664.5597   -54.363303    2.1813716   0.06662796   0.11704745 
   24500   -947.05391    47.960281   -899.09362    1717.7633    2885.9504    2.1800393  0.091246072   0.11874073 
   24600   -943.76319    36.987905   -906.77528    1324.7726      1638.97    2.1759559   0.15775108   0.11436643 
   24700   -949.48921    43.582707    -905.9065    1560.9745    -6595.279    2.1692059   0.14005593   0.12011789 
   24800   -946.30217    46.344248   -899.95792    1659.8829    2891.4965    2.1832077   0.11556294   0.13145725 
   24900   -953.78893    48.620663   -905.16827    1741.4158    2261.5581    2.1991796   0.11548632   0.12075866 
   25000    -950.1771    41.544088   -908.63301    1487.9586   -6345.1348    2.1694445   0.14683469   0.13569623 
   25100   -942.46755    41.502703   -900.96485    1486.4763   -9066.2961    2.1447736   0.12065534    0.1317648 
   25200   -949.48149    47.215402   -902.26609    1691.0845    10657.378    2.2110992    0.2388843    0.1230198 
   25300   -954.47177    48.355306   -906.11647    1731.9117    12658.755    2.2206106    0.2113912   0.11891342 
   25400   -946.40382    48.741912   -897.66191    1745.7585   -11973.057    2.1416017   0.18292756   0.13516465 
   25500   -946.54827    44.638288   -901.90999    1598.7816   -7416.4701    2.1581582   0.41552742   0.13049169 
   25600   -948.17884    43.852704   -904.32613    1570.6448    9927.1117    2.2040348  0.064839684   0.11768096 
   25700   -948.25322    49.046538   -899.20669    1756.6691    4235.1744    2.1898477    0.1050234   0.12134756 
   25800   -946.82011    47.974282   -898.84583    1718.2648   -8744.0669     2.152332   0.37434477   0.12471502 
   25900   -950.63135    44.454491   -906.17686    1592.1986   -6183.0168    2.1741179   0.24324095    0.1275945 
   26000   -952.21507    51.102256   -901.11282    1830.2975    2170.4141    2.1913943  0.034507687   0.12828963 
   26100   -945.89955    47.317461   -898.58209    1694.7398    3469.7911    2.1797297   0.13994394   0.11812136 
   26200   -945.99348    38.552695   -907.44079    1380.8177    -1086.055     2.174609   0.30927657   0.11337032 
   26300   -947.94685    44.888735   -903.05811    1607.7517    -4184.078    2.1666882   0.13851687   0.12032292 
   26400   -946.65641    47.491592   -899.16481    1700.9766    2999.3824    2.1807114   0.24291423   0.12599072 
   26500   -953.60152    45.406556   -908.19497    1626.2982    3578.9343    2.2000139   0.38728684   0.12248633 
   26600   -947.75632    44.063529   -903.69279    1578.1958   -6103.3949    2.1625552   0.09401697   0.11346447 
   26700   -947.54165    46.781101   -900.76055    1675.5294   -5159.0615    2.1633401   0.31420589   0.10919181 
   26800   -951.66636    45.084564    -906.5818    1614.7656    7653.5965    2.2022796   0.14053508   0.10800694 
   26900   -951.43043    45.239951   -906.19048     1620.331    3712.8164    2.1957695   0.41201568   0.11657887 
   27000   -941.88546    42.042731   -899.84272    1505.8182   -10184.022    2.1356441   0.26433973   0.13072272 
   27100   -946.11736    40.718409   -905.39895    1458.3857   -6465.4966    2.1575116  0.049355107   0.11809697 
   27200    -948.6238    45.162649   -903.46115    1617.5623    19806.866    2.2279168   0.13315067   0.10974997 
   27300   -944.98127     48.84266   -896.13861     1749.367    4567.7973    2.1816948   0.27670506   0.11648183 
   27400     -946.201    43.283471   -902.91753     1550.257   -12008.483    2.1449426  0.074864048   0.13590073 
   27500   -946.63671    41.847371   -904.78934    1498.8211   -1783.5051      2.17371  0.065010516    0.1213742 
   27600   -941.91507    44.649254   -897.26581    1599.1744    10439.317    2.1938313   0.11439291   0.11431825 
   27700   -948.59622    46.810991   -901.78523    1676.5999    842.06027    2.1784103   0.15122916   0.10900114 
   27800   -954.26831    47.871383   -906.39693    1714.5793   -11820.499    2.1633113   0.33347924  0.099050757 
   27900     -945.988    45.716663   -900.27133    1637.4051     159.9778    2.1733365   0.25959743   0.11963312 
   28000   -949.10199    47.482096   -901.61989    1700.6365    5008.1964    2.1904099   0.22229699   0.11829617 
   28100   -949.77849    41.896026   -907.88246    1500.5637    1650.9314    2.1878249  0.044193104   0.11068936 
   28200   -944.81795    42.828507   -901.98944    1533.9618   -5433.6107    2.1592654   0.25211413   0.12355799 
   28300   -946.73339    45.824324   -900.90906    1641.2611   -1879.6287    2.1734699   0.16827595   0.12268565 
   28400   -947.68154    39.274523   -908.40702     1406.671    12195.369    2.2085424   0.27017346   0.12757436 
   28500   -946.59943    46.177164   -900.42227    1653.8986   -1247.4198    2.1731391  0.026998655   0.11378421 
   28600   -946.66614    44.817684   -901.84845    1605.2069   -9931.5424    2.1521778   0.16831664   0.11791344 
   28700    -946.4428    39.204683   -907.23812    1404.1696    5276.3962    2.1879399   0.14357092   0.11194137 
   28800   -947.04496    43.538555   -903.50641    1559.3931    13689.814    2.2123964   0.11687631   0.12738539 
   28900   -944.81339    45.302808   -899.51058    1622.5823   -3533.8369    2.1666385   0.21153947   0.13316803 
   29000   -948.46282    42.802783   -905.66004    1533.0404   -15233.281    2.1411569   0.18097296   0.12524174 
   29100    -950.1821    47.679159   -902.50294    1707.6946    3869.0351     2.189955   0.14617488   0.10810354 
   29200   -944.18992    49.359059   -894.83086    1767.8625    12822.927    2.2046036   0.20687632    0.1324365 
   29300   -946.50672    42.879866   -903.62685    1535.8013   -751.95232     2.175098   0.25280748   0.11831979 
   29400   -947.25956    42.848916   -904.41065    1534.6928   -7045.7151    2.1607703  0.060093933   0.13505463 
   29500   -945.66405    48.796071   -896.86798    1747.6983   -14.089911    2.1748024   0.32607122   0.13239645 
   29600   -945.84098    42.566691   -903.27429    1524.5845    7280.1402    2.1948311   0.09882884   0.11688877 
   29700    -948.2965    42.928311   -905.36819    1537.5364   -2175.5401     2.176645   0.34969253   0.11227551 
   29800   -947.84465    47.611328   -900.23332    1705.2651   -3204.3798    2.1681943   0.22707908   0.10725641 
   29900   -944.65712    44.047844   -900.60928     1577.634    3683.2596     2.182106   0.34301821   0.11295248 
   30000   -952.72221    45.342649   -907.37956    1624.0092    5403.9189    2.2014722  0.086537318   0.12108743 
   30100   -947.96526    46.255669   -901.70959    1656.7103   -1851.3583    2.1731862   0.39762533   0.11801364 
   30200    -946.2805    44.849562   -901.43094    1606.3487   -7812.0984    2.1573844   0.23479188   0.12005359 
   30300   -953.88778    43.953723   -909.93406     1574.263    3307.8911    2.1986739   0.18490378   0.10897493 
   30400   -949.35436    46.909335   -902.44502    1680.1223     5035.031    2.1947794   0.32830062   0.12486674 
   30500   -946.68426    45.059991   -901.62427    1613.8855   -3104.2633    2.1682569   0.27797659   0.12661035 
   30600   -952.18404    44.747295   -907.43674    1602.6858   -10333.711    2.1623525   0.12034425   0.11167796 
   30700   -949.81019    43.446233   -906.36396    1556.0865    6167.6522    2.1980635   0.10085083   0.11676987 
   30800    -946.0689    47.028434   -899.04046    1684.3879    11498.415    2.2027107   0.64392508   0.12160515 
   30900   -947.94855     44.18915    -903.7594    1582.6951   -9034.9082    2.1565956    0.2082844   0.12424737 
   31000   -948.39507     42.69534   -905.69973    1529.1922   -12078.791    2.1506476   0.39110287   0.12169888 
   31100   -951.06084    41.712218   -909.34862    1493.9804    10312.154    2.2134048   0.24795936   0.11934169 
   31200   -956.58933    40.681701   -915.90763     1457.071    10931.376    2.2266991   0.33595821   0.10699212 
   31300   -949.06648    41.836088   -907.23039    1498.4169   -8770.0128    2.1603852   0.22297855   0.11749422 
   31400   -946.58656    42.130562     -904.456    1508.9639   -4833.1631    2.1675383   0.22844131   0.14121972 
   31500    -945.2028    44.123125   -901.07968    1580.3303    5879.3382    2.1915583   0.14230476   0.13589851 
   31600   -945.65243    41.082582   -904.56985    1471.4291    4222.1856    2.1870314   0.37808143   0.11856776 
   31700   -949.33831    39.855864   -909.48244    1427.4925   -1635.5243    2.1825002   0.18684935   0.11763278 
   31800   -946.98962    44.206311   -902.78331    1583.3097   -981.08863    2.1757743   0.54325736    0.1180558 
   31900   -949.18985     47.61333   -901.57652    1705.3368    1413.2042    2.1862204     0.299119   0.11992246 
   32000   -952.54055    42.802945   -909.73761    1533.0463    531.74446    2.1928413   0.19613064    0.1261996 
   32100    -951.0254    46.559171   -904.46623    1667.5807   -5922.1043    2.1720551   0.37059682   0.11700569 
   32200   -948.84494    47.309497   -901.53544    1694.4546   -563.48027    2.1805777   0.17765792   0.11167546 
   32300   -945.96421    41.423573   -904.54064    1483.6422    6130.1663    2.1943945   0.11257954    0.1231751 
   32400   -949.78034     38.77598   -911.00436     1388.815    506.65988    2.1905386   0.20942177   0.12049246 
   32500   -946.66829    45.460758   -901.20753    1628.2395   -9313.5255     2.155081    0.0698601   0.12285528 
   32600   -946.68852    44.430435   -902.25809    1591.3371    4034.2673    2.1920652   0.17651061   0.12157334 
   32700   -948.71854     44.77576   -903.94278    1603.7054    9965.5693    2.2088345   0.22849686   0.11456455 
   32800   -942.97405    46.805645    -896.1684    1676.4085   -7512.8265    2.1508686   0.25752319   0.13728866 
   32900   -942.55522    44.375545   -898.17967    1589.3711   -7689.2635    2.1499503   0.26803277   0.14037273 
   33000   -946.43198    43.353392   -903.07859    1552.7613    6919.6444    2.1948916   0.22556276   0.10712996 
   33100   -950.18308     46.63236   -903.55072     1670.202    8665.5786    2.2061367  0.013289226   0.11728666 
   33200   -942.06038      47.4489   -894.61147    1699.4475   -6963.2721    2.1492602  0.026607587   0.11289447 
   33300   -946.23341    45.177429   -901.05598    1618.0917   -7077.7987    2.1586673  0.077716583   0.10701087 
   33400    -948.8973    45.322633   -903.57467    1623.2923    4380.7254    2.1921945  0.057399625   0.10652058 
   33500   -949.48548    47.440914   -902.04456    1699.1615    6103.1549    2.1934651  0.038216783   0.10887538 
   33600   -942.86576    48.597106   -894.26866    1740.5721   -6116.3868     2.150674   0.24481527   0.12315424 
   33700   -946.56313    42.617834   -903.94529    1526.4163   -1371.7036     2.174803    0.1255462   0.12304047 
   33800   -949.31323    45.521074   -903.79216    1630.3998    1433.8198    2.1835347   0.16209835   0.11836603 
   33900   -944.40875    43.650144   -900.75861    1563.3899    3328.3042    2.1789661   0.13160793   0.11358345 
   34000   -946.51584    51.691386   -894.82446     1851.398   -3490.5411    2.1658754   0.17186805   0.12323631 
   34100   -946.97702    43.370184   -903.60683    1553.3627   -1356.4644    2.1765491   0.11074398   0.11515031 
   34200   -945.66775    41.674956    -903.9928    1492.6458   -1867.3329    2.1726092  0.049288005   0.11012529 
   34300   -948.64425    46.055958   -902.58829    1649.5574    987.01745    2.1808694  0.090581051  0.097059402 
   34400   -947.20043     45.76723    -901.4332    1639.2162    2084.7351    2.1832083   0.20397513    0.1212729 
   34500   -936.88932     46.45496   -890.43436    1663.8482   -1162.1513    2.1557691  0.081438023   0.13282554 
   34600   -943.52439    44.336699   -899.18769    1587.9798    4527.0482    2.1819039   0.30868904   0.13601929 
   34700   -947.50511     45.25854   -902.24657    1620.9968    571.43743    2.1801876  0.071023729   0.11855596 
   34800   -948.56862    43.687558   -904.88106    1564.7299   -5719.3539    2.1693265   0.22343709   0.12440367 
   34900   -948.01984    44.838476   -903.18137    1605.9516   -2020.0204    2.1750523   0.36379922   0.11845735 
   35000   -949.70043    53.269632    -896.4308     1907.925    2074.8203    2.1833896   0.03719767   0.11574813 
   35100   -946.85098    44.978384    -901.8726    1610.9626   -3074.2006    2.1710356   0.23252866   0.11232082 
   35200   -948.02589    43.149962   -904.87593    1545.4752   -7010.3775     2.163102   0.19374899   0.11972714 
   35300   -944.71295    45.695513   -899.01744    1636.6476    7269.7996    2.1897971   0.29473419    0.1134079 
   35400   -942.27546    45.332927   -896.94253     1623.661    10192.704    2.1927712    0.4031021   0.13230941 
   35500   -952.57778    48.369839   -904.20794    1732.4322   -11384.294    2.1603321   0.30010268   0.12808812 
   35600   -946.09552    42.830078   -903.26544    1534.0181   -7379.1897      2.15968     0.355543   0.12787253 
   35700   -945.57418    49.550021   -896.02416    1774.7021    8194.2839    2.1919667   0.24296847   0.12780907 
   35800   -948.97325    46.238201   -902.73505    1656.0847    5542.5871    2.1935868   0.46613122   0.12357044 
   35900   -944.65141    39.379184   -905.27223    1410.4196   -8184.3558    2.1554081  0.052954236   0.13311854 
   36000   -947.05969    45.785604   -901.27409    1639.8743   -2404.5866    2.1684878  0.025055184   0.12336057 
   36100   -942.32123    41.485808   -900.83542    1485.8712    9780.6534    2.1940404    0.1352738   0.11996108 
   36200   -950.14302    40.977238   -909.16579    1467.6561    5276.0675    2.1991118   0.26506258   0.10983473 
   36300   -946.31126     42.77053   -903.54073    1531.8853   -5988.8157    2.1626169   0.09562587   0.13184251 
   36400   -947.02182    45.930789   -901.09103    1645.0743   -2585.5966    2.1693913   0.28179923   0.13018842 
   36500   -948.97147    40.247151   -908.72432     1441.507    5591.4643    2.1960699   0.29895051   0.12713977 
   36600   -950.75196    45.563238   -905.18872    1631.9099    634.67204    2.1860267   0.30812861   0.11802482 
   36700   -947.72622    46.575779   -901.15044    1668.1755   -2201.9076    2.1699856   0.31786539   0.11872204 
   36800   -947.41467    42.227268    -905.1874    1512.4276   -2393.5184     2.174983   0.14791976   0.12137148 
   36900   -951.63029    42.652529   -908.97776    1527.6589    1781.8413    2.1950244   0.10393487   0.11945433 
   37000   -943.69913     44.11272   -899.58641    1579.9577    1320.0904    2.1715952  0.073506483   0.11412294 
   37100   -948.52531    45.418411    -903.1069    1626.7228   -4149.9959    2.1689746  0.082509987   0.10445091 
   37200   -952.38162    45.790391   -906.59123    1640.0458     672.1469    2.1891592   0.19247921   0.10809159 
   37300   -945.45746    45.405606   -900.05185    1626.2641    9158.8116    2.1939518   0.49109639   0.11795609 
   37400   -947.56525    48.463704   -899.10155    1735.7941   -2180.1722    2.1694528   0.33282539   0.12366769 
   37500   -947.94787    43.391378   -904.55649    1554.1218   -13537.628    2.1448016    0.2505596   0.12688137 
   37600   -946.37078    44.022555   -902.34822    1576.7283    3067.5253      2.18335  0.044936316   0.12358789 
   37700   -943.25076    49.988933   -893.26183    1790.4223    14530.371    2.1979362    0.1959999   0.12364903 
   37800   -944.02524    42.020039    -902.0052    1505.0054    1448.6191    2.1733363   0.21579427   0.13155558 
   37900   -949.58022    44.946636   -904.63358    1609.8255   -11967.538    2.1502489   0.15879014   0.12536745 
   38000   -948.45015    49.531275   -898.91888    1774.0307    2585.3789    2.1828578   0.44233056   0.12446259 
   38100   -941.58008    45.042425   -896.53766    1613.2563    7906.3868    2.1905271   0.28384912   0.11517754 
   38200   -949.19464     44.45444    -904.7402    1592.1968   -2985.4487     2.175865   0.23251213    0.1064474 
   38300   -949.34487    46.062097   -903.28277    1649.7773   -7757.1005    2.1644445   0.25386121    0.1067355 
   38400   -944.79302    46.434436   -898.35859    1663.1131    2625.7948    2.1798575   0.22824959   0.12901728 
   38500   -950.72487    47.345407   -903.37946    1695.7408     2668.919     2.188897   0.18567915   0.10972344 
   38600   -946.20408    39.993482    -906.2106    1432.4215   -1322.0328    2.1768459   0.39781258   0.11538321 
   38700   -945.49067    42.620784   -902.86988    1526.5219    -156.1143    2.1774468  0.027697336   0.11735554 
   38800   -943.73689    44.242827   -899.49406    1584.6176    5746.0739    2.1857378   0.31020899    0.1286987 
   38900   -946.41346    38.867583   -907.54588    1392.0959    282.88901    2.1842845   0.12454672   0.13207093 
   39000    -946.9346    40.301376   -906.63322    1443.4491   -8449.5862      2.16185   0.29958288   0.11729705 
   39100   -948.59914    46.701088   -901.89805    1672.6636    2326.6787    2.1900412   0.30874162   0.10960936 
   39200   -946.60719    45.451005   -901.15618    1627.8902    14255.006     2.212592   0.29682917   0.10734677 
   39300   -950.80612    40.784106   -910.02201    1460.7388   -9237.6764    2.1646814   0.31661325   0.10210755 
   39400   -947.20318    42.180043   -905.02314    1510.7362   -16253.608    2.1400155   0.16152439   0.12771657 
   39500   -947.26369    46.415983   -900.84771    1662.4522     7863.431    2.1957922   0.14215787   0.12049772 
   39600   -946.31723    42.967589   -903.34964    1538.9432    11863.948    2.2032271   0.45007712    0.1054992 
   39700    -950.4361    40.075982   -910.36012    1435.3763   -5820.7494    2.1715343  0.051752983   0.11150062 
   39800   -945.85561    41.932319   -903.92329    1501.8636   -4699.2777    2.1641729  0.012628348   0.12852252 
   39900   -947.22358    45.759938   -901.46364     1638.955    6474.3482     2.195263  0.072696418   0.13225374 
   40000   -945.95042    42.289903   -903.66052     1514.671    4796.4818    2.1839455   0.12830283    0.1108877 
   40100   -947.25672    43.632119    -903.6246    1562.7443   -5385.0717    2.1601451   0.11911697   0.10391945 
   40200   -940.06351    46.207002   -893.85651    1654.9672    -3556.723    2.1502153   0.18444773    0.1055955 
   40300   -945.90761    45.043572   -900.86404    1613.2974    10507.454    2.1982917  0.047118271   0.10478724 
   40400   -947.40559    43.821164   -903.58443    1569.5152    3495.4635    2.1875656   0.15655655   0.12738787 
   40500   -943.42703    40.776228    -902.6508    1460.4566   -5602.2816    2.1547339   0.28736707   0.13007988 
   40600   -942.15985    48.748156    -893.4117    1745.9822   -2355.9756    2.1528007  0.017466784   0.12139579 
   40700   -948.50799    46.349119   -902.15887    1660.0574    11945.545    2.2054929  0.028874905   0.10977111 
   40800   -950.05502    46.146989   -903.90803    1652.8178   -838.73834    2.1795484  0.094980432    0.1203535 
   40900   -945.04347    45.083461   -899.96001    1614.7261   -6419.2665    2.1530824   0.16873011   0.12850355 
   41000   -943.92158     50.64884   -893.27274    1814.0578   -540.41114    2.1636063   0.16843763   0.12357093 
   41100   -947.86201    44.228187   -903.63383    1584.0933    9153.8731    2.2012679   0.22974718   0.12200662 
   41200   -948.62189    45.526521   -903.09537    1630.5949   -426.27335    2.1781877   0.11561723    0.1052658 
   41300   -946.62971     45.94854   -900.68117    1645.7101   -4473.6895     2.166393  0.041366772   0.11270211 
   41400   -946.15592    43.664941   -902.49098    1563.9198   -1215.4452    2.1794464   0.17393422   0.15014932 
   41500   -953.63657    45.111685   -908.52488     1615.737    4834.2418     2.205511   0.10620376   0.11591291 
   41600   -947.05352    43.113622   -903.93989    1544.1736    2639.2754     2.187943   0.20094414   0.13380414 
   41700   -945.44921    43.902219     -901.547    1572.4183   -4002.3202    2.1662463   0.12037612   0.13222747 
   41800   -947.32663    45.840064   -901.48657    1641.8249   -2415.5654    2.1728339   0.15287702   0.12503846 
   41900   -951.20661    41.395623   -909.81098    1482.6411    9388.2746    2.2110208   0.32329584   0.12694312 
   42000   -946.60892    43.309033   -903.29989    1551.1725    1738.4304    2.1841082   0.17628285    0.1325756 
   42100   -945.74934    43.659719   -902.08962    1563.7328   -7271.4728    2.1571393  0.028288017   0.12748215 
   42200    -950.1442    44.261529   -905.88268    1585.2875   -2551.4198    2.1809273  0.081341953   0.11013976 
   42300   -950.98412    42.294967   -908.68915    1514.8523    13319.486    2.2229008 0.0048447365     0.118657 
   42400   -947.37917    46.504425   -900.87474    1665.6199    366.34217    2.1786358   0.30185834   0.12480424 
   42500    -945.8602    42.779073   -903.08113    1532.1912   -16473.261    2.1361251   0.65820389   0.13227651 
   42600   -951.19687    44.988278   -906.20859     1611.317   -1659.8351    2.1847015    0.1099924   0.11329308 
   42700   -953.87809    44.274336   -909.60376    1585.7462    22659.013    2.2494116   0.15378244   0.11349322 
   42800    -942.8189    42.619004    -900.1999    1526.4582   -3390.4491    2.1648424   0.36897586   0.14349239 
   42900   -947.63159     44.60149    -903.0301    1597.4636   -10594.036     2.156779   0.14131133   0.13284999 
   43000    -947.8896    44.142762   -903.74684    1581.0337    2165.2425    2.1916522   0.13853416   0.12611902 
   43100   -946.17037    46.853811   -899.31656    1678.1336    9499.9294    2.2002127  0.081775848   0.12068722 
   43200   -944.65586    48.450227   -896.20563    1735.3114   -3917.8664    2.1612864   0.34204441   0.11747864 
   43300    -945.9314    42.896766   -903.03464    1536.4066   -7023.2964     2.165018  0.080558628   0.12069693 
   43400   -947.76509     44.41081   -903.35428    1590.6342     4897.075    2.1967065   0.19114866    0.1278987 
   43500   -945.44592    46.094707   -899.35121    1650.9452    7735.4672     2.194242   0.23349285   0.12083294 
   43600   -944.06152    48.137908   -895.92361    1724.1253    -9173.502    2.1475076   0.13062143   0.13833555 
   43700   -947.58288    43.435096   -904.14778    1555.6876   -3339.9951    2.1693941  0.085667181   0.12180328 
   43800   -952.48791    50.064735   -902.42317    1793.1372    7103.4028    2.2048221   0.33041978   0.13011903 
   43900   -947.07918    48.636564   -898.44261    1741.9853    3884.4079    2.1856587   0.17630041   0.13402713 
   44000    -943.3909    47.593295   -895.79761    1704.6192   -12935.256    2.1408363  0.057265283   0.13733361 
   44100   -945.23556     40.87667   -904.35889    1464.0541     1680.538    2.1800006   0.18940662   0.11750777 
   44200   -950.19846    48.192181   -902.00627    1726.0691    9815.9618    2.2079449  0.050945712   0.10384875 
   44300   -946.49219    46.515052   -899.97713    1666.0005   -1160.8685    2.1748616  0.074820358    0.1113054 
   44400   -939.84021    49.856607   -889.98361    1785.6829   -8595.1672    2.1397845   0.31595471   0.13975773 
   44500   -948.33746    47.816327   -900.52113    1712.6074    4093.3326    2.1882438  0.079855731   0.11504453 
   44600   -948.64827    46.497923   -902.15035     1665.387    2186.6907     2.187743   0.12246134   0.12436676 
   44700   -947.19417    43.165693   -904.02848    1546.0386   -3533.4112    2.1705014    0.1584769   0.13459266 
   44800   -948.28331    47.628067   -900.65524    1705.8646   -3277.5007    2.1753252   0.27660166   0.13144998 
   44900   -942.22286    46.688986   -895.53387    1672.2302     6.293694    2.1693493   0.18258858   0.13938055 
   45000    -945.2337    42.361014   -902.87269    1517.2179    435.07286    2.1766117   0.25376306   0.13696803 
   45100   -947.27183    43.481401   -903.79042    1557.3461   -561.16508    2.1787761   0.11880231   0.12719342 
   45200   -945.85096    48.581123   -897.26984    1739.9996      1928.06     2.174925   0.72056203   0.11768521 
   45300   -946.77917    48.874446   -897.90473    1750.5054   -1368.3139    2.1692603   0.15234455   0.12016938 
   45400    -946.2777    42.099776   -904.17792    1507.8613   -3148.5179    2.1682869   0.27264627   0.11126583 
   45500   -948.93141     46.54448   -902.38693    1667.0545    3164.5395    2.1880167   0.33868326    0.1175961 
   45600   -949.66133    54.203045   -895.45829    1941.3565    5490.6565    2.1879714    0.1945467   0.12755043 
   45700   -946.77189    47.167131   -899.60476    1689.3556   -8022.5966    2.1511236   0.13081833   0.12654254 
   45800    -949.9438    45.120636   -904.82316    1616.0575   -13706.317    2.1499551   0.24203876   0.13773538 
   45900   -945.92155    44.938027   -900.98352    1609.5172     10275.88      2.20113  0.098065969   0.12952936 
   46000   -948.43026    48.262203   -900.16806    1728.5771    7483.8343    2.1981568   0.21005024   0.12095078 
   46100   -951.06487    41.539404   -909.52547    1487.7908     -5902.39    2.1700795   0.12562348   0.10080663 
   46200   -947.63251    41.969683   -905.66283    1503.2019   -8894.2714    2.1580025  0.084592741   0.11701287 
   46300   -946.44574    45.240761   -901.20498      1620.36    6734.3846     2.194232   0.26242985   0.11802856 
   46400   -949.87546    45.436011   -904.43945    1627.3531    4504.8156    2.1976769   0.70699919   0.11613407 
   46500    -953.5929    42.670904     -910.922     1528.317   -5301.1913     2.181538  0.051269821   0.12738908 
   46600   -947.01539    44.481033   -902.53436    1593.1493   -6602.8159    2.1593685   0.74585514   0.13851673 
   46700   -951.04997    49.108916   -901.94105    1758.9033    1678.4077     2.185789   0.12838945   0.12712011 
   46800    -951.1774    42.865023   -908.31238    1535.2697    7007.1953    2.2033438   0.53887223   0.12508222 
   46900   -945.91318    41.533618   -904.37956    1487.5836   -1421.9612     2.173848   0.23604018   0.14111118 
   47000   -945.90354    44.868563   -901.03498    1607.0292   -3703.0671    2.1636385   0.17639618   0.12927742 
   47100    -947.9313    44.211634   -903.71967    1583.5004     1676.114    2.1838522   0.18617946   0.12094229 
   47200   -950.03387    43.526761   -906.50711    1558.9707    6094.0658    2.1987028   0.35195842   0.10970914 
   47300   -941.83798    45.651637   -896.18635    1635.0761   -6092.2041    2.1509201   0.13908009   0.12517832 
   47400   -946.62935    44.892426   -901.73692    1607.8839   -2829.0009    2.1714472   0.10949959   0.12817727 
   47500   -948.58847    44.879135   -903.70934    1607.4079    11514.427    2.2070055   0.14992103   0.11488943 
   47600   -947.91656    44.066001   -903.85056    1578.2843    4048.8034    2.1901153   0.11946654   0.12922826 
   47700   -940.30707    44.834702   -895.47236    1605.8164   -19918.518    2.1146191   0.04187696    0.1532092 
   47800   -950.19205    45.027321   -905.16473    1612.7153   -2044.2681    2.1825358 0.0095727141   0.11511426 
   47900    -943.9968    41.306117   -902.69069    1479.4353    19989.998    2.2239195 0.0097120533   0.13885048 
   48000    -944.6747    43.656249   -901.01845    1563.6085    121.44339    2.1757244   0.21712028   0.13574591 
   48100   -941.21703    46.013028     -895.204    1648.0198   -12126.906    2.1399881  0.041270376   0.12802957 
   48200   -947.89658    41.978512   -905.91806    1503.5181    5265.4262    2.1988484   0.16638925   0.12639057 
   48300   -948.59473    45.203457   -903.39127    1619.0239    5621.2147    2.1982426   0.14163036   0.11657884 
   48400   -946.19684    45.214088   -900.98275    1619.4047   -4982.2704    2.1656539   0.09138395   0.11587011 
   48500   -945.94772    49.415499   -896.53222     1769.884   -9288.0566    2.1530661    0.1865133    0.1231667 
   48600   -951.92507    46.128833   -905.79623    1652.1675    3956.1447    2.1961833  0.091949953   0.12069948 
   48700   -950.08553    44.820872   -905.26466    1605.3211    1101.7396    2.1871316   0.16769817   0.12202535 
   48800    -947.0486    43.725647   -903.32295    1566.0941   -4262.5717     2.168897   0.26260216   0.12991387 
   48900   -948.87041    48.068214   -900.80219    1721.6291   -3335.2261    2.1736572   0.28428899   0.12453038 
   49000   -951.73724    43.559279   -908.17796    1560.1354    3469.5964    2.1967805   0.21011423   0.11088887 
   49100   -947.85005    40.235307   -907.61474    1441.0828    -836.8844    2.1847648   0.24013017   0.12600644 
   49200   -945.93497    43.537314   -902.39766    1559.3487     -929.777    2.1737608  0.013110339   0.12465158 
   49300   -947.06275    45.570763   -901.49199    1632.1795    1139.5801    2.1773841   0.16498881   0.10521156 
   49400   -952.10434    41.666066   -910.43827    1492.3274    4571.7516    2.2046323  0.017233871   0.11224194 
   49500   -946.05909    42.570323   -903.48877    1524.7146   -3646.7102    2.1719433   0.10816629   0.12628256 
   49600   -946.82511    45.134584   -901.69053    1616.5571   -3141.5553    2.1689938   0.22522727   0.11851726 
   49700   -948.59125    43.629173   -904.96208    1562.6388    4235.4022    2.1961254  0.026266805   0.13399268 
   49800   -950.97993    40.490606   -910.48932    1450.2267    8723.0382    2.2068329  0.097809275   0.11855117 
   49900   -946.41857     45.37608   -901.04249    1625.2066   -9290.2753    2.1579733   0.17758026   0.13345881 
   50000   -950.98856    48.215901   -902.77266    1726.9187   -8626.5046    2.1671707   0.27781825   0.12859694 
   50100   -952.55938    47.065266   -905.49411    1685.7071    6726.4024    2.2077959   0.13896025   0.12984952 
   50200   -955.21295    42.938572   -912.27438    1537.9039    3532.1798    2.2066498    0.3049745   0.11395954 
   50300   -949.92649    43.551893   -906.37459    1559.8709   -8371.6539    2.1644543    0.2568457   0.12704932 
   50400   -948.21928    44.261395   -903.95789    1585.2826   -1554.7854    2.1780881   0.68204149   0.12029609 
   50500   -948.95531    46.518803   -902.43651    1666.1348    6073.0288    2.1969319  0.034707329   0.11764957 
   50600   -948.03426    44.632836   -903.40143    1598.5863     -1312.98    2.1761903  0.016673683   0.12736365 
   50700   -946.92146    45.782368   -901.13909    1639.7584   -7058.1137    2.1580696   0.21484175   0.12553284 
   50800   -941.86007    47.284674   -894.57539    1693.5655   -2400.7758    2.1600472   0.33724107   0.13199403 
   50900   -945.91004     45.26174    -900.6483    1621.1114    5801.9119    2.1932093   0.14307886   0.14171057 
   51000   -949.43124    46.103048   -903.32819     1651.244    2196.2849    2.1921952   0.11651273   0.14759227 
   51100   -948.33797     43.59619   -904.74178    1561.4574   -14334.683    2.1468927  0.076279494   0.14035548 
   51200   -942.69017    47.443618   -895.24655    1699.2583   -6567.4921    2.1532195   0.12365267   0.14791483 
   51300   -946.83228     46.36022   -900.47206     1660.455    18414.644    2.2283605   0.33297487   0.12773795 
   51400   -947.13873    43.126587   -904.01214     1544.638    1445.7049    2.1862546   0.13533205   0.12229509 
   51500   -947.15575    44.599627   -902.55613    1597.3969   -12652.969    2.1474879   0.24548733   0.12723032 
   51600   -945.36411    50.806237   -894.55787    1819.6952    -769.1393    2.1686227   0.20811478   0.13299494 
   51700   -948.25496    45.369315   -902.88565    1624.9643    8435.5696       2.2055   0.11992795   0.12507325 
   51800   -953.39344    49.089187   -904.30425    1758.1966   -8341.2731    2.1715925   0.26009886   0.12396224 
   51900   -946.76451    45.237263   -901.52724    1620.2347   -6121.2718    2.1600097   0.12974217   0.12535657 
   52000   -945.31889    49.571551   -895.74734    1775.4732    3981.4636    2.1832258  0.095517729   0.13175086 
   52100   -946.25561    49.130758   -897.12486    1759.6856    702.13845    2.1802605   0.41297466   0.12891712 
   52200   -946.49748    43.279261   -903.21822    1550.1062   -4533.4325    2.1668595    0.1075199   0.11704238 
   52300   -952.51839    49.340047   -903.17834    1767.1816   -3875.9307    2.1773078   0.12468298  0.095924836 
   52400   -950.19309    48.350295   -901.84279    1731.7322    5284.1274    2.1943276    0.1382841   0.10430043 
   52500   -937.74498    45.841659   -891.90332     1641.882    1955.2261    2.1638812   0.34878175    0.1265967 
   52600   -944.46342     44.98343   -899.47999    1611.1433   -3132.5404    2.1678519   0.31743935   0.13019573 
   52700   -949.20692    46.127107   -903.07981    1652.1057   -2118.9036    2.1756729    0.2951738   0.11646769 
   52800   -947.71552    44.478536   -903.23699    1593.0599    5251.3813    2.1931329  0.072869284   0.10399537 
   52900   -945.62659    50.055417   -895.57117    1792.8035    1499.2399    2.1769933   0.14613656   0.12234305 
   53000   -944.50762    46.208251   -898.29937     1655.012   -7003.0895     2.157422   0.60645687   0.12499935 
   53100   -946.33389    42.410674   -903.92321    1518.9965    -4918.649    2.1656429    0.3419464   0.11588412 
   53200   -946.37331    44.359582   -902.01373    1588.7994    10876.225    2.2059836   0.11937575   0.11534732 
   53300   -941.87536     46.93831   -894.93705      1681.16    7534.6941    2.1835469  0.027247904   0.10919818 
   53400   -946.36444    47.721793   -898.64265    1709.2216   -12635.842    2.1426803   0.21118895   0.11153314 
   53500     -946.558    42.362106   -904.19589     1517.257   -6225.6635    2.1637953   0.17443635   0.12174077 
   53600   -945.54988    44.170294   -901.37958    1582.0197    12569.541    2.2050635  0.083767059   0.11795538 
   53700   -942.92236    48.073105   -894.84926    1721.8043    6103.7811    2.1805546   0.13663608   0.12580256 
   53800   -945.94972    45.917232   -900.03249    1644.5887   -11427.199    2.1478893    0.1526843   0.11002839 
   53900   -948.89719    44.812989    -904.0842    1605.0387   -4077.3578    2.1711027   0.15052947   0.11286035 
   54000   -950.00992    48.556518   -901.45341    1739.1184      6929.86    2.1980119    0.2290496   0.11515751 
   54100   -940.62553    44.340552   -896.28498    1588.1178     5500.102    2.1781993   0.16510215   0.12247957 
   54200   -945.39523    48.732835   -896.66239    1745.4334   -11167.533    2.1457649  0.028494437   0.13105028 
   54300   -945.10907    41.779791   -903.32928    1496.4006   -237.65204    2.1776089   0.36883788   0.11813407 
   54400   -948.44616    46.194106   -902.25205    1654.5054    7657.9638    2.1996872  0.063573521    0.1176574 
   54500   -950.52302    47.523688   -902.99933    1702.1262   -2084.4194    2.1802173   0.25624792   0.10627124 
   54600    -953.8657    41.728987   -912.13671     1494.581   -6903.5456     2.174355   0.30446113   0.11393947 
   54700   -948.85553     41.11982   -907.73571    1472.7628    -635.2402    2.1808594   0.21145255    0.1225085 
   54800   -946.72591     44.15758   -902.56833    1581.5644    7094.4439    2.1955754   0.27380364   0.11937486 
   54900   -947.93625    46.103208   -901.83304    1651.2497    1370.2952    2.1818874   0.26648278   0.12108032 
   55000   -949.35155    42.100279   -907.25127    1507.8793   -7097.0738    2.1655905   0.15855439   0.11396973 
   55100   -949.55984    40.914548   -908.64529    1465.4107    2001.8491    2.1888423   0.14864758   0.11707138 
   55200   -948.38225    46.145256   -902.23699    1652.7557    6344.7923    2.1967901   0.11360369    0.1275859 
   55300   -947.26395    44.881351    -902.3826    1607.4872   -753.88165     2.175314  0.081665037    0.1297806 
   55400   -950.12675    41.029443   -909.09731    1469.5258   -5836.0062    2.1711498   0.11785254   0.11737581 
   55500   -950.48496    42.966037   -907.51892    1538.8876    2202.1251    2.1897292   0.20684201   0.10986135 
   55600   -950.14463    48.315417   -901.82921     1730.483    574.58365    2.1844949   0.43191124   0.11908537 
   55700   -945.32828    41.870843   -903.45744    1499.6618    690.76832    2.1735439    0.2640234   0.12190964 
   55800   -952.01073    40.955634   -911.05509    1466.8823   -1479.3363    2.1857909   0.12341141   0.12180092 
   55900   -946.10161    42.787999   -903.31361     1532.511     2730.963    2.1813701   0.14198534   0.13681248 
   56000   -949.55879    47.750296   -901.80849    1710.2425    2394.3269    2.1852936   0.34804182   0.11785531 
   56100   -949.72614    44.984435   -904.74171    1611.1793   -1838.9119    2.1781049  0.012197549   0.12156513 
   56200   -952.19345     40.13671   -912.05674    1437.5514   -4331.4049    2.1826109  0.060404419   0.11779149 
   56300   -948.14821    43.544497   -904.60371     1559.606     291.7678    2.1791959   0.39191867   0.11162763 
   56400   -948.01182    45.746441   -902.26538    1638.4716    7273.1814    2.1976898   0.27733105    0.1271892 
   56500   -949.29501    46.180408    -903.1146    1654.0147   -2122.3889     2.175109   0.26703109   0.11049597 
   56600   -946.39446    47.009708   -899.38475    1683.7172   -10699.005    2.1467278   0.08596959    0.1326615 
   56700   -945.61111    51.085813    -894.5253    1829.7086    -1486.605    2.1678259   0.26730916   0.14125841 
   56800   -948.32572    47.470423    -900.8553    1700.2184    11796.957    2.2089588   0.20478057   0.12014557 
   56900   -947.80831    44.264027   -903.54429    1585.3769   -2021.7984    2.1724385   0.25403425   0.13003926 
   57000   -942.49091    42.219647   -900.27126    1512.1546   -16015.964    2.1298431   0.42943492    0.1467175 
   57100   -943.65978    48.672678    -894.9871    1743.2788   -866.94526    2.1660226   0.29799674   0.13128424 
   57200   -945.28951    44.034015   -901.25549    1577.1387    15332.705    2.2141743   0.24761711   0.12526992 
   57300   -947.11375    42.206174   -904.90757    1511.6721   -1062.0885    2.1732806  0.090289387   0.11933803 
   57400   -945.10213    46.716468   -898.38566    1673.2145   -10261.838    2.1488212   0.32227724   0.12197858 
   57500   -941.78453    43.798634   -897.98589    1568.7082    2413.6211    2.1743542   0.38287453   0.12965425 
   57600   -947.47912    43.691789   -903.78733    1564.8814    6213.8353    2.1912619   0.48182967   0.14551831 
   57700   -945.30765    44.897266   -900.41038    1608.0573    515.10027    2.1702552   0.71113187   0.12725394 
   57800   -943.00421    45.866222   -897.13799    1642.7617   -2717.1562    2.1593755   0.69113022   0.14146373 
   57900    -948.7793    41.470841   -907.30846    1485.3351    4855.1988    2.1949849   0.21112417   0.11721993 
   58000   -953.42212    49.224567   -904.19755    1763.0455   -3898.4409    2.1814221   0.03915271   0.10488858 
   58100   -947.76132    47.284116    -900.4772    1693.5455   -4368.0479    2.1686076   0.14008235    0.1279616 
   58200   -948.24489    44.065256   -904.17964    1578.2577   -1510.1424    2.1815725   0.22860317   0.12523686 
   58300   -948.62838    40.743492   -907.88489    1459.2841    5210.0016    2.2005345    0.1408407   0.13398113 
   58400   -947.28303    45.748238   -901.53479     1638.536     2624.195    2.1842231   0.43178931   0.11993125 
   58500   -946.68146    44.649225   -902.03223    1599.1733   -8036.5072     2.160629   0.13223935   0.14034578 
   58600   -953.41738     42.76935   -910.64803     1531.843    -4062.197    2.1848089   0.17964232   0.12265117 
   58700   -947.76302    44.736317    -903.0267    1602.2926    10598.081    2.2056725   0.17104911   0.12252987 
   58800   -944.93153    44.030929    -900.9006    1577.0282     6017.134    2.1882158   0.28647244   0.11590612 
   58900   -947.40435    40.621545   -906.78281    1454.9164   -11518.559    2.1514247    0.1263013   0.12575726 
   59000   -950.53263    44.960277   -905.57235    1610.3141   -6285.0038    2.1739528   0.23725238   0.12542672 
   59100   -943.31954    44.798749    -898.5208    1604.5287    14146.882    2.2050291   0.11611378   0.12102607 
   59200   -945.67001    42.362268   -903.30774    1517.2628    1490.4359     2.178402   0.49911009   0.13374932 
   59300     -948.169    42.943694   -905.22531    1538.0874   -9022.0439    2.1599886   0.25789689   0.12468419 
   59400   -954.36222    44.562295   -909.79993    1596.0598   -1637.7479     2.191127  0.099209186   0.11718753 
   59500   -951.66596    39.420154   -912.24581     1411.887     11261.29    2.2197119   0.21292383   0.11899033 
   59600   -948.76131    43.324917   -905.43639    1551.7414     357.3382     2.183669   0.21230495    0.1299577 
   59700   -946.50722    43.405177   -903.10204     1554.616   -6808.3667    2.1638798   0.12217587   0.12645126 
   59800   -947.90832    48.583164   -899.32516    1740.0728   -3377.9681    2.1716396   0.61749566   0.14145584 
   59900   -944.11161    51.884227   -892.22738    1858.3048    4711.0432    2.1808395   0.28349074   0.12114247 
   60000   -946.21299    43.686281   -902.52671    1564.6841    3673.9419    2.1868671    0.1154774   0.13104034 
   60100   -949.12244    45.914525   -903.20792    1644.4918   -8323.0232    2.1634255    0.2878729   0.12549414 
   60200   -949.09555    46.507533   -902.58801    1665.7312   -2444.4163    2.1766779   0.28580954   0.13808134 
   60300   -951.23801    43.750872   -907.48714    1566.9976    4442.3329    2.1992908   0.12326348   0.13044172 
   60400   -950.79954    40.655367   -910.14417    1456.1278    2226.8741    2.1929176  0.060684572   0.11530882 
   60500   -947.98126    43.881717   -904.09954     1571.684   -3661.3477    2.1765723   0.12833279   0.13682063 
   60600    -946.0922    44.157512   -901.93469    1581.5619    -1054.456    2.1766593  0.084599297   0.13283181 
   60700   -948.11256    43.636226   -904.47634    1562.8914    1822.1932    2.1863621    0.2372421   0.12588313 
   60800   -955.69898    45.249984     -910.449    1620.6903   -75.601864    2.1996666  0.035805122   0.11476073 
   60900   -948.27164     45.37986   -902.89178     1625.342   -2217.5094    2.1737005    0.1509788   0.12213888 
   61000    -945.1431    43.200827   -901.94227    1547.2969   -1621.0625    2.1741718   0.17160771   0.14008957 
   61100   -951.80403     43.12345   -908.68058    1544.5256    962.84483    2.1928155   0.03723035    0.1249486 
   61200   -952.77525    45.445157   -907.33009    1627.6807   -440.09741    2.1892926   0.12383777   0.12024615 
   61300   -947.33465    45.437384   -901.89726    1627.4023   -345.07226    2.1753788   0.13687793   0.13817278 
   61400   -943.70344    40.101581   -903.60186    1436.2932     1869.058    2.1775983   0.16622826   0.12558606 
   61500   -952.20533    41.424275   -910.78105    1483.6673    1758.5742    2.1982709    0.1207556   0.11665503 
   61600   -947.65781    43.599789   -904.05802    1561.5863    1863.9191    2.1843651   0.34158841   0.12035782 
   61700   -944.62781    42.525359   -902.10245    1523.1041    1239.8687    2.1767543  0.050608607   0.11479426 
   61800   -946.42421    42.849064   -903.57514    1534.6981    -1599.124    2.1739909   0.14427807   0.11150991 
   61900   -950.88585    41.524741   -909.36111    1487.2656    235.13095    2.1885969   0.11761771   0.11945231 
   62000   -947.89084    38.869589   -909.02126    1392.1677    6588.1607    2.2033134   0.32343875   0.13062591 
   62100   -948.17082    45.364006   -902.80681    1624.7742    1048.7827     2.182868  0.048935912   0.12656394 
   62200   -948.08723    45.185635    -902.9016    1618.3856   -6736.7569     2.162048   0.27539931   0.12387463 
   62300   -948.48665    45.948332   -902.53832    1645.7026   -2275.6293    2.1776036   0.12688383   0.13045759 
   62400   -952.49927    40.098646   -912.40063    1436.1881    9393.8784    2.2154142   0.15353056   0.11518477 
   62500    -951.4882    44.652222   -906.83598    1599.2806   -5131.4369    2.1741938  0.010634355   0.12181818 
   62600   -948.42109    45.016384    -903.4047    1612.3236   -7643.5549    2.1601706   0.54788553   0.12486211 
   62700   -948.12409    47.418622   -900.70547    1698.3631      2846.45    2.1867441  0.095786361   0.11776515 
   62800   -950.02819    40.858907   -909.16928    1463.4179    8161.2555    2.2045741  0.068445333   0.11049245 
   62900   -949.73107    43.779079   -905.95199    1568.0079   -8436.0708    2.1640902   0.16937816   0.11763278 
   63000   -945.71731    43.733736   -901.98357    1566.3838   -4096.8203    2.1633359   0.20552475   0.12998211 
   63100   -948.73981    46.013553   -902.72625    1648.0386     7721.954    2.1944672   0.19951728   0.11876659 
   63200   -952.43975    41.923302   -910.51645    1501.5406    5337.2739     2.205349   0.35790222   0.11813662 
   63300   -945.94355     44.58155     -901.362    1596.7494   -11196.438    2.1446531  0.040480885    0.1389056 
   63400   -951.25008    48.955849   -902.29423     1753.421    -4316.605    2.1682023   0.55280964   0.12276916 
   63500   -951.84673    47.910419   -903.93631    1715.9774    7560.2053    2.2070339   0.16016257   0.11465996 
   63600   -951.12123    41.591152   -909.53008    1489.6442    26.852615    2.1882449   0.17984128   0.11899479 
   63700   -955.14628    42.656279      -912.49    1527.7932   -6419.9795    2.1806761   0.29964996   0.11221068 
   63800   -947.02134    42.197445    -904.8239    1511.3595    323.08085    2.1801499  0.032551361   0.11673774 
   63900   -946.94592    43.846014   -903.09991    1570.4052    2234.6296    2.1862719   0.10612735   0.11964297 
   64000   -946.74195    45.483433   -901.25851    1629.0516    1086.6736     2.179961   0.25499524   0.12521799 
   64100   -946.55083    54.345257   -892.20557      1946.45   -5952.3217    2.1614896   0.34449854   0.12409739 
   64200   -945.94162    45.657989   -900.28364    1635.3036     1033.191     2.179998   0.31659784   0.13339406 
   64300   -945.52017    42.811836   -902.70833    1533.3647    -1748.639    2.1724125   0.23016777   0.12832069 
   64400   -946.13376    42.670933   -903.46283    1528.3181   -204.71591    2.1777766   0.10615819    0.1377334 
   64500   -948.14737     44.39057    -903.7568    1589.9092    2648.9695    2.1871631   0.26097509   0.12239942 
   64600   -943.15631    50.119624   -893.03668    1795.1032   -4814.6432    2.1562815   0.17107537      0.14517 
   64700   -946.88018    47.494881    -899.3853    1701.0944    1201.5553    2.1816947   0.24180769   0.12102168 
   64800   -946.71664    43.972327   -902.74431    1574.9293    3635.8718    2.1879922   0.25244285   0.12095966 
   64900   -947.64169    42.199707   -905.44198    1511.4405   -2575.9409    2.1728492   0.11611328   0.11767718 
   65000   -943.31122     46.19094   -897.12028     1654.392   -1455.7653    2.1642277  0.048440468   0.12051453 
   65100   -948.83677    50.409346   -898.42743      1805.48    6202.6987    2.1954854   0.23556017   0.11591157 
   65200   -951.59751    47.983833   -903.61367    1718.6069   -2295.9077     2.180173   0.15474472   0.11570872 
   65300   -944.30816    40.425854    -903.8823    1447.9075   -7135.0528    2.1559249   0.24502772   0.13286318 
   65400   -944.56436    49.726957    -894.8374    1781.0393    468.94228    2.1668703   0.16123261   0.13500823 
   65500   -945.75332    43.822936   -901.93039    1569.5787    13139.177    2.2096214  0.076058043   0.12938527 
   65600   -949.17654    44.447356   -904.72919    1591.9431    -7830.511    2.1682696   0.09341918   0.11237326 
   65700   -948.00886    47.104023   -900.90484    1687.0953   -10010.849    2.1514923   0.34107171   0.12642696 
   65800   -944.45287     49.51226   -894.94061    1773.3496    3739.0829    2.1800759  0.070191867   0.12672377 
   65900   -948.70042    43.992316   -904.70811    1575.6452    7409.0355    2.2034821  0.055394913   0.11689992 
   66000   -949.25831    45.120148   -904.13817    1616.0401   -9088.4334    2.1599795   0.10537453   0.11726516 
   66100   -948.09589    46.778274   -901.31761    1675.4281   -3820.2593    2.1680209   0.25304808   0.11534648 
   66200   -949.46845    43.408219   -906.06023     1554.725     5634.426    2.1950784   0.11743982   0.11618679 
   66300   -948.91939    40.252864   -908.66653    1441.7116    4394.6181    2.1980158    0.1357891   0.12583101 
   66400   -949.14882    46.579997   -902.56882    1668.3266   -4987.9875    2.1740181   0.29758394   0.13781487 
   66500   -945.34683    43.652178   -901.69465    1563.4627   -5057.7165    2.1674833   0.50723524   0.12815602 
   66600   -953.13799    42.906561   -910.23143    1536.7574   -646.30546    2.1954554  0.059432262   0.11996762 
   66700   -947.73748    42.162905   -905.57458    1510.1223    3698.0087    2.1924514   0.11021743   0.11477965 
   66800   -944.48203    42.882046   -901.59998    1535.8794    2698.2866    2.1809774   0.13122203   0.11965702 
   66900   -946.00041    41.347925   -904.65249    1480.9327   -3192.8023     2.173716  0.017002826   0.12915725 
   67000   -952.57591    41.647321   -910.92859     1491.656    128.02585    2.1953246   0.13238241    0.1244153 
   67100    -949.1788    47.788454   -901.39034    1711.6091    2976.7243    2.1836059   0.13553649   0.11127462 
   67200   -949.86685    47.619003   -902.24785      1705.54   -2064.4866     2.177901   0.17404647   0.12070658 
   67300   -948.84043    42.617468   -906.22296    1526.4031   -4911.6447    2.1713844   0.12085626   0.12746494 
   67400   -951.84189    40.357578   -911.48431    1445.4621    2756.9997    2.1988116   0.22131249   0.12399555 
   67500   -948.04614    46.401531   -901.64461    1661.9346    1741.8355    2.1823533   0.22305624   0.12351511 
   67600    -947.3163     45.05288   -902.26342    1613.6308   -1399.2771    2.1730359   0.11944152   0.11037761 
   67700   -947.35835    43.520558   -903.83779    1558.7486   -2469.7356    2.1742088   0.32136048   0.10710962 
   67800   -951.71613    44.906971   -906.80916    1608.4048    442.73097    2.1880533  0.078362752   0.10358322 
   67900   -950.98861     36.69754   -914.29107    1314.3728    9174.4839    2.2086726    0.1186341   0.10631499 
   68000   -948.54909    43.101343   -905.44774    1543.7338   -3236.2454    2.1707493   0.28305101   0.11709232 
   68100     -947.598    44.289623   -903.30837    1586.2937   -2875.4067    2.1703141    0.1693064   0.12736135 
   68200   -946.32052     45.60284   -900.71768    1633.3283    6924.0165     2.194976   0.10062038   0.12964157 
   68300   -949.95858    42.404979    -907.5536    1518.7925    1787.4198    2.1936945   0.20356994    0.1281349 
   68400   -952.97077    44.990897   -907.97987    1611.4108   -9121.3855     2.165181   0.11749991   0.12772562 
   68500    -949.2367    46.276585   -902.96011    1657.4595   -1799.9436    2.1785017   0.30374498   0.11818536 
   68600   -946.77185    46.357717   -900.41413    1660.3653    10767.635    2.2039085    0.1963238   0.12136359 
   68700   -952.07522    43.320437   -908.75478    1551.5809   -2681.1675    2.1821648  0.098586801  0.099839914 
   68800   -949.91858    44.033536   -905.88505    1577.1216    -11661.53    2.1528824   0.22191242   0.10351646 
   68900   -947.66198    46.281959   -901.38003    1657.6519    2995.6009    2.1889105   0.24970129   0.12455941 
   69000   -948.12228    45.151757   -902.97052    1617.1722    8200.5236     2.202625   0.12769507   0.11737527 
   69100   -951.09343    40.727717   -910.36572    1458.7191   -3529.7782    2.1767919   0.21834836   0.12147541 
   69200   -950.31576    46.932526   -903.38323    1680.9529   -8147.4691    2.1658046   0.26564055   0.12906331 
   69300    -947.2154     45.93646   -901.27894    1645.2774    4301.8835    2.1908603   0.41443649   0.12211467 
   69400    -951.2469    46.759687   -904.48721    1674.7624    791.03542    2.1887548   0.69457452   0.11686018 
   69500   -950.42757    41.716742   -908.71082    1494.1424   -3073.0364    2.1792624   0.17715527   0.11819005 
   69600   -955.76465    39.823676   -915.94097    1426.3396   -2171.1771    2.1942013  0.039106728  0.097962621 
   69700   -952.81538    46.497412   -906.31796    1665.3687    -3509.182    2.1830126  0.088699041   0.10815042 
   69800   -950.04773    45.972709   -904.07502    1646.5757    3098.7092     2.193162   0.29627576    0.1192181 
   69900   -946.74226    44.425313   -902.31695    1591.1536   -1190.0709    2.1793312   0.32428672   0.12606251 
   70000   -946.69896    46.536367   -900.16259    1666.7639    -5066.272    2.1674983   0.50109135   0.13883757 
   70100    -954.0111    44.068742   -909.94236    1578.3825   -1015.6423    2.1948826   0.33298937    0.1115108 
   70200   -951.31401    44.714509    -906.5995    1601.5115   -900.17301    2.1858679    0.2006299   0.11495955 
   70300   -949.69862    47.307975   -902.39064    1694.4001   -2011.5563    2.1802042   0.26423474    0.1273713 
   70400   -946.15774    45.017897   -901.13984    1612.3778   -12.640989    2.1778053   0.24079408   0.12963074 
   70500   -955.01441    44.405721   -910.60868    1590.4519    217.92687    2.1937865   0.16305241   0.10895885 
   70600   -946.79963    42.388856   -904.41078    1518.2151    457.84115    2.1796706  0.047174065   0.12535109 
   70700   -948.23427    46.953832   -901.28044     1681.716   -2079.2372    2.1777126   0.63543815   0.10944389 
   70800   -949.75575    45.883074   -903.87267    1643.3653    2072.1369    2.1894232   0.18842232   0.13316335 
   70900   -952.31087    42.776467   -909.53441    1532.0979    411.03153    2.1922867   0.33141792   0.11167862 
[...]
   86800   -948.27418    46.679952   -901.59423    1671.9066    2293.6205    2.1882675   0.45569451   0.12362272 
   86900   -942.26245    40.760902   -901.50154    1459.9077    177.03153    2.1755681  0.051892875   0.14828553 
   87000   -949.82571    42.351849   -907.47386    1516.8896   -6645.7963    2.1690351   0.30881064   0.11075805 
   87100   -949.45755    45.587275   -903.87028    1632.7709    3995.1844    2.1945145   0.38783734   0.12089323 
   87200   -946.35844    47.762393   -898.59605    1710.6757    9437.6869     2.203463   0.20514536   0.11245144 
   87300   -947.70781    43.188576   -904.51924    1546.8582   -7483.3189    2.1624615  0.097237746   0.11026593 
   87400    -947.5873    44.615305     -902.972    1597.9584   -8986.2888    2.1565971  0.064765766   0.12939249 
   87500   -942.22301    46.887503   -895.33551    1679.3403    6997.1024    2.1842951  0.095921945   0.12261678 
   87600   -947.52971    45.082908   -902.44681    1614.7063    8691.0417     2.204035    0.1753796   0.12701465 
   87700   -947.54651     42.22072   -905.32579    1512.1931   -6294.4685    2.1675539   0.36632766   0.13660612 
   87800    -945.0787    47.821823   -897.25688    1712.8043   -7146.0219    2.1535922   0.10279928    0.1297075 
   87900   -946.58625    44.568274   -902.01798    1596.2739    7780.5604     2.198043  0.045194282   0.12285963 
   88000    -945.0304    40.204916   -904.82548    1439.9943    5764.3546    2.1946641   0.19599041   0.12101272 
   88100     -947.863    46.387994     -901.475    1661.4497    -5607.209    2.1657808  0.073487686   0.11457869 
   88200   -944.47421    46.977599   -897.49661    1682.5672   -4517.5235    2.1641486  0.081110688   0.13075127 
   88300   -948.20718    40.975726   -907.23146    1467.6019    9828.2338    2.2094134   0.16375988   0.11110141 
   88400    -946.4881    43.480837   -903.00727    1557.3259    2477.8039    2.1823124   0.37922415   0.12369722 
   88500   -944.81298    43.900144   -900.91284    1572.3439   -5642.1527    2.1620089   0.22250892   0.13594015 
   88600   -954.68691    45.192741   -909.49417    1618.6401   -2763.4273    2.1878073    0.1935151   0.11344716 
   88700   -947.84873    42.909642   -904.93909    1536.8678    3321.8952    2.1911188   0.10295949   0.13291701 
   88800   -947.03413    46.186156   -900.84797    1654.2206    1407.8358    2.1812233   0.13503361   0.12043937 
   88900   -948.15749    42.244865   -905.91263    1513.0579   -975.61052    2.1771282  0.082250121   0.11956084 
   89000   -949.53807    41.352046   -908.18602    1481.0803    647.06221    2.1892992   0.22163895   0.11276881 
   89100   -948.44291    48.291553   -900.15136    1729.6283   -2249.8255    2.1740298  0.064060915    0.1135735 
   89200   -948.41511    44.907503    -903.5076    1608.4239   -284.82787    2.1792272  0.027221337   0.11372468 
   89300   -950.91558    42.907289    -908.0083    1536.7835    711.65986    2.1876363    0.4836275   0.10988412 
   89400   -947.79687    49.433851   -898.36302    1770.5413   -4004.8692     2.165896  0.039718471   0.11940956 
   89500   -943.57108    42.203682    -901.3674    1511.5829    5851.6591    2.1858422   0.35914375   0.11994056 
   89600   -950.79607    45.231862    -905.5642    1620.0413   -611.05119    2.1841982  0.076937679   0.11756427 
   89700   -943.20872    45.201423   -898.00729    1618.9511   -2204.0127    2.1647597   0.10218836   0.14279278 
   89800   -948.02285    48.403287   -899.61956    1733.6302   -1316.7555    2.1750671   0.15622413   0.13014688 
   89900   -950.79697     46.04663   -904.75034    1649.2233   -259.69137    2.1842687    0.1875155   0.11862884 
   90000   -946.50995    46.120584   -900.38936    1651.8721    1690.2655    2.1769133    0.2392586    0.1177535 
   90100   -945.48882    48.623335   -896.86548    1741.5115   -4456.9928    2.1600575  0.096565285   0.11594568 
   90200   -946.98738    41.270659   -905.71672    1478.1653    3288.9452    2.1875103   0.29644435   0.11749332 
   90300   -949.99921    48.115088   -901.88412     1723.308    4500.1773    2.1942779  0.089146733   0.11329159 
   90400   -945.91716    46.907664    -899.0095    1680.0624   -2951.8061    2.1675042   0.14445984    0.1225622 
   90500   -950.70674    42.138063   -908.56868    1509.2326   -6431.6655    2.1708561   0.11081322   0.11839077 
   90600   -949.72247    44.527651   -905.19482     1594.819    665.89145    2.1846109  0.026316656   0.12558838 
   90700   -948.04333    47.941858   -900.10147    1717.1035    6119.4289    2.1934845  0.089616749   0.13451046 
   90800   -947.97205    42.865986   -905.10606    1535.3042   -3022.4419    2.1755274   0.48422129   0.13952401 
   90900   -953.17165    44.471733   -908.69992    1592.8162   -8476.4548    2.1700338  0.073841947   0.11849055 
   91000   -949.67383    48.370466   -901.30336    1732.4547   -341.75797    2.1823835   0.13649216   0.11642837 
   91100   -946.23715     43.82905   -902.40809    1569.7976    8509.3466    2.1975385   0.14518562   0.11688951 
   91200   -952.51009    42.658296   -909.85179    1527.8655    -2182.201    2.1858219  0.041911107   0.10061685 
   91300   -941.95005    40.218688   -901.73136    1440.4876   -6584.9515    2.1555252  0.040421795   0.11891051 
   91400   -947.76631    46.713631   -901.05268    1673.1128    4775.3016    2.1920534   0.19235515   0.12187299 
   91500    -950.6128    47.651523   -902.96128    1706.7048    4865.8842    2.1973264   0.74235904   0.12182198 
   91600   -939.83607    46.094072     -893.742    1650.9225   -6365.6683    2.1440752   0.83299348   0.15272888 
   91700   -944.27106    45.519367   -898.75169    1630.3387   -5417.6775    2.1664142   0.41125096   0.15576277 
   91800    -949.3878    47.184927   -902.20287     1689.993    4676.9202    2.1916326    9.5212013   0.14339627 
   91900   -949.09575    46.966952    -902.1288    1682.1859    5317.7593    2.1900665    5.7860922    0.1354507 
   92000   -941.97051    49.720861   -892.24965    1780.8209   -9599.9696    2.1427992    4.7444022   0.12744669 
   92100   -943.35952    43.469806   -899.88971    1556.9308    -2975.867    2.1671696    7.6088431   0.11300795 
   92200   -946.96689    44.869042   -902.09785    1607.0464    9107.9661    2.1999767    5.8888466   0.11073253 
   92300   -949.16487    44.909092   -904.25578    1608.4808    2404.5553    2.1877571    5.8685328   0.11509977 
   92400   -948.26369    51.336992    -896.9267    1838.7049   -12382.249    2.1454073    7.3429077    0.1251646 
   92500   -944.38095    46.811045    -897.5699    1676.6019    350.81893    2.1692148    5.4195158   0.12911094 
   92600   -947.55082    45.131017   -902.41981    1616.4294    8299.8748    2.2001358      6.64745   0.13493509 
   92700   -944.76905    40.300156   -904.46889    1443.4054    2843.2153    2.1809908    6.3434801   0.14049835 
   92800   -943.15439    47.241882   -895.91251    1692.0329    -8141.191    2.1434909     7.054289   0.14142519 
   92900   -946.85394    46.903638   -899.95031    1679.9182    1890.5047    2.1760756    6.6735802   0.11606406 
   93000   -946.86148     43.60887   -903.25261    1561.9116    8661.9667    2.1990014     6.312995   0.10117285 
   93100   -947.44249    44.556884    -902.8856     1595.866   -3799.1111    2.1718296    5.1855509   0.11480679 
   93200   -943.52616    48.747618   -894.77854    1745.9629   -10161.952    2.1400606    6.5562897   0.11236658 
   93300   -950.33275    46.594515   -903.73824    1668.8466    3961.2961     2.193271    5.5958038    0.1189707 
   93400   -949.03455    45.416777   -903.61778    1626.6643    6899.6684    2.2018623    5.9501552   0.13557028 
   93500   -946.26698    43.811529   -902.45545    1569.1701   -6491.8195    2.1571388    6.1583277   0.13261356 
   93600    -942.7704    45.504135   -897.26626    1629.7931   -11179.751    2.1414657     5.942009   0.14731956 
   93700   -950.28096     42.81573   -907.46523    1533.5042    15542.764    2.2246589    6.0592189   0.10486354 
   93800   -950.50797    45.935308   -904.57266    1645.2362    7503.3154    2.2022937    6.8579289   0.11572288 
   93900   -943.48863    41.148182   -902.34045    1473.7787   -11904.172    2.1446498    6.6691698    0.1264076 
   94000   -946.48215    47.235356   -899.24679    1691.7992   -5722.1292    2.1610456    6.4986781   0.10818033 
   94100   -951.74957    42.934169    -908.8154    1537.7462    9996.8428    2.2127059    6.2733058  0.097522381 
   94200   -945.90442    42.953648   -902.95077    1538.4439    3431.7762    2.1812798    5.7842321  0.095093972 
   94300   -945.14507     43.85203   -901.29304    1570.6207   -5624.1145    2.1646508    5.5982986   0.12368886 
   94400   -948.45245    40.085505   -908.36694    1435.7174    396.54103    2.1862397     5.669102   0.12584094 
   94500   -948.89309    43.400898   -905.49219    1554.4628    3704.9299    2.1942151    5.6489762   0.11829655 
   94600   -949.42509    48.741911   -900.68318    1745.7585   -2698.4838    2.1775324    6.6103953   0.13408724 
   94700   -948.46682    43.071737   -905.39508    1542.6734   -5573.2116    2.1658938    4.4278339  0.096392378 
   94800   -949.54326    42.735452   -906.80781    1530.6289   -372.74429     2.185112    4.3257096   0.10185594 
   94900   -945.04843    46.877774   -898.17066    1678.9919    5334.3078    2.1827549    6.6125072   0.11908388 
   95000   -944.44965    41.762084   -902.68757    1495.7664     1962.099    2.1766747    6.1116033   0.10949044 
   95100   -947.26604    40.130785   -907.13526    1437.3392   -5969.4573    2.1673542    6.5216858   0.10464851 
   95200   -944.43091    45.503953   -898.92695    1629.7866    2862.6699    2.1748442    6.2165262   0.11519689 
   95300   -948.78378    48.766785   -900.01699    1746.6494    7916.8966    2.2004641    5.9269879   0.12225946 
   95400   -946.59898    41.174417   -905.42456    1474.7183   -2452.6563    2.1720885    6.5146035   0.12723714 
   95500   -943.43104    42.702797   -900.72824    1529.4593   -8882.4706    2.1480422    7.2745138   0.11984471 
   95600   -941.85538    45.784925   -896.07045      1639.85    6076.2883    2.1778226    6.1289244   0.12096736 
   95700   -949.60852    45.673442   -903.93508    1635.8571    12626.573     2.211403    6.3385404   0.11939171 
   95800   -949.83462    46.432029   -903.40259    1663.0269   -7784.0547    2.1642832    5.0241693   0.11819913 
   95900   -943.56155    45.412205   -898.14935    1626.5005   -12696.941    2.1356869    6.3584936   0.11891388 
   96000   -953.52881    45.437998   -908.09081    1627.4243    5344.4012    2.2026988    6.6917115    0.1064067 
   96100   -947.23214    43.328251   -903.90389    1551.8608    7426.0782    2.1964737     5.427963   0.10170652 
   96200    -944.5566    43.904797    -900.6518    1572.5106   -3051.0587     2.163064    5.5120728    0.1151407 
   96300   -946.78739    41.203372   -905.58402    1475.7554   -3328.3206    2.1701657     5.752644   0.11854216 
   96400   -949.34109    41.979326   -907.36176    1503.5472    4440.6767    2.1950657    5.6005624   0.11103199 
   96500   -946.41435    45.793469   -900.62088     1640.156     2607.883    2.1828397    6.5678542   0.13684101 
   96600   -949.31767    45.250277   -904.06739    1620.7008   -3795.9197    2.1717852    5.9972977   0.12385852 
   96700   -950.34319    40.762835   -909.58036    1459.9769   -2805.2422    2.1814015    6.0492679    0.1065265 
   96800   -945.03319    44.623939   -900.40925    1598.2676    1535.8626    2.1781833    5.9562836   0.13210603 
   96900     -948.795      46.6929    -902.1021    1672.3703    3720.6458    2.1898985    6.8310816    0.1134216 
   97000   -950.19173    42.338431    -907.8533    1516.4091   -163.92021     2.182006    6.1876677   0.12476538 
   97100    -943.7438    44.426911   -899.31689    1591.2108   -4662.6105    2.1593949    6.7182187   0.13506249 
   97200   -943.50248    42.896288   -900.60619    1536.3895    6545.5647    2.1886794    6.3232207   0.11729589 
   97300   -949.62808    44.608904   -905.01917    1597.7292    4538.4198    2.1960672    6.0619867   0.12962429 
   97400   -945.23689    45.470104   -899.76678    1628.5742   -7709.6697    2.1580884    5.3173073   0.14614766 
   97500   -942.01337    43.600425   -898.41294    1561.6091   -5444.4179    2.1544259    7.0304527   0.13873583 
   97600   -947.91332    43.363465   -904.54985    1553.1221    7464.7265    2.2030651    4.6721545   0.12845749 
   97700   -943.82363    41.193012   -902.63061    1475.3843    10554.281    2.2039088    6.5117967   0.12852723 
   97800   -944.92909    47.588703   -897.34038    1704.4548   -14000.378    2.1374243    6.8421183   0.13373297 
   97900   -948.54022    41.421174   -907.11905    1483.5562   -6665.6018    2.1685771    6.2883178    0.1244194 
   98000   -947.07561    43.005931   -904.06968    1540.3165    10721.816    2.2038028    5.8645941   0.11893824 
   98100   -942.45443    42.707038   -899.74739    1529.6112    6379.2542    2.1850044     5.736596   0.11834657 
   98200   -942.69605     40.34754   -902.34851    1445.1025   -5926.9288    2.1512421    4.9405094   0.12680806 
   98300   -949.98357    42.095043   -907.88853    1507.6918   -988.21499    2.1833287    5.6686443   0.11451419 
   98400   -942.46426    42.180676   -900.28358    1510.7588    6947.9296     2.189703    4.4999359   0.12829321 
   98500   -944.59304    42.085358   -902.50768    1507.3449    305.01057    2.1731191    7.8183559   0.13440487 
   98600   -953.41234    43.138587   -910.27376    1545.0678   -4092.7686    2.1793589    5.1375151   0.10519489 
   98700   -950.10411     47.88999   -902.21412    1715.2458    -2028.021    2.1749056    5.9413788   0.11442951 
   98800   -944.44339    43.257482   -901.18591    1549.3261    4556.9475    2.1847196    8.8581647   0.12905742 
   98900   -946.64452    39.225913    -907.4186    1404.9299    2724.4691    2.1863293    6.7560864   0.11981589 
   99000   -945.85448    41.274751   -904.57973    1478.3119    -356.9749    2.1752545    6.6344451   0.10696171 
   99100   -943.26078    43.230182    -900.0306    1548.3484    2455.3592    2.1746013    7.0383757   0.11315135 
   99200    -945.0548    40.654414   -904.40038    1456.0937     3477.266    2.1844205    6.5153106   0.12867941 
   99300   -949.66507     43.60746   -906.05761    1561.8611   -2159.1238     2.180321    6.1987833   0.12011481 
   99400   -942.14183    45.250054   -896.89178    1620.6928    -4558.956    2.1566206    4.7568117   0.12859708 
   99500   -947.45423    44.126474   -903.32776    1580.4503    3919.5914    2.1881316    5.6895549   0.11866679 
   99600   -949.77017     45.40473   -904.36544    1626.2328    7749.9707    2.1977717    6.0272319   0.10703778 
   99700   -941.06776    45.116021   -895.95174    1615.8922   -5706.7982    2.1512648    4.7447013   0.12880802 
   99800   -945.10245     42.29984   -902.80261    1515.0269   -8075.5192    2.1561289     6.422208   0.12279996 
   99900   -948.43782    44.382165   -904.05566    1589.6082    8299.9617    2.2036804    6.6364412   0.11031616 
  100000   -948.56305    48.729463   -899.83358    1745.3126    8591.3745    2.2021528    6.9790929   0.11979039 
  100100    -942.2741    43.447526   -898.82658    1556.1328   -9939.1546    2.1436702    7.0571832   0.13292792 
  100200   -947.64387    39.721931   -907.92193    1422.6955    -5142.505    2.1699915    4.2709492   0.12839293 
  100300   -949.42506    47.151231   -902.27383    1688.7861    8126.3535    2.2032738    4.4659494    0.1338138 
  100400   -946.82804    46.604524   -900.22352     1669.205    4328.2308    2.1879947    5.9449413   0.13355822 
  100500    -949.8725    41.183496     -908.689    1475.0435   -9043.6244    2.1678409    6.3323568   0.13011552 
  100600   -950.97128    45.898254   -905.07303     1643.909   -5828.9353    2.1693118    7.3363502   0.12933331 
  100700   -949.84427    49.752122   -900.09215    1781.9406    6390.7951    2.1949577     6.064401    0.1268938 
  100800    -948.3207    42.315005   -906.00569      1515.57    3129.5421    2.1943611    6.0529636   0.12225843 
  100900   -945.95151    37.460837   -908.49068    1341.7113   -2528.1854    2.1729924    5.0916125    0.1338548 
  101000   -948.11342    47.512283   -900.60114    1701.7177    -5854.652    2.1628593    5.6811438    0.1155842 
  101100   -948.61849    45.737147   -902.88135    1638.1387    5356.5732    2.1932433    5.0899585   0.11546772 
  101200   -949.85664    42.011379   -907.84526    1504.6952      4698.43    2.1967558    6.1206758   0.13003642 
  101300   -946.88741    48.707607    -898.1798    1744.5299   -7408.8682    2.1572299    4.8716972   0.13377323 
  101400   -947.69271    46.130487   -901.56222    1652.2268   -1796.4467    2.1740645    6.6190214   0.13119931 
  101500   -948.37884    43.428852   -904.94999     1555.464     5079.836    2.1917661     6.478826   0.12200212 
  101600   -948.59965     48.41277   -900.18688    1733.9699   -1056.0925    2.1759709    7.6898392     0.129842 
  101700   -941.49174    44.535307   -896.95643    1595.0932    -3819.339    2.1541731    4.4729185   0.14675932 
  101800   -948.99647    45.556768    -903.4397    1631.6782   -3899.4771    2.1704513    12.180997   0.13382253 
  101900   -943.97474    42.741694   -901.23304    1530.8525     9499.535     2.191465    7.2063951   0.13479724 
  102000   -940.74541    47.642488   -893.10292    1706.3811    1704.1315    2.1669653    6.9817392   0.15261508 
  102100   -945.74392    43.602028    -902.1419    1561.6665    -8391.022    2.1490274    6.8408771   0.13760247 
  102200   -944.23912    41.159193   -903.07992     1474.173   -2739.3088    2.1675301    6.9719547   0.14947788 
  102300    -945.3289     47.56731   -897.76159    1703.6886    16694.634    2.2159656    6.9555262   0.14638867 
  102400   -946.00444     45.84368   -900.16076    1641.9544    3053.9301    2.1805887      6.53761   0.11930783 
  102500    -949.8489    42.967663   -906.88124    1538.9459   -14410.462    2.1511368    6.1128432   0.14312271 
  102600   -947.32111    44.887976   -902.43314    1607.7245    58.622739    2.1760074    6.0530544    0.1304024 
  102700   -942.66044    44.434179   -898.22626    1591.4712    11878.886    2.2013949    8.1732984   0.13469869 
  102800   -949.50349     43.36991   -906.13358    1553.3529    918.13187    2.1807743    5.4652974   0.14509061 
  102900   -946.98726    42.062588   -904.92467    1506.5294   -9073.9986    2.1549958    5.1698836   0.14828726 
  103000   -946.18982    46.483847   -899.70598    1664.8828      943.254    2.1783937    4.0523013   0.12240809 
  103100    -949.4657    45.506365   -903.95934     1629.873    4038.5505    2.1970346    6.5151486   0.12977858 
  103200   -949.18468    41.630398   -907.55428    1491.0499    219.45711    2.1836373    2.5863917   0.11621549 
Loop time of 70.8042 on 1 procs for 100000 steps with 217 atoms

Performance: 366.080 ns/day, 0.066 hours/ns, 1412.345 timesteps/s
100.0% CPU use with 1 MPI tasks x no OpenMP threads

MPI task timing breakdown:
Section |  min time  |  avg time  |  max time  |%varavg| %total
---------------------------------------------------------------
Pair    | 68.485     | 68.485     | 68.485     |   0.0 | 96.73
Neigh   | 0.75145    | 0.75145    | 0.75145    |   0.0 |  1.06
Comm    | 0.44608    | 0.44608    | 0.44608    |   0.0 |  0.63
Output  | 0.035042   | 0.035042   | 0.035042   |   0.0 |  0.05
Modify  | 0.93183    | 0.93183    | 0.93183    |   0.0 |  1.32
Other   |            | 0.1543     |            |       |  0.22

Nlocal:    217 ave 217 max 217 min
Histogram: 1 0 0 0 0 0 0 0 0 0
Nghost:    953 ave 953 max 953 min
Histogram: 1 0 0 0 0 0 0 0 0 0
Neighs:    4185 ave 4185 max 4185 min
Histogram: 1 0 0 0 0 0 0 0 0 0
FullNghs:  8370 ave 8370 max 8370 min
Histogram: 1 0 0 0 0 0 0 0 0 0

Total # of neighbors = 8370
Ave neighs/atom = 38.5714
Neighbor list builds = 1273
Dangerous builds = 3
Total wall time: 0:01:13
