LAMMPS (3 Mar 2020)

# ---------- 1. Initialize simulation ----------
units metal
atom_style atomic
dimension 3
boundary p p p
read_data /home/modeler/RemLabs/Project/eval_timestep_nvt_fluc/n3_T1800_timestep3.079241e-03_steps6496/20201206-212554/lammps.data
  orthogonal box = (0 0 0) to (17.469 17.469 17.469)
  1 by 1 by 1 MPI processor grid
  reading atoms ...
  217 atoms
  read_data CPU = 0.00102525 secs

pair_style meam/c
pair_coeff * * library.meam Li Si LiSi.meam Li Si
Reading potential file library.meam with DATE: 2012-06-29
Reading potential file LiSi.meam with DATE: 2020-11-07

group Li type 1
1 atoms in group Li

velocity all create 1800 3320 dist gaussian

# ---------- 2. Describe computed properties----------
compute msdli Li msd
thermo_style custom step pe ke etotal temp press density c_msdli[4]
thermo 100

# ---------- 3. Specify ensemble  ----------
# fix 1 all npt temp 1800 1800 0.15396205276650665 tchain 2 iso 1.0 1.0 1.0 pchain 2
fix 1 all nvt temp 1800 1800 0.15396205276650665
# fix 1 all nve

# ---------- 4. Run -------------
timestep 0.003079241055330133
run 6496
Neighbor list info ...
  update every 1 steps, delay 10 steps, check yes
  max neighbors/atom: 2000, page size: 100000
  master list distance cutoff = 6
  ghost atom cutoff = 6
  binsize = 3, bins = 6 6 6
  2 neighbor lists, perpetual/occasional/extra = 2 0 0
  (1) pair meam/c, perpetual
      attributes: full, newton on
      pair build: full/bin/atomonly
      stencil: full/bin/3d
      bin: standard
  (2) pair meam/c, perpetual, half/full from (1)
      attributes: half, newton on
      pair build: halffull/newton
      stencil: none
      bin: none
Per MPI rank memory allocation (min/avg/max) = 9.27 | 9.27 | 9.27 Mbytes
Step PotEng KinEng TotEng Temp Press Density c_msdli[4] 
       0   -951.04357    50.256344   -900.78722         1800   -114161.75    1.8918427            0 
     100   -919.66254     36.03809   -883.62445    1290.7537    -81425.24    1.8918427   0.11730529 
     200   -906.18798    47.405152   -858.78283    1697.8806   -67509.604    1.8918427  0.049242416 
     300   -895.72214    50.926177   -844.79596     1823.991   -61158.381    1.8918427   0.64252196 
     400   -902.38069    46.458905   -855.92179    1663.9895   -64330.215    1.8918427  0.044615418 
     500   -904.86396    48.400106   -856.46385    1733.5163   -64330.592    1.8918427   0.36445857 
     600   -900.92959    53.846148   -847.08345    1928.5737    -63439.15    1.8918427    1.9452968 
     700   -904.26955    51.132492   -853.13706    1831.3804    -65241.42    1.8918427   0.22981444 
     800   -908.14165    52.727118   -855.41453    1888.4941   -70368.075    1.8918427   0.29572205 
     900   -900.61935    53.938905   -846.68044     1931.896   -62948.746    1.8918427   0.71145073 
    1000   -899.95529    48.575427   -851.37987    1739.7956   -65013.537    1.8918427    0.7678606 
    1100   -898.77782    47.551256   -851.22656    1703.1135   -66754.558    1.8918427   0.15947086 
    1200   -899.79731    49.971127   -849.82618    1789.7846    -65918.65    1.8918427   0.75317553 
    1300   -900.65943    50.337259   -850.32218    1802.8981   -67563.488    1.8918427      6.36346 
    1400   -903.28056    46.832233   -856.44832    1677.3607   -71127.086    1.8918427     7.544431 
    1500   -900.11364     52.44155   -847.67209    1878.2661   -70644.341    1.8918427    8.0660731 
    1600   -899.16205     49.94475    -849.2173    1788.8398    -64422.13    1.8918427    12.658906 
    1700   -904.90853    46.531995   -858.37654    1666.6073   -68717.872    1.8918427    2.6564448 
    1800    -904.7583    47.693319   -857.06498    1708.2017   -71686.559    1.8918427    5.3426174 
    1900   -898.21977    48.712642   -849.50713    1744.7102   -64698.582    1.8918427    3.7652395 
    2000   -894.79133    47.436875   -847.35446    1699.0168    -62212.62    1.8918427    5.1793859 
    2100   -900.95838     44.60334   -856.35504    1597.5299   -67771.164    1.8918427    6.8282913 
    2200   -899.27759    48.250515   -851.02707    1728.1585   -63887.636    1.8918427    3.5018225 
    2300   -902.78426    51.178755   -851.60551    1833.0374   -66867.327    1.8918427    6.7034553 
    2400   -904.87167    51.056501   -853.81517    1828.6587   -65734.215    1.8918427    7.1734848 
    2500    -906.7826    48.332462   -858.45014    1731.0935   -66901.601    1.8918427      5.38962 
    2600   -902.65847    53.196369    -849.4621     1905.301   -66042.821    1.8918427    7.0404882 
    2700    -900.5913    46.448002   -854.14329     1663.599   -65208.205    1.8918427    7.0117349 
    2800   -904.41496    44.957348   -859.45762    1610.2092   -67429.819    1.8918427    5.9617465 
    2900   -904.46684    51.042177   -853.42466    1828.1457   -69326.237    1.8918427    7.0543524 
    3000   -903.23977    54.559665   -848.68011    1954.1293   -65540.256    1.8918427    7.4996366 
    3100   -905.62339    47.821055   -857.80234    1712.7768   -68469.972    1.8918427    5.8187394 
    3200   -902.18975    49.233181   -852.95657     1763.354   -65798.506    1.8918427    5.3315019 
    3300   -900.58292    50.192093   -850.39083    1797.6988   -62189.884    1.8918427    5.6424454 
    3400   -902.90199    48.539417   -854.36257    1738.5059   -66602.634    1.8918427    8.8567336 
    3500   -906.62802    49.143793   -857.48423    1760.1524   -68255.544    1.8918427    7.5722429 
    3600   -900.57392    51.193211   -849.38071    1833.5552   -62151.852    1.8918427    5.5136282 
    3700   -903.96716    51.338363    -852.6288     1838.754   -66238.885    1.8918427    6.5960963 
    3800   -905.22967    48.251264   -856.97841    1728.1853   -66433.646    1.8918427    4.4616749 
    3900   -902.36128    51.774701   -850.58658     1854.382   -63003.394    1.8918427    4.7021054 
    4000   -901.28119    48.635334   -852.64586    1741.9413   -65862.092    1.8918427    4.7232258 
    4100   -904.64993    46.285578   -858.36435    1657.7816   -69594.367    1.8918427    3.3950607 
    4200   -900.51681    50.073616    -850.4432    1793.4553   -66099.383    1.8918427    7.1479487 
    4300   -904.63123    51.512686   -853.11855    1844.9976   -66494.747    1.8918427    5.7680149 
    4400   -905.94564    47.124688   -858.82096    1687.8354   -67492.492    1.8918427    5.6460203 
    4500   -900.33953    47.989368   -852.35016    1718.8051   -63806.375    1.8918427    7.7757921 
    4600   -898.80564    47.699008   -851.10663    1708.4055   -62428.164    1.8918427    10.343622 
    4700   -902.18178    47.107492   -855.07429    1687.2195   -66486.971    1.8918427    5.4512576 
    4800   -901.35425    48.974261   -852.37999    1754.0804   -66487.545    1.8918427    5.9859132 
    4900   -895.71536    48.070608   -847.64476    1721.7148   -61755.463    1.8918427    2.7321103 
    5000   -902.24698    48.625338   -853.62165    1741.5833   -67877.606    1.8918427    5.5358228 
    5100   -901.77251    50.034981   -851.73753    1792.0716   -66243.299    1.8918427    6.2443274 
    5200   -901.54273    54.643042   -846.89969    1957.1156   -65302.629    1.8918427    6.6813822 
    5300   -905.61664    52.044242    -853.5724     1864.036   -70865.908    1.8918427    17.793975 
    5400   -906.34713    51.600282   -854.74685     1848.135   -70815.592    1.8918427    16.247437 
    5500   -900.37023    54.350567   -846.01966    1946.6402   -67045.582    1.8918427    49.933867 
    5600   -904.52898    53.350399   -851.17858    1910.8178    -69661.85    1.8918427    57.256276 
    5700   -902.60289     48.76337   -853.83952    1746.5271   -66848.203    1.8918427    56.085365 
    5800   -898.86718    55.692435   -843.17475    1994.7011    -63502.03    1.8918427    51.717387 
    5900   -900.44004    47.757087   -852.68295    1710.4857   -63564.262    1.8918427    52.627909 
    6000   -904.42373    53.229781   -851.19395    1906.4977   -68298.788    1.8918427    25.156566 
    6100   -894.37339    55.092102   -839.28129    1973.1993   -59768.666    1.8918427    35.325475 
    6200   -902.22985    54.606722   -847.62313    1955.8148    -68441.87    1.8918427    28.888688 
    6300   -897.73467     43.88369   -853.85098    1571.7546   -63212.451    1.8918427    18.141393 
    6400   -906.11095    51.991528   -854.11943     1862.148   -70293.146    1.8918427    18.262282 
    6496   -898.76357    52.557453   -846.20611    1882.4174   -65902.646    1.8918427    17.408024 
Loop time of 3.70447 on 1 procs for 6496 steps with 217 atoms

Performance: 466.528 ns/day, 0.051 hours/ns, 1753.559 timesteps/s
100.0% CPU use with 1 MPI tasks x no OpenMP threads

MPI task timing breakdown:
Section |  min time  |  avg time  |  max time  |%varavg| %total
---------------------------------------------------------------
Pair    | 3.4628     | 3.4628     | 3.4628     |   0.0 | 93.48
Neigh   | 0.17252    | 0.17252    | 0.17252    |   0.0 |  4.66
Comm    | 0.031988   | 0.031988   | 0.031988   |   0.0 |  0.86
Output  | 0.0019368  | 0.0019368  | 0.0019368  |   0.0 |  0.05
Modify  | 0.027498   | 0.027498   | 0.027498   |   0.0 |  0.74
Other   |            | 0.007723   |            |       |  0.21

Nlocal:    217 ave 217 max 217 min
Histogram: 1 0 0 0 0 0 0 0 0 0
Nghost:    865 ave 865 max 865 min
Histogram: 1 0 0 0 0 0 0 0 0 0
Neighs:    3621 ave 3621 max 3621 min
Histogram: 1 0 0 0 0 0 0 0 0 0
FullNghs:  7242 ave 7242 max 7242 min
Histogram: 1 0 0 0 0 0 0 0 0 0

Total # of neighbors = 7242
Ave neighs/atom = 33.3733
Neighbor list builds = 315
Dangerous builds = 15
Total wall time: 0:00:03
