LAMMPS (3 Mar 2020)

# ---------- 1. Initialize simulation ----------
units metal
atom_style atomic
dimension 3
boundary p p p
read_data /home/modeler/RemLabs/Project/arrhenius_4/T1500.0/n3_T1500.0_timestep3.000000e-03_eqsteps3200_time600_rseed3325/20201205-114921/lammps.data
  orthogonal box = (0 0 0) to (17.469 17.469 17.469)
  1 by 1 by 1 MPI processor grid
  reading atoms ...
  217 atoms
  read_data CPU = 0.000991239 secs

pair_style meam/c
pair_coeff * * library.meam Li Si LiSi.meam Li Si
Reading potential file library.meam with DATE: 2012-06-29
Reading potential file LiSi.meam with DATE: 2020-11-07

group Li type 1
1 atoms in group Li
group Si type 2
216 atoms in group Si

velocity all create 1500.0 3325 dist gaussian

# ---------- 2. Specify equilibration ensemble  ----------
fix 1 all npt temp 1500.0 1500.0 0.15 tchain 2 iso 1.0 1.0 1.0 pchain 2
# fix 1 all nvt temp 1500.0 1500.0 0.15

# ---------- 3. Run equilibration -------------
timestep 0.003
run 3200
Neighbor list info ...
  update every 1 steps, delay 10 steps, check yes
  max neighbors/atom: 2000, page size: 100000
  master list distance cutoff = 6
  ghost atom cutoff = 6
  binsize = 3, bins = 6 6 6
  2 neighbor lists, perpetual/occasional/extra = 2 0 0
  (1) pair meam/c, perpetual
      attributes: full, newton on
      pair build: full/bin/atomonly
      stencil: full/bin/3d
      bin: standard
  (2) pair meam/c, perpetual, half/full from (1)
      attributes: half, newton on
      pair build: halffull/newton
      stencil: none
      bin: none
Per MPI rank memory allocation (min/avg/max) = 8.895 | 8.895 | 8.895 Mbytes
Step Temp E_pair E_mol TotEng Press Volume 
       0         1500   -951.04357            0   -909.16328   -115839.99    5330.9442 
    3200    1432.3784   -955.06065            0   -915.06837    7366.2388    4553.7283 
Loop time of 2.30834 on 1 procs for 3200 steps with 217 atoms

Performance: 359.323 ns/day, 0.067 hours/ns, 1386.275 timesteps/s
100.0% CPU use with 1 MPI tasks x no OpenMP threads

MPI task timing breakdown:
Section |  min time  |  avg time  |  max time  |%varavg| %total
---------------------------------------------------------------
Pair    | 2.2403     | 2.2403     | 2.2403     |   0.0 | 97.05
Neigh   | 0.02009    | 0.02009    | 0.02009    |   0.0 |  0.87
Comm    | 0.013832   | 0.013832   | 0.013832   |   0.0 |  0.60
Output  | 2.3766e-05 | 2.3766e-05 | 2.3766e-05 |   0.0 |  0.00
Modify  | 0.029194   | 0.029194   | 0.029194   |   0.0 |  1.26
Other   |            | 0.004927   |            |       |  0.21

Nlocal:    217 ave 217 max 217 min
Histogram: 1 0 0 0 0 0 0 0 0 0
Nghost:    957 ave 957 max 957 min
Histogram: 1 0 0 0 0 0 0 0 0 0
Neighs:    4143 ave 4143 max 4143 min
Histogram: 1 0 0 0 0 0 0 0 0 0
FullNghs:  8286 ave 8286 max 8286 min
Histogram: 1 0 0 0 0 0 0 0 0 0

Total # of neighbors = 8286
Ave neighs/atom = 38.1843
Neighbor list builds = 34
Dangerous builds = 0

# ---------- 4. Describe computed properties----------
compute msdli Li msd
compute msdsi Si msd
thermo_style custom step pe ke etotal temp press density c_msdli[4] c_msdsi[4]
thermo 100

# ---------- 3. Run production -------------
timestep 0.003
run 200000
Per MPI rank memory allocation (min/avg/max) = 9.664 | 9.664 | 9.664 Mbytes
Step PotEng KinEng TotEng Temp Press Density c_msdli[4] c_msdsi[4] 
    3200   -955.06065    39.992279   -915.06837    1432.3784    7366.2388    2.2147364            0 9.0422411e-32 
    3300   -954.70395    46.517375   -908.18658    1666.0837    471.71303     2.196433  0.073277837  0.084510952 
    3400   -949.20841    41.444115   -907.76429    1484.3779   -3267.0278    2.1736487   0.16729507   0.09272619 
    3500   -954.20237    41.544763   -912.65761    1487.9827   -7157.3287    2.1771249  0.064478319  0.090265927 
    3600   -947.97101    37.475818   -910.49519    1342.2479     5691.138     2.199682  0.063467201   0.11405446 
    3700   -948.62143    43.303864   -905.31757    1550.9874    5171.2559    2.1982258    0.2362621  0.092637665 
    3800   -948.59294    37.938072   -910.65487    1358.8042   -2176.7304    2.1828662  0.025491632   0.10908653 
    3900   -951.88593    41.011948   -910.87398    1468.8992   -6461.5564    2.1750792   0.25676468   0.10454921 
    4000   -950.49624    47.572667   -902.92357    1703.8804   -2000.5465    2.1810001  0.064260407   0.10090699 
    4100   -951.82007    42.383662   -909.43641    1518.0291    7689.3519    2.2103931   0.12325653  0.081673452 
    4200    -952.4575     41.42585   -911.03165    1483.7237    1232.2265    2.1956815  0.017891657  0.090285868 
    4300   -948.52521    45.112475   -903.41273    1615.7652   -8431.3451    2.1614658  0.094700118  0.089925758 
    4400   -952.00977     42.09422   -909.91555    1507.6623   -3122.8228    2.1826415   0.02568586  0.085121956 
    4500   -951.51427    40.904615   -910.60966     1465.055    6416.3757    2.2057224  0.053674673  0.096905821 
    4600   -949.80657    44.392473    -905.4141    1589.9774    5224.8805    2.1976989  0.040537359  0.096543734 
    4700   -950.34103    42.262726    -908.0783    1513.6976    -6557.876    2.1726637   0.27107156   0.11770276 
    4800   -952.48511    39.368766   -913.11634    1410.0464   -5730.5903    2.1796043   0.14924844   0.12806875 
    4900   -950.14777    43.051947   -907.09582    1541.9646    5972.9436    2.2008235   0.39366125   0.12098725 
    5000   -952.81766    44.967303   -907.85036    1610.5657    6268.8992    2.2102313  0.078552466   0.10260213 
    5100   -956.22526    41.033263     -915.192    1469.6627   -3555.5913     2.194104  0.041561898  0.092584215 
    5200   -953.93268    45.199956   -908.73272    1618.8985    -10287.14    2.1664213  0.052196048  0.088445139 
    5300   -947.64766    40.343737   -907.30392    1444.9664    2831.8788    2.1898237   0.12432234   0.10001859 
    5400   -953.66042    39.602316    -914.0581    1418.4113    9193.9168    2.2216214  0.034008514   0.10293967 
    5500   -947.15443    38.647099   -908.50733    1384.1989    4198.0192    2.1955049   0.10607079   0.10105691 
    5600   -950.00156    42.787449   -907.21411    1532.4913    -7259.091    2.1665738   0.29048384   0.10200272 
    5700    -951.9382    40.186639   -911.75156    1439.3397   -4083.4838    2.1797222   0.22428985   0.10878488 
    5800   -953.17254    41.892949   -911.27959    1500.4535    8161.0905    2.2116662  0.023340818   0.11426524 
    5900   -945.73801    41.552683   -904.18532    1488.2664    6341.1319    2.1915742   0.11039832   0.14273744 
    6000   -950.37895    40.102892   -910.27605    1436.3401   -6539.3435    2.1703881   0.49434753   0.12783277 
    6100   -949.59883    39.126212   -910.47262     1401.359   -4163.6741    2.1733522   0.19289089   0.12480816 
    6200   -949.30536    47.327254   -901.97811    1695.0906    2587.1639    2.1891173  0.027994486   0.11540453 
    6300   -950.72635    41.869082   -908.85726    1499.5987    10885.455    2.2105552   0.19528069  0.098280673 
    6400   -950.63965    39.530872   -911.10878    1415.8525   -2916.6273    2.1828051   0.10905668   0.10500962 
    6500   -945.13046    40.382734   -904.74773    1446.3631   -7703.7582    2.1564617   0.57877815   0.11230831 
    6600    -952.1366    43.192471   -908.94413    1546.9977    -1208.504     2.188211    0.0784977   0.10038337 
    6700   -956.68433    45.597539   -911.08679    1633.1385    6438.3138    2.2136789   0.25064653   0.10375568 
    6800   -953.89093    47.077939   -906.81299     1686.161    896.97355    2.1928076  0.098927255   0.10760497 
    6900   -949.00679    41.188984    -907.8178      1475.24   -6390.0733    2.1663993  0.065477236   0.12598599 
    7000   -950.75743    36.268809   -914.48863    1299.0172    -786.8758    2.1900966  0.069892159   0.13282473 
    7100   -946.88587    39.368555   -907.51732    1410.0389    9017.8874     2.205859  0.028360695   0.13821209 
    7200   -950.70347    42.531795   -908.17168    1523.3346    3028.4084    2.2015489  0.028345277    0.1389704 
    7300   -955.29429     39.77656   -915.51773    1424.6521   -3957.7023    2.1915925   0.15561802   0.12192383 
    7400   -953.27454    44.927112   -908.34743    1609.1262   -7039.6746    2.1746939  0.042223967   0.11411926 
    7500   -950.30744     42.92267   -907.38477    1537.3344    2731.1471    2.1990346  0.030373084   0.11287225 
    7600       -952.4    39.196599   -913.20341      1403.88    7749.5234    2.2162406    0.2065114  0.097891123 
    7700   -951.69699    44.673824   -907.02316    1600.0544    -4077.054    2.1810603   0.11186526   0.11038932 
    7800   -948.96034    42.131477   -906.82886    1508.9967   -10677.406    2.1619988     0.128275   0.12058293 
    7900   -952.38102    40.721527   -911.65949    1458.4974    712.78892    2.1949402  0.043958763   0.10807367 
    8000   -953.80278    45.444967   -908.35782    1627.6739    19375.121     2.241805  0.048695864    0.1185165 
    8100    -946.0876    42.900383   -903.18722    1536.5362    2806.8209     2.187082   0.10673382   0.13235546 
    8200   -949.26138     38.56186   -910.69952     1381.146   -15586.907    2.1494118   0.27681069   0.13643714 
    8300   -952.88774    42.793444    -910.0943     1532.706   -6815.1503    2.1764373   0.10898758   0.13257725 
    8400   -952.05949    48.118984   -903.94051    1723.4475     7329.075    2.2077553   0.22675427   0.12171511 
    8500   -953.97908    43.360865   -910.61822    1553.0289    4027.8224    2.2047068  0.048610603   0.10155478 
    8600   -953.95646    42.010533   -911.94593    1504.6649   -7755.8793    2.1732964   0.18769797   0.10372825 
    8700   -949.33758    42.211503   -907.12608     1511.863   -6034.8818    2.1685618  0.088855533   0.10658595 
    8800   -952.32134     42.87942   -909.44192    1535.7853    2691.4488    2.1985419  0.013675084   0.10627805 
    8900   -954.50759    40.563524   -913.94406    1452.8383     7980.503    2.2188864   0.15166072   0.10530088 
    9000   -949.15949    41.967139   -907.19235    1503.1107   -1924.8952    2.1809977  0.079545011   0.10772341 
    9100   -950.74048    41.901665   -908.83882    1500.7657   -7692.9356    2.1666309   0.11380007   0.12045562 
    9200   -955.18419    40.013154   -915.17104    1433.1261    -492.1084    2.1985918   0.16152223   0.11033797 
    9300   -951.40146    44.236254    -907.1652    1584.3822    7809.4391    2.2087366  0.058505655   0.13068259 
    9400   -948.76468    40.981535   -907.78314      1467.81    4443.1366    2.1952755  0.045133697    0.1205021 
    9500   -951.25119    38.077869   -913.17332    1363.8112   -5968.5628    2.1756046  0.092410019   0.11260516 
    9600   -952.14807    44.691661   -907.45641    1600.6932   -6607.4556    2.1709792  0.085408812   0.12810353 
    9700   -947.36824    41.665838    -905.7024    1492.3192    7925.2204    2.2005334   0.24767666   0.11276389 
    9800   -953.12866    42.291728   -910.83694    1514.7363    5149.6975    2.2044795  0.020701534  0.099792105 
    9900    -952.1557    42.783187   -909.37251    1532.3386   -4125.2047    2.1809256  0.042662364   0.10131068 
   10000   -946.85457    43.294803   -903.55976    1550.6628   -6139.2855    2.1619849  0.033251535   0.10323706 
   10100   -952.06492    41.047994   -911.01693    1470.1903   -300.98746     2.191965   0.18081783    0.1054431 
   10200   -950.92321    41.587559   -909.33565    1489.5155    3654.6981    2.1968317   0.14909211   0.12289277 
   10300   -948.54863    45.560503   -902.98813     1631.812   -1696.9701    2.1766464   0.29267254    0.1118155 
   10400   -949.33394    37.657599   -911.67634    1348.7586    2051.1501    2.1918368   0.26216268    0.1197421 
   10500   -949.39016    39.397691   -909.99247    1411.0824    448.23258     2.186113  0.035193792   0.12054519 
   10600    -947.1631    42.370092   -904.79301     1517.543    225.14753    2.1795796  0.010804402   0.10838095 
   10700    -953.5908    41.079387   -912.51141    1471.3147    1695.4943    2.1959458  0.047017434   0.10434294 
   10800   -955.11533    43.603191   -911.51214    1561.7082   -4090.2796    2.1862816  0.018430842  0.098277213 
   10900   -950.07107    43.371084   -906.69999     1553.395   -2666.9572    2.1801246  0.061189082   0.10482493 
   11000   -953.65463    42.448818   -911.20581    1520.3627    229.28282    2.1925766  0.075385571   0.10260566 
   11100   -951.91783     38.31945   -913.59838    1372.4637    3271.8324    2.1960551  0.068006952   0.10020546 
   11200   -948.48413    41.366831    -907.1173    1481.6099     1959.368    2.1841176  0.034991273   0.10639227 
   11300   -949.90193     39.84788   -910.05405    1427.2066   -896.12288    2.1823413   0.13533544    0.1046015 
   11400   -953.26458    38.040975   -915.22361    1362.4898   -19.456755    2.1915985  0.073032478   0.10725992 
   11500   -950.09049    43.278696   -906.81179    1550.0859    162.92042    2.1834166   0.16109736   0.10680085 
   11600    -954.2652    45.412246   -908.85296     1626.502    1634.4389    2.1947969  0.034222884   0.10472765 
   11700   -954.29281    40.653097   -913.63972    1456.0465      1005.31    2.1941221  0.013758373  0.098775979 
   11800   -947.87842    42.651461   -905.22696    1527.6206   -2950.9849    2.1691786   0.10840285   0.10016427 
   11900   -951.08758    43.463527   -907.62405    1556.7059    1121.5626     2.189621   0.18773644   0.10282518 
   12000   -952.91282     41.64511   -911.26771    1491.5768    4131.5764    2.2031737   0.12471658    0.1010182 
   12100   -950.62773     44.80519   -905.82254    1604.7594    -2195.173    2.1805528  0.075936656   0.09866907 
   12200   -947.49524     42.26341   -905.23183    1513.7221   -5513.1043    2.1641956  0.070957122   0.10241874 
   12300   -952.36846    40.896593   -911.47187    1464.7677   -517.94956    2.1882994  0.012727874  0.092036236 
   12400   -951.09181    43.330753   -907.76106    1551.9504    8731.8199    2.2073568  0.094478351  0.090399628 
   12500   -949.34813    46.271485   -903.07664    1657.2768    345.73579    2.1839024   0.02307753   0.10901905 
   12600   -954.50883    42.675704   -911.83313     1528.489   -8411.1999    2.1725577   0.16501919   0.10651967 
   12700   -950.73678    40.986279    -909.7505    1467.9799   -5044.9476     2.173291  0.061353668   0.10366676 
   12800   -950.70441    45.798699   -904.90571    1640.3433    6064.1979    2.1971229  0.020470625   0.10835652 
   12900    -951.5765    38.536359   -913.04014    1380.2326    10419.761    2.2141492  0.031466532  0.093728308 
   13000   -951.22783    39.909094   -911.31874     1429.399   -6876.5294    2.1675952   0.17875583  0.096675778 
   13100   -950.07306    42.525429   -907.54763    1523.1066   -9399.5955    2.1577663   0.11181204  0.095938613 
   13200   -954.29785    43.347185   -910.95067     1552.539    5386.0036    2.2044949  0.019750131  0.095455491 
   13300   -956.14139    42.340977   -913.80042    1516.5002    12264.082    2.2262677  0.034164793  0.091917916 
   13400   -950.73639    44.246107   -906.49029    1584.7351   -4084.5882    2.1729821   0.24338833  0.094389532 
   13500   -950.51065    40.894844   -909.61581     1464.705   -8770.5909    2.1641736  0.061094316   0.10962475 
   13600    -951.2627    37.999108   -913.26359    1360.9902    2582.7901    2.1961014   0.19507468  0.089131184 
   13700    -950.2137    45.758311   -904.45539    1638.8967    1123.3097    2.1867904 0.0081579565   0.10418003 
   13800   -952.72798    44.672309   -908.05567    1600.0001     395.2851    2.1890294  0.059034251   0.10313642 
   13900   -953.09636    40.939204   -912.15716    1466.2938   -2058.8162    2.1841029 0.0075996282  0.097482727 
   14000   -948.32615    43.780806   -904.54535    1568.0697   -1341.4972    2.1733852   0.21416259   0.11609688 
   14100   -950.45143    43.752124   -906.69931    1567.0424    3252.6208     2.189849   0.11095234  0.099625112 
   14200   -954.35477    42.953993   -911.40078    1538.4563     347.1491     2.194616   0.19983195  0.096776378 
   14300    -950.3201    43.938366   -906.38173    1573.7129   -1569.7091    2.1787703   0.01457273   0.10382961 
   14400   -948.90948    43.742235   -905.16725    1566.6882   -4119.7391    2.1746703  0.042930021   0.10886924 
   14500   -953.24588    41.094327   -912.15156    1471.8498    953.87457     2.197093  0.018290061  0.095439692 
   14600    -950.3205    42.947266   -907.37323    1538.2153    6584.5241    2.2021382   0.01870712  0.098588894 
   14700   -949.79923    43.629396   -906.16983    1562.6467   -1016.0059    2.1797292  0.010145231   0.10355421 
   14800   -954.63862    40.246945   -914.39168    1441.4996   -7354.5868    2.1773583  0.084081187   0.10190359 
   14900    -950.9034    41.473116   -909.43028    1485.4166   -1441.4126    2.1869066   0.36105534   0.11567885 
   15000   -948.47791    42.686655   -905.79125    1528.8812    11084.328    2.2073903   0.01392051   0.11935708 
   15100   -953.24129    39.297963   -913.94332    1407.5105    3536.8456    2.2033123   0.08941808    0.1153032 
   15200   -949.60396    39.594678   -910.00928    1418.1378   -9822.9583    2.1602484 0.0044487137   0.11085823 
   15300   -948.64492    41.630012    -907.0149    1491.0361   -2575.9809    2.1740507  0.027481418   0.11847001 
   15400   -952.81107    41.341896   -911.46917    1480.7168    10329.701    2.2194478   0.03808871   0.11380143 
   15500   -953.44314    40.282796   -913.16035    1442.7837    8532.4301    2.2141656   0.14854626  0.093021347 
   15600    -946.2196    40.424946   -905.79465     1447.875   -6843.2306    2.1629318  0.094210182   0.12764333 
   15700   -949.95376    39.376685   -910.57708    1410.3301    -6929.377    2.1700941   0.16995788   0.10479016 
   15800   -953.93892    42.539648   -911.39927    1523.6159    3844.4058    2.2065846  0.085968036    0.1078649 
   15900   -946.67732    43.582586   -903.09473    1560.9702    4845.3069    2.1932926    0.2350981   0.12267851 
   16000   -948.90498    39.068771   -909.83621    1399.3017    878.67618    2.1910834   0.14711825   0.11862249 
   16100   -951.05163     39.90441   -911.14722    1429.2312   -3669.1644    2.1844919  0.017279362    0.1368577 
   16200   -950.85903    47.779188   -903.07984    1711.2772   -3168.9108    2.1786207   0.11736133   0.12591012 
   16300     -953.617    43.595154   -910.02185    1561.4203    2634.2692    2.2010088    0.1274052   0.11147824 
   16400   -950.61765    39.759448    -910.8582    1424.0392    726.07982    2.1956174  0.068820728   0.11538886 
   16500   -950.01162    45.140077   -904.87155    1616.7539   -3524.2712       2.1767   0.11945839   0.12038832 
   16600   -949.69482    40.043105   -909.65172    1434.1988    -1018.061    2.1873109  0.066160125   0.10631706 
   16700   -951.05411    39.380328   -911.67378    1410.4606    2893.7666    2.1986261  0.032142543   0.10757925 
   16800    -950.4799    43.895059   -906.58484    1572.1618    1708.2891    2.1921047   0.13394469   0.11018196 
   16900   -955.06564    46.088087   -908.97755    1650.7081   -5136.0847    2.1837706   0.16810224   0.10132205 
   17000   -953.90006     39.89075   -914.00931     1428.742   -4413.5882    2.1846274  0.039183464   0.11216306 
   17100   -949.79141    42.122043   -907.66936    1508.6588    3472.9931    2.1937477  0.048973718   0.12492673 
   17200   -949.72314    41.842486   -907.88065    1498.6461    8392.0845    2.2048335  0.083626224   0.11515112 
   17300   -954.89342    39.525459   -915.36796    1415.6586   -2421.7532     2.193683   0.17279513    0.1058599 
   17400   -951.29119    43.148144   -908.14305      1545.41   -11832.641    2.1601345   0.11333584   0.11837375 
   17500   -948.72822    41.078233   -907.64999    1471.2733   -580.60576    2.1835607  0.016673707   0.10575806 
   17600   -955.14045    41.905114   -913.23533    1500.8892    11880.763    2.2240756  0.042805695   0.10115486 
   17700    -952.5825    44.938684   -907.64382    1609.5407    3506.2494    2.1949695   0.27909538  0.097854475 
   17800    -948.4755    41.717515   -906.75798    1494.1701   -8357.3992    2.1623262   0.37637313  0.095612642 
   17900   -954.07869    42.383426   -911.69527    1518.0206   -6680.7829    2.1779753  0.066408198   0.10612029 
   18000   -949.91534    40.477965   -909.43737    1449.7739    7962.0534    2.2069091   0.10197764   0.10291596 
   18100   -949.48153    45.842964   -903.63857    1641.9287    3633.0662    2.1937973  0.015848713   0.10739295 
   18200   -953.68597    42.841649   -910.84432    1534.4325   -6880.1805    2.1796389   0.17075985    0.1133788 
   18300   -952.17536    42.560326   -909.61504    1524.3565   -6325.0632    2.1773391  0.064420344    0.1185781 
   18400   -947.76516     45.73957   -902.02559    1638.2255    3172.4927    2.1868977  0.066238893   0.12120904 
   18500   -954.44786    43.938695   -910.50917    1573.7247    5084.2093    2.2081089  0.022372631   0.11415549 
   18600     -953.217    42.870333   -910.34667    1535.4599   -1834.4532    2.1880328  0.066886757   0.11023677 
   18700   -946.74369    42.143505   -904.60019    1509.4275   -4752.1962    2.1703085   0.20475067   0.10924468 
   18800   -954.31712    42.632658   -911.68447    1526.9472   -3216.5865    2.1921873   0.20567242   0.10609843 
   18900   -954.81559    43.260069   -911.55553    1549.4188    50.758376    2.1987464   0.11586236   0.10494969 
   19000   -946.98267     40.45442   -906.52825    1448.9306    2414.2913    2.1891778   0.16727943   0.10438852 
   19100   -949.27327    39.284888   -909.98838    1407.0422   -2316.9184    2.1864083   0.32413816   0.11524512 
   19200    -952.2499    38.549152   -913.70075    1380.6908    601.17087    2.1962041  0.047285596   0.11067686 
   19300   -947.39717     40.55234   -906.84483    1452.4378    2914.4176    2.1892684   0.21901136   0.11959897 
   19400   -950.98484     41.63978   -909.34506    1491.3859    1685.0407    2.1926367  0.076558589    0.1140494 
   19500   -956.54117    41.670117   -914.87105    1492.4725   -1120.5471    2.1987881    0.1264563   0.10554973 
   19600   -950.73833      44.1822   -906.55613    1582.4462   -4047.6768    2.1803464  0.045582208   0.10549712 
   19700   -951.13806    42.070694   -909.06736    1506.8197   -92.286891    2.1901864    0.2056543   0.11406476 
   19800   -954.94663    41.286992   -913.65964    1478.7503    4033.3573    2.2069051   0.12731011   0.10136886 
   19900   -950.88011    46.044172   -904.83594    1649.1353   -2344.1536    2.1797778    0.3813857  0.092718706 
   20000    -949.8754    41.934742   -907.94066    1501.9504   -1316.8185    2.1823248  0.037927903  0.097343891 
   20100   -953.39101    41.211794   -912.17921     1476.057   -1744.0255    2.1938015   0.14990627  0.096180985 
   20200   -949.08896    44.149139   -904.93982    1581.2621    5982.9155    2.1979001   0.08488299   0.10164155 
   20300   -947.68848    41.347291   -906.34119      1480.91    5959.0287    2.1984334   0.38962853   0.11489826 
   20400    -953.5192    41.603913   -911.91529    1490.1013   -8350.0057    2.1744067   0.17018468    0.1096082 
   20500    -948.8528    42.249588   -906.60321     1513.227   -7438.9237    2.1679082   0.10097193   0.11389962 
   20600   -946.64855    42.835638   -903.81291    1534.2172    10141.462    2.2019782   0.20004783   0.11627041 
   20700   -953.82542    42.580287   -911.24513    1525.0715    10496.902    2.2199497   0.11756191   0.10869378 
   20800   -950.67072    42.335431   -908.33528    1516.3016   -4027.9142    2.1770736   0.10969969   0.11338935 
   20900   -949.20041    43.504962   -905.69545      1558.19   -10506.433    2.1559009   0.40765053     0.106773 
   21000   -952.09044    37.632451   -914.45799    1347.8579    4210.7511    2.2046691   0.17997365  0.082394152 
   21100   -952.20675    43.612733   -908.59401    1562.0499    7433.0733    2.2107397   0.11672328  0.088811613 
   21200   -950.61928    43.427767   -907.19152    1555.4251   -898.96537    2.1843002  0.040875132   0.09944033 
   21300   -955.79161    41.116306    -914.6753     1472.637   -7716.7149    2.1784228  0.022951656  0.098082749 
   21400   -952.21894    41.766956   -910.45199    1495.9409   -1059.2344    2.1846849   0.20098706   0.10423798 
   21500   -949.64071    43.124324   -906.51638    1544.5569    4278.7204    2.1972085   0.03591633   0.10715005 
   21600   -952.94422    40.337688   -912.60653    1444.7497    2395.1241    2.2007871   0.13084035    0.1054537 
   21700   -952.64289    41.743693    -910.8992    1495.1077   -3288.9451    2.1857795   0.29038928   0.11356909 
   21800   -951.01606    45.067484   -905.94858    1614.1538   -3735.2542    2.1774969  0.035792072   0.10446389 
   21900   -954.47195    43.440473   -911.03148    1555.8802    -472.4121    2.1921364   0.23451033  0.088755004 
   22000    -954.2035    43.396429   -910.80707    1554.3027    2582.2344    2.1995234  0.033845107  0.095710288 
   22100   -951.51201    47.724633   -903.78738    1709.3233   -2905.4152    2.1783812   0.11272316  0.093348777 
   22200   -953.80167    43.206243   -910.59543    1547.4909   -3983.3539    2.1852996  0.015717658  0.094542464 
   22300   -952.15666    42.299426   -909.85723     1515.012    808.77264    2.1919063  0.014052069  0.091709386 
   22400    -949.7607    47.412581   -902.34812    1698.1467    22.949771    2.1814052  0.057530623  0.095041144 
   22500    -951.7119    41.245887   -910.46601    1477.2781    2063.8217    2.1944234   0.01103725   0.10708008 
   22600   -948.34534    38.093053   -910.25228     1364.355   -95.647256    2.1868067   0.30149913   0.12111448 
   22700   -948.55459    44.741632   -903.81295     1602.483   -3217.2723     2.177061   0.23618881    0.1195083 
   22800   -952.49225    41.279044   -911.21321    1478.4657     3158.202    2.1993283  0.068047153   0.10072168 
   22900   -952.17776     41.03288   -911.14488    1469.6489    30.465228    2.1926494  0.099899929   0.09772126 
   23000   -949.83983    43.386746   -906.45308    1553.9559   -4459.0974     2.175765  0.099671177   0.10210075 
   23100   -949.47292    40.307546   -909.16538    1443.6701    261.28561    2.1831766  0.042601221   0.10417788 
   23200   -949.69344    36.839836   -912.85361    1319.4693     12281.36    2.2180633  0.052773852   0.10607201 
   23300   -950.33406    43.743137   -906.59092    1566.7205    4845.4126     2.199369   0.08889265  0.092699084 
   23400    -948.0843    38.878293   -909.20601    1392.4795   -7462.7729    2.1645323   0.16487629  0.094407127 
   23500   -953.65336    38.396293   -915.25707     1375.216   -8409.3283    2.1772213  0.020430127  0.094034527 
   23600   -950.45844    43.167643    -907.2908    1546.1084    4896.3176    2.1993098  0.010543455    0.1034256 
   23700   -948.88446    41.469961    -907.4145    1485.3036     10922.71    2.2115826  0.066785107   0.12424849 
   23800   -953.06215    39.575102   -913.48705    1417.4366   -1850.8166    2.1875819   0.10817268   0.09540537 
   23900   -948.44564    42.426276   -906.01936    1519.5553   -10534.377    2.1565327   0.22980504    0.1098461 
   24000    -951.8722    45.051724   -906.82048    1613.5894    1223.6244    2.1874137   0.15453514   0.10490995 
   24100   -951.77242    41.044953   -910.72747    1470.0813    10047.424    2.2134803   0.14831168  0.091080088 
   24200   -950.38387    43.282941   -907.10093     1550.238    459.09313    2.1877809   0.12371584  0.094398213 
   24300   -948.89959    44.185687    -904.7139    1582.5711    -11392.37    2.1561469    0.2346823    0.1031365 
   24400   -954.56612    42.678892   -911.88723    1528.6032   -6038.5976    2.1825388   0.10426423  0.090389166 
   24500   -951.12071    43.461835   -907.65887    1556.6453     8427.832    2.2073577   0.18347501  0.092676924 
   24600     -951.278    47.926841   -903.35116    1716.5656    2271.2379    2.1917603     0.142889    0.1019485 
   24700   -953.74832    41.608135   -912.14019    1490.2525   -4874.9896    2.1831379   0.12392425  0.098771538 
   24800    -952.3626    42.501722   -909.86088    1522.2576   -7349.5328    2.1749669   0.17641544   0.11083586 
   24900   -950.60488    45.495726   -905.10916    1629.4919   -1417.3423     2.184391  0.064182337   0.10558527 
   25000   -955.35679    41.959126   -913.39766    1502.8237     4699.977    2.2079758  0.011251854   0.09703667 
   25100   -951.16704    39.917868   -911.24917    1429.7133   -1368.2703     2.186817  0.017407077   0.10633668 
   25200   -948.96985    42.265713   -906.70413    1513.8046   -3377.9404    2.1765621   0.14533466  0.096125038 
   25300   -951.85316     39.51659   -912.33657     1415.341    -737.3704    2.1931412  0.037526482  0.097622088 
   25400   -950.84223      38.3192   -912.52303    1372.4548    2721.1764    2.2003733   0.21826437  0.095593123 
   25500   -948.56681    42.137562   -906.42925    1509.2146    1566.9883    2.1890699   0.11311068   0.10107419 
   25600   -953.47079    42.267439   -911.20335    1513.8664   -4376.6139     2.185467   0.11781685  0.099063522 
   25700   -952.18699    38.552967   -913.63402    1380.8275   -759.44951    2.1924889   0.11510178  0.097512864 
   25800   -949.78092    44.120013   -905.66091    1580.2189    -1681.435    2.1819255   0.50021799   0.10862678 
   25900   -952.63517    42.832809   -909.80236    1534.1159    667.26767    2.1924312  0.054629344  0.094108051 
   26000   -952.84111     40.00659   -912.83452     1432.891    50.566601    2.1959653  0.029519724   0.11033148 
   26100   -944.07509    40.148286    -903.9268     1437.966   -2120.4834    2.1742242   0.19467338   0.11963099 
   26200   -951.84147    42.739742   -909.10173    1530.7826    116.34047    2.1918198  0.048147095   0.10451245 
   26300   -951.48022    40.180024   -911.30019    1439.1027    4642.1871    2.2031014  0.092463701  0.097107818 
   26400   -943.78803    40.583822   -903.20421    1453.5653    2408.6473    2.1793419  0.067009828   0.10417703 
   26500   -952.82919    44.078531   -908.75066    1578.7331   -4053.9893    2.1816365  0.064820524   0.10137215 
   26600   -949.75759    38.414734   -911.34286    1375.8765    -1985.918    2.1853232  0.099069241   0.10226198 
   26700   -947.69675    42.912371   -904.78438    1536.9655    6597.9865     2.196451   0.26662645   0.10405937 
   26800   -950.93532    42.660288   -908.27503    1527.9368    5613.4064    2.2037517   0.11765336   0.10216487 
   26900   -951.76066    39.543046   -912.21762    1416.2885   -4025.1648    2.1819877   0.14574479   0.10374183 
   27000   -948.91959    41.438388   -907.48121    1484.1728   -6855.4292    2.1700553   0.12334622    0.1121342 
   27100   -946.64764    41.282215   -905.36542    1478.5792     4005.105    2.1923998   0.16422165   0.12140564 
   27200   -953.59729     39.95729      -913.64    1431.1252    10321.909    2.2231351  0.070057034   0.11071243 
   27300   -950.44405    41.775273   -908.66878    1496.2388   -2828.8685     2.183081   0.14155487   0.10720475 
   27400   -950.44021     42.91882   -907.52139    1537.1965   -9753.2481    2.1594124   0.30130736   0.10450545 
   27500   -954.13709    38.861794   -915.27529    1391.8885   -1673.9841    2.1933232  0.060551824  0.090684056 
   27600   -951.76572    41.911841   -909.85388    1501.1302    7116.0474    2.2112046  0.094117594   0.10455468 
   27700   -952.06216    45.205078   -906.85708     1619.082    2584.1612    2.1992886  0.094160309   0.10164784 
   27800   -952.25402    39.439546   -912.81447    1412.5815    -8644.411    2.1730465  0.026762636  0.098466721 
   27900   -950.49195    39.431176   -911.06077    1412.2817   -4127.7287    2.1767966  0.011897502   0.10413515 
   28000   -949.45699    43.923409   -905.53359    1573.1772    4271.7947    2.1952013   0.23197996   0.10038934 
   28100   -951.38306    41.127249   -910.25581    1473.0289    3974.5539    2.2007099 0.0045382392   0.11131796 
   28200   -951.38261    39.024414    -912.3582     1397.713   -2899.8434    2.1849581    0.1496436   0.11096108 
   28300   -947.08353    43.659338   -903.42419    1563.7192   -6024.8792    2.1607155   0.29453476   0.12093898 
   28400   -951.07428    41.711027   -909.36325    1493.9377    3431.5281    2.1953837    0.2917859   0.10783534 
   28500   -952.81401    41.882546   -910.93147    1500.0809    3336.3138    2.2020111  0.085708663   0.10329019 
   28600   -948.56423    45.325305   -903.23893    1623.3881    -1846.037    2.1752986  0.057054064   0.10028105 
   28700   -955.75933    46.479691   -909.27964     1664.734   -5841.8036     2.180741  0.071930862  0.083090225 
   28800   -946.41208    35.501043   -910.91104    1271.5186    2747.6402    2.1896244   0.12945686   0.10155111 
   28900   -947.65479    42.500801   -905.15399    1522.2246    3463.9822    2.1877849  0.056682873  0.093355709 
   29000   -951.26883    42.249163   -909.01966    1513.2118   -1445.9394    2.1841538   0.25235094  0.099604887 
   29100   -952.27833     39.77349   -912.50484    1424.5422   -1722.1456     2.186522  0.061280348   0.10360827 
   29200   -949.68464    42.723986   -906.96066    1530.2182    905.38221    2.1872392   0.13987417   0.10410021 
   29300    -948.7063    39.914936   -908.79137    1429.6083    3302.7799    2.1898233   0.59624555   0.10872967 
   29400   -954.61376    40.189772   -914.42399    1439.4519   -1076.0226    2.1963948  0.098950401   0.10890741 
   29500   -948.34273    40.769303   -907.57343    1460.2086   -795.03501    2.1794712   0.22031064   0.11518038 
   29600   -950.14243    41.640235   -908.50219    1491.4022    441.22511    2.1858607   0.10913588    0.1089031 
   29700   -956.01073    41.014681   -914.99605    1468.9971     2998.837    2.2042631  0.016061639  0.096456786 
   29800   -946.84631    40.153238   -906.69307    1438.1434   -189.96748    2.1778542  0.048167839  0.097639057 
   29900   -948.19174     39.66654    -908.5252    1420.7116   -735.58611    2.1768531   0.17161596   0.10330563 
   30000   -952.69515    41.649414   -911.04573     1491.731    1224.5992    2.1927122   0.32236581    0.1165562 
   30100   -950.33492    48.385023    -901.9499    1732.9761   -3173.5332    2.1726401    0.9067517    0.1226338 
   30200   -949.97654    42.348623   -907.62792    1516.7741      -6346.5    2.1764255   0.31702558   0.14035805 
   30300   -953.13495    43.616781   -909.51817    1562.1949   -4982.2737     2.180762   0.59914334   0.12391744 
   30400   -948.25716    46.527277   -901.72988    1666.4383    1013.1434    2.1790647   0.95547018   0.12583903 
   30500   -946.75419    40.187035   -906.56716    1439.3539     7608.231    2.2000415   0.72346036     0.129663 
   30600   -951.26215    41.501365   -909.76079    1486.4284   -1384.3164    2.1782618   0.37899516   0.11636096 
   30700   -948.55034    42.072057   -906.47829    1506.8685   -7898.4239    2.1606073    4.4369477   0.11525698 
   30800   -949.66309    48.994772   -900.66832    1754.8151    -1453.629    2.1751879    6.5244571   0.10537516 
   30900   -950.26969     40.20012   -910.06957    1439.8225    16225.921    2.2229665    4.7180673   0.12196927 
   31000   -953.82173    45.075447   -908.74629     1614.439   -3740.8157     2.184548     3.218183   0.11351074 
   31100   -948.18989     41.59434   -906.59555    1489.7584   -10036.968    2.1510881    4.0903427   0.12416484 
   31200   -953.30108    39.319388   -913.98169    1408.2779   -3228.6012    2.1866425    3.4712843   0.11655639 
   31300   -949.84126    37.930167   -911.91109     1358.521    9443.7825    2.2091371    4.3024708   0.13369789 
   31400   -950.75709    44.070788    -906.6863    1578.4558    2420.7845    2.1897817    3.4359573    0.1332079 
   31500   -951.27757    42.039842   -909.23773    1505.7147    -5992.946    2.1731412    3.8306078   0.12926545 
   31600   -954.03985    39.302938   -914.73691    1407.6887    -1325.862    2.1929027    2.4608365   0.11842941 
   31700   -951.83033    45.670139   -906.16019    1635.7388   -1385.1643    2.1858293     4.417088   0.13971181 
   31800    -949.4877    41.978432   -907.50927    1503.5152    2868.6118    2.1926937    4.4983713   0.13346335 
   31900   -953.70268     42.21574   -911.48694    1512.0147   -554.88254    2.1910234    4.6464237   0.11714438 
   32000   -947.47162     42.79981   -904.67181     1532.934   -1562.5846    2.1762244     4.266816   0.11950701 
   32100   -947.97506      43.2298   -904.74526    1548.3347    1784.7773    2.1835484    6.3619645   0.12273849 
   32200   -952.35123    43.091798   -909.25944    1543.3919    902.72407     2.190023    4.5208792   0.11765093 
   32300   -946.82167    38.510569    -908.3111    1379.3089    831.68933    2.1834454    4.4146561   0.13661124 
   32400   -943.55823    42.618043   -900.94019    1526.4238   -1974.6193    2.1627617    3.9499963   0.14087832 
   32500   -949.09239    40.078844   -909.01354    1435.4788    5786.4792    2.1978645    5.1254104   0.13510671 
   32600   -950.59003    42.014575   -908.57546    1504.8097    8437.6403    2.2105751    4.5316478   0.14970773 
   32700   -949.58993    46.131063   -903.45887    1652.2474   -5692.4551    2.1726272    3.2625683   0.13152567 
   32800   -946.63341    42.397784   -904.23563    1518.5349    -16633.04    2.1447482    5.5957306    0.1543995 
   32900   -947.60096    38.292003   -909.30896    1371.4807    2468.4363    2.1898007    7.1946272   0.13366766 
   33000   -948.74151    41.945157   -906.79635    1502.3234    14613.016    2.2193078    5.5752168   0.11897975 
   33100   -947.36475    42.236394   -905.12835    1512.7545     1920.204    2.1880494    5.0871321    0.1309582 
   33200   -937.59498    42.162971   -895.43201    1510.1247   -8159.8053    2.1377415    5.5093821   0.15391938 
   33300    -948.3705    42.249063   -906.12143    1513.2082   -429.18426    2.1847007    4.6257973   0.14748099 
   33400   -947.96314    40.894581   -907.06856    1464.6956    9028.0458    2.2039475    5.4514741    0.1410439 
   33500   -952.08047    43.294666    -908.7858    1550.6579   -832.80204    2.1874475    4.1625254   0.13679081 
   33600   -950.61435    41.000276   -909.61407    1468.4812   -7210.1206    2.1691383    6.3726178   0.12737887 
   33700   -954.96911    38.048584   -916.92053    1362.7623    1225.0919    2.2034385     5.558895   0.12491619 
   33800   -951.12228    42.022974   -909.09931    1505.1105    5011.0148      2.19945    4.2226118   0.13924357 
   33900   -950.95451    43.385055   -907.56946    1553.8953   -1912.9456    2.1823722     3.804195    0.1328613 
   34000   -951.92872    41.436485   -910.49223    1484.1046   -6186.6389    2.1741679    5.8827668   0.12559318 
   34100   -954.61182    39.372405   -915.23942    1410.1768    1095.5014    2.1983035    4.0271734   0.10913333 
   34200    -949.9692     42.90711   -907.06209    1536.7771    4854.3624    2.1991947    4.8447621   0.12853497 
   34300   -948.97055    41.562991   -907.40756    1488.6356    2062.8105    2.1892329    4.1153004   0.12732912 
   34400   -951.43166    38.205525   -913.22613    1368.3834   -6388.6012    2.1710954    4.3032873   0.14036343 
   34500   -948.86288    40.158976   -908.70391    1438.3489   -5032.1122    2.1725717    4.7016575   0.14161468 
   34600   -949.58044    44.705471   -904.87497    1601.1878    14796.028    2.2207326    4.5841652   0.15092312 
   34700   -948.65105    40.871342   -907.77971    1463.8633    9385.5187    2.2121381    2.5291032   0.13990084 
   34800   -948.62585    36.212035   -912.41381    1296.9838   -10296.388    2.1660471    5.0831996   0.14648155 
   34900   -948.01544    41.859058   -906.15638    1499.2397   -9234.1246    2.1640771    7.2511402   0.13943885 
   35000   -945.86548    41.792699   -904.07278    1496.8629    7983.6572     2.198263     7.473376   0.13645259 
   35100   -949.74502    41.407445   -908.33757    1483.0645    5175.2186    2.1998562    6.0542609    0.1345807 
   35200   -950.29371    39.850255   -910.44345    1427.2916   -4440.2336    2.1792894    5.5797394   0.13937768 
   35300   -948.50337    46.831772    -901.6716    1677.3442   -6046.3855     2.163752    3.6025195   0.13855958 
   35400   -946.71864    41.773379   -904.94526    1496.1709    7529.0942    2.2000052    4.8584368   0.14437572 
   35500   -947.31521    38.592517   -908.72269     1382.244    10185.639    2.2021324    2.8895533   0.13708071 
   35600   -953.16252    45.174763   -907.98775    1617.9962   -5757.0387    2.1796131    4.6383731   0.12127771 
   35700   -944.40224    43.758358   -900.64388    1567.2657   -5416.7499    2.1569713    5.3035335   0.14739738 
   35800   -947.90424    38.043276   -909.86096    1362.5722    5932.8345     2.200104    4.0436908   0.13779185 
   35900   -950.19328    41.499469   -908.69381    1486.3605    4087.7956    2.2010815     1.621885   0.12731778 
   36000   -948.10456    44.053182   -904.05138    1577.8252    -5246.639    2.1691759    4.7701512   0.12683284 
   36100   -948.94319    42.819133   -906.12405    1533.6261   -6006.0435    2.1682042    3.7360461   0.11523488 
   36200   -952.18497    41.138714   -911.04625    1473.4395    4475.2171    2.2007426    5.1853705    0.1107463 
   36300   -946.75864    39.213639   -907.54501    1404.4903    14538.213    2.2198432    5.0387501   0.12077176 
   36400   -952.42892    43.544641   -908.88428    1559.6111   -3553.3259    2.1800158    4.3432765   0.10932426 
   36500   -954.94868    38.524747   -916.42394    1379.8167   -18313.762    2.1544846     3.781757   0.10690125 
   36600   -950.71605    39.176626   -911.53942    1403.1647   -2823.7623    2.1839267    4.5568517   0.11184251 
   36700    -952.9285    46.400546   -906.52795    1661.8993    17277.694    2.2321309    5.3388302    0.1064781 
   36800   -953.07337    42.317224   -910.75615    1515.6495    4002.8143     2.201804     5.498018   0.11558575 
   36900    -955.6613    38.247237   -917.41406    1369.8773    -10062.12    2.1749235    6.2999646   0.10934495 
   37000    -949.2632    40.121249   -909.14196    1436.9976   -4540.7677    2.1700522    4.6792831    0.1194585 
   37100   -951.88464    43.621865   -908.26277     1562.377    4874.0477    2.2003602    5.4890332   0.11701951 
   37200   -953.89201    41.555104    -912.3369    1488.3531    5362.9426    2.2071378    4.8284844    0.1133605 
   37300   -953.55912    36.813102   -916.74601    1318.5118   -2133.8056    2.1911235    3.9957314   0.12116459 
   37400    -950.4616    43.100372   -907.36123     1543.699   -11008.337    2.1613003    5.4108627   0.12584655 
   37500   -948.69546    40.011955    -908.6835    1433.0831    3538.5363    2.1934218    2.9520164   0.12794221 
   37600   -952.26694    42.857351   -909.40959    1534.9949    9749.3067    2.2155576    5.4676601   0.11749097 
   37700   -950.24091     42.22562   -908.01529    1512.3686    1192.4011    2.1877693    5.3930296   0.11272319 
   37800   -944.92581    43.062141   -901.86367    1542.3297   -10428.678    2.1496906    5.8058826   0.12590351 
   37900   -950.88623    41.939254   -908.94697     1502.112   -3037.3548    2.1812161     5.194732    0.1127057 
   38000   -949.50824    40.072918   -909.43533    1435.2666    11309.531    2.2121142    4.6523542   0.11265882 
   38100   -949.37752    41.453988   -907.92353    1484.7315    5954.9707    2.1957154    3.7661686   0.11127711 
   38200   -944.09637    42.641474   -901.45489     1527.263   -8991.4698    2.1525205    4.1988861    0.1263537 
   38300   -949.91501    39.953801   -909.96121    1431.0002   -1609.0236    2.1807679    5.3063009    0.1101944 
   38400   -951.71332     42.45024   -909.26308    1520.4136    4970.3188    2.2000264    4.6145585   0.11570547 
   38500    -949.1519    44.035003    -905.1169    1577.1741    2610.0348    2.1900904    4.5959798   0.10822503 
   38600   -948.13392    45.190806   -902.94312    1618.5708   -6534.9998    2.1612101    4.5483243   0.11424304 
   38700   -951.45213    40.964411   -910.48772    1467.1966   -2571.7892    2.1813185    6.1171292   0.11146288 
   38800   -953.87789     44.98951   -908.88838    1611.3611    2778.3351    2.1993601     5.650953  0.097375648 
   38900   -951.68314    46.653617   -905.02952    1670.9634    477.46484    2.1867852    5.4086279   0.10632203 
   39000   -945.75194    45.009562   -900.74238    1612.0793   -4568.4055    2.1577228    4.8026757   0.10898189 
   39100   -949.57186    39.860837   -909.71102    1427.6706    979.12188    2.1848851    4.0757098   0.10556644 
   39200   -951.20334    42.106866   -909.09647    1508.1152    5820.4316    2.1983132    4.0679185   0.11349496 
   39300   -951.00386    42.428896   -908.57496    1519.6492    1918.8614    2.1890811    5.2373716   0.11675751 
   39400   -945.45179    46.901954   -898.54984    1679.8579   -4852.0709    2.1596626    4.8006429   0.12488324 
   39500   -949.35535    43.681456    -905.6739    1564.5113    54.079845     2.182573    6.7491724   0.10785744 
   39600   -949.95545    41.089139   -908.86631     1471.664    1584.5591    2.1888382    5.9103151   0.10843169 
   39700   -951.12559    40.857887    -910.2677    1463.3813    596.70735    2.1891529    5.8894667     0.101123 
   39800   -948.77642    42.663858   -906.11256    1528.0647   -637.28343    2.1815566    5.5829907    0.1143424 
   39900   -947.05279    43.830025   -903.22276    1569.8326   -331.61222    2.1749393    4.5865574   0.10021428 
   40000    -951.2706    41.822187   -909.44841    1497.9191   -1268.7872    2.1824002    3.7557137   0.10622961 
   40100   -951.87576    41.995223   -909.88054    1504.1166     650.3576    2.1919401    3.4314304   0.10386739 
   40200   -948.62226    46.555108   -902.06715    1667.4351    4744.7433    2.1885785    4.2867828   0.10476159 
   40300   -953.09422    46.517473   -906.57675    1666.0872   -1953.2497    2.1824204    5.3801268   0.10504479 
   40400    -951.7255    41.006386   -910.71911       1468.7   -8693.4382     2.164221    5.0377371   0.10692775 
   40500   -948.50755    40.892762   -907.61479    1464.6304    -2672.202    2.1798504    5.3838987   0.12544661 
   40600   -947.20994    46.364256   -900.84568    1660.5995    9658.5782    2.2025892    5.8979262   0.11604846 
   40700   -952.16555    42.321863   -909.84369    1515.8157    5281.2655    2.2031615    5.1599281   0.10863249 
   40800   -948.11121     38.00716   -910.10405    1361.2786   -8375.8969      2.16016    5.1220218   0.11190389 
   40900    -953.9224    46.708358   -907.21404     1672.924   -11054.716    2.1634425    4.0992879   0.11072112 
   41000   -953.30348    43.333108   -909.97038    1552.0348    5952.4265    2.2075297    5.0030851   0.11301002 
   41100   -953.37483    39.154205   -914.22062    1402.3616     9022.041    2.2167652    4.6947924   0.10450471 
   41200   -950.78615    41.496059   -909.29009    1486.2383   -4597.8883    2.1776689    5.6061361   0.10558103 
   41300   -953.28619    45.094565   -908.19162    1615.1238   -9928.7051    2.1653617    4.5456501   0.10172131 
   41400   -955.16117    39.459457   -915.70171    1413.2946    1295.0411    2.2008321    4.4246646   0.10383588 
   41500   -951.91574    40.333991   -911.58175    1444.6173    7684.0638    2.2100348    5.4481284   0.10435063 
   41600   -950.08077    42.394301   -907.68647    1518.4101    1794.3147    2.1903765     6.785885   0.10307207 
   41700   -949.88696    38.827301   -911.05966    1390.6531   -5745.7986    2.1713325    5.8775105     0.109766 
   41800   -954.91651    38.576084   -916.34042    1381.6554   -4108.1867    2.1913721    5.0928776  0.099165663 
   41900   -950.90116    43.359309   -907.54185    1552.9732    3140.3273    2.1963735    4.1769968   0.10949716 
   42000   -952.71549    44.450405   -908.26509    1592.0523    4723.0367    2.2023707    3.9626069   0.11421863 
   42100   -949.65639    38.161517   -911.49487    1366.8072   -2994.2353    2.1821027    4.6663453   0.11460762 
   42200   -949.54749     39.41826   -910.12923    1411.8191   -9181.5208    2.1628955    4.5598805   0.11140492 
   42300   -949.99347      46.0315   -903.96197    1648.6814    2234.3504    2.1879802    4.9606954   0.11394374 
   42400   -949.92188    42.661084   -907.26079    1527.9653    16823.614    2.2259278    4.9380575   0.10720817 
   42500   -950.30926    39.983852    -910.3254    1432.0766    276.17295    2.1911593    5.2073491   0.10998357 
   42600   -948.13882     42.63414   -905.50468    1527.0003   -17282.289    2.1404463    5.6506046    0.1251636 
   42700   -947.49196    44.695418   -902.79654    1600.8278   -4971.0695    2.1660949    5.1056436   0.10170778 
   42800   -949.61781    40.650174   -908.96764    1455.9418    12961.296    2.2196925    4.4894506   0.11931483 
   42900   -953.37228    43.767539   -909.60475    1567.5945    5490.8712    2.2057202    4.5446343   0.10507644 
   43000   -948.34597    45.433341   -902.91263    1627.2575    -8170.208    2.1607982    4.0160754   0.11224252 
   43100    -947.1661    40.870172   -906.29593    1463.8213   -6606.0355     2.167737    5.2359168   0.12045891 
   43200   -950.15384    40.181412   -909.97242    1439.1525    3852.9141    2.1970878     4.026752   0.11457895 
   43300   -948.73647    40.586814   -908.14966    1453.6725    8081.6389    2.2042906    4.1636142   0.11520462 
   43400   -946.20815    44.040459   -902.16769    1577.3695    1170.1832    2.1776123    4.3280898    0.1192328 
   43500   -950.37035    45.162924   -905.20743    1617.5722   -8293.9518    2.1584436    5.5645842   0.10817981 
   43600   -951.89068    42.319025   -909.57166     1515.714    -3899.532    2.1782712    4.6497394  0.096475299 
   43700   -951.51977     43.13076   -908.38901    1544.7874    8300.9476    2.2061049     4.524447   0.10201432 
   43800   -955.20355    44.426891   -910.77666    1591.2101    1805.5933    2.1997552    4.7168513  0.095693793 
   43900   -956.70125    39.431991   -917.26926    1412.3109   -4459.3053    2.1912244    3.1158323   0.10280839 
   44000   -952.14356    41.328087   -910.81548    1480.2222    -5792.464    2.1758154    4.3461966  0.096521299 
   44100   -950.35575    42.190895   -908.16486    1511.1249    1463.3645    2.1897304    4.7136854  0.098468115 
   44200   -952.00816    41.949908   -910.05825    1502.4936    5251.8607    2.2016863    4.2407599   0.10010767 
   44300   -954.18017     37.76114   -916.41903    1352.4671    2603.0652    2.2029218    4.2652304    0.1036748 
   44400    -951.4814     42.27779   -909.20361    1514.2371   -9806.6773    2.1609383    5.4077831   0.11065492 
   44500   -949.33364    40.562123   -908.77151    1452.7882   -5280.4269    2.1702658    4.7200773   0.10692632 
   44600   -952.10206    40.421997   -911.68006    1447.7694    17074.124     2.232405    5.3529403   0.10906497 
   44700   -957.79167    41.196086   -916.59558    1475.4944    10589.741    2.2297808    5.3656526   0.10792572 
   44800   -947.70253    39.533634    -908.1689    1415.9514   -11700.588    2.1542198     3.881314   0.11945977 
   44900   -950.89332    41.545044   -909.34828    1487.9928   -12013.235    2.1592734     4.477762   0.11355143 
   45000   -952.86546    41.838265   -911.02719    1498.4949    5929.5046    2.2069362     4.044937  0.095992048 
   45100   -957.50255    39.109044   -918.39351    1400.7441    8155.6073    2.2242409    4.6229744  0.093524294 
   45200   -955.98012    40.270144   -915.70998    1442.3305   -3724.7563    2.1897678     5.261493  0.095673536 
   45300   -951.05077    39.632967    -911.4178    1419.5092    -5554.937    2.1756947    5.1263326    0.1163904 
   45400   -950.41367    41.438396   -908.97527    1484.1731    601.56485    2.1897142    5.3819473   0.11108241 
   45500   -945.48248    38.708132   -906.77435    1386.3849    8236.8162    2.1993171    4.4577085   0.11874601 
   45600   -947.90719    43.416666   -904.49052    1555.0275    200.37944    2.1798045    4.1179607   0.11282864 
   45700   -941.10876    45.059931   -896.04883    1613.8833   -8370.2571    2.1397488      3.76269   0.12913865 
   45800   -949.37201    44.235725   -905.13628    1584.3632     1173.574    2.1846138    4.0966629    0.1163829 
   45900   -951.98437    44.295964   -907.68841    1586.5208    10669.473    2.2141693    5.1066236  0.096715114 
   46000   -952.78855     42.32868   -910.45987    1516.0598    264.94734    2.1908216     4.967955   0.10880606 
   46100   -949.50572    44.413598   -905.09213     1590.734   -8881.8701    2.1608053    4.4634589   0.10843284 
   46200    -944.7942    40.832371   -903.96183    1462.4675   -1828.4135    2.1734027    5.6332342   0.12746844 
   46300    -950.0283    40.452996   -909.57531    1448.8796    5236.0963    2.2012808    4.6235003   0.11598665 
   46400   -950.99613    41.709927    -909.2862    1493.8983    5339.0628    2.1998653    4.0838433   0.10568673 
   46500   -946.35142    45.043597   -901.30782    1613.2983   -2204.6092    2.1697167    4.0773872   0.11564651 
   46600   -952.69284    45.093927   -907.59892    1615.1009   -2896.3732    2.1796413     5.168874   0.10905367 
   46700   -950.56527    40.623651   -909.94161    1454.9919    -314.6125     2.187096     5.455082   0.12145225 
   46800     -948.656    41.335368   -907.32063     1480.483    1463.6753    2.1900467    6.0587679   0.12624091 
   46900   -946.37912    45.698541   -900.68057     1636.756   -328.63812    2.1742579    5.0195121   0.12364528 
   47000     -952.538    42.361615   -910.17639    1517.2394    1224.6924    2.1938781    5.5300771   0.10609172 
   47100   -952.48206    42.651074   -909.83099    1527.6068   -2914.4781    2.1850452    4.7981979   0.11085831 
   47200   -950.14183    42.059131    -908.0827    1506.4056   -2160.6768    2.1846217    3.7401549   0.12579979 
   47300   -944.96455    41.358122   -903.60643     1481.298    3793.1999     2.187198    4.1562151   0.13746672 
   47400   -944.09335     43.64947   -900.44388    1563.3657   -750.95871     2.171873     4.139709   0.12611764 
   47500   -947.48741    39.944242   -907.54317    1430.6579   -1197.6156    2.1792524    4.8297841   0.11362664 
   47600   -952.96965    43.592965   -909.37669    1561.3419    354.62785    2.1948739    5.0423353   0.10578531 
   47700     -949.764    39.309945   -910.45405    1407.9397    5414.2711    2.2041422    5.8349284   0.11522601 
   47800   -942.33263    41.628859   -900.70378    1490.9948   -652.77437    2.1729676    6.0093103   0.13407898 
   47900   -950.22616    43.384116   -906.84205    1553.8617    -4551.613    2.1743155    5.5653902   0.10398329 
   48000   -951.13152    41.069864   -910.06166    1470.9736    1750.6156    2.1904602    3.9934676   0.10624594 
   48100   -948.31883    39.625271   -908.69356    1419.2335     8073.612    2.2069027    5.2395035   0.11304006 
   48200    -942.0253    41.195891   -900.82941    1475.4874   -754.55151    2.1704273    4.9123133   0.13536323 
   48300   -951.86567    42.511289   -909.35438    1522.6002   -7968.1373    2.1679676    4.0755899   0.12185479 
   48400   -952.27718    42.245507   -910.03167    1513.0808   -2509.4952    2.1872721    4.3969904   0.11134621 
   48500   -947.32681    41.888579   -905.43824     1500.297    10219.704    2.2074659    5.0409307   0.10633183 
   48600   -948.79738    46.517392   -902.27999    1666.0843   -617.68979    2.1790746    5.9263179   0.10311839 
   48700   -953.86466    43.030486   -910.83417     1541.196   -9166.4512    2.1729465     4.718496   0.10415575 
   48800   -950.63295     41.13157   -909.50138    1473.1837   -1725.0388    2.1831849    5.3983438   0.11265057 
   48900   -949.13069    43.231996   -905.89869    1548.4133    7227.1198    2.2038866    4.7925764   0.10723553 
   49000   -945.33958    45.137386    -900.2022    1616.6575    2997.8045    2.1789115    5.5055139   0.10215089 
   49100   -952.54377    42.765309   -909.77846    1531.6983   -6240.5798    2.1745988    4.6017307   0.10889477 
   49200   -951.65439    41.939708   -909.71469    1502.1282   -6306.1269     2.169418    5.0890408   0.09912115 
   49300   -951.98276    43.234548   -908.74822    1548.5047    4137.5247    2.1990278    4.6525462   0.10346871 
   49400    -949.8802    40.560864   -909.31934    1452.7431    12124.934    2.2158689     5.137524   0.10440692 
   49500   -957.42193    38.967327    -918.4546    1395.6683   -4021.3317    2.1927422    5.7245906  0.094524685 
   49600   -949.76638    37.414018   -912.35236    1340.0345   -16137.586    2.1481427    5.3999724    0.1141059 
   49700   -949.36673    40.138214   -909.22851    1437.6053     1497.084    2.1886202     5.497179   0.10541156 
   49800   -947.84164    40.836572   -907.00507    1462.6179    15317.349    2.2209813    5.1085881    0.1054738 
   49900   -956.41812    42.751902   -913.66622    1531.2181   -1227.8927    2.1962789    5.1232444  0.096236948 
   50000   -953.48463    39.779249   -913.70538    1424.7484   -5792.4374    2.1799427    4.7570173   0.10257172 
   50100   -948.20653    39.948808   -908.25772    1430.8214    624.10638     2.183325    5.1873365   0.11405022 
   50200   -954.93415    46.254645    -908.6795    1656.6736     1241.765    2.1956685    5.1532385  0.097313948 
   50300   -956.25082    39.880684   -916.37014    1428.3815     3189.571    2.2067075    5.6368675  0.085664998 
   50400   -950.03402    40.709548   -909.32447    1458.0684   -3322.1685     2.178856     4.090742   0.10669625 
   50500   -948.35948      40.2117   -908.14778    1440.2373   -395.39637    2.1840856     5.461496   0.11717896 
   50600    -956.6129    45.501671   -911.11123    1629.7048   -142.15472    2.1991006    4.9562382   0.10496827 
   50700   -954.97554    38.105785   -916.86975     1364.811    3268.0322    2.2068503    5.6838414   0.10514126 
   50800   -952.64978    45.023608   -907.62618    1612.5824    -8251.123    2.1687368     3.871576   0.10653139 
   50900   -948.80606    39.985979   -908.82008    1432.1528   -622.76345    2.1824151    5.6330482   0.11093862 
   51000   -952.13254     42.17435   -909.95819    1510.5323    7513.9371    2.2102971    4.4747993   0.11950965 
   51100   -955.17808    40.658941   -914.51914    1456.2558    2757.3775    2.2027004    5.4747123  0.092589574 
   51200     -954.854    37.414212   -917.43979    1340.0414   -6899.5643    2.1793991    6.0105892   0.10016634 
   51300   -950.58867    38.988656   -911.60001    1396.4323   -3169.8901    2.1822408    6.1441615   0.11009367 
   51400    -951.2783    42.741618   -908.53669    1530.8497    7497.7872    2.2049961    5.6449852   0.09566249 
   51500    -952.7525    44.862636   -907.88986    1606.8169    3306.7621    2.1999591    5.3313546   0.08992657 
   51600   -949.10526    39.402443   -909.70282    1411.2526   -9952.2756     2.161856      4.71111  0.099806403 
   51700    -953.0032    37.328267   -915.67494    1336.9632   -6879.1563    2.1747574    5.3598901  0.097306991 
   51800   -949.23188    38.649579    -910.5823    1384.2877    12975.566    2.2213899    5.0937884   0.11128289 
   51900   -947.40681    40.153773   -907.25303    1438.1625    11062.387    2.2115013    5.8572302   0.12191116 
   52000   -950.56339    40.388635   -910.17476    1446.5744   -7892.4575     2.167093    4.8184004   0.10386623 
   52100   -952.26647     35.99959   -916.26688    1289.3748   -4133.4468    2.1827717    5.2077561   0.10293127 
   52200   -945.42487    37.002223   -908.42264    1325.2854    5375.0966    2.1955966    5.2689914   0.12070925 
   52300    -951.3083    43.043777   -908.26453     1541.672    4165.8765    2.2009183    6.1501613   0.11358524 
   52400   -952.50069    38.356871   -914.14382     1373.804   -389.01087    2.1940307    4.8187388   0.11940031 
   52500   -951.79124    40.049566   -911.74167    1434.4302   -3400.5859    2.1850259      5.23896   0.11301137 
   52600   -950.26822    42.946274   -907.32194    1538.1798    163.11004    2.1901764      4.76707   0.11106658 
   52700   -952.14672    42.080502   -910.06622     1507.171    1586.9099    2.1962933    4.6136451  0.097888312 
   52800   -952.79917    38.970191   -913.82898    1395.7709   -1113.0225    2.1965097    4.5608607   0.11084188 
   52900   -948.77161    43.473006    -905.2986    1557.0454   -2763.5609    2.1777173    3.6443527   0.10628972 
   53000   -950.30639    43.666038   -906.64035    1563.9591    3444.1935    2.1934678    5.5608752   0.11718123 
   53100   -951.41563    41.633169   -909.78246    1491.1491    3333.2798    2.1989389    4.7095772   0.11408727 
   53200   -953.51335    41.226814   -912.28653     1476.595   -5278.0528    2.1827136    4.1537785   0.11328551 
   53300   -944.89883    41.968497   -902.93033    1503.1594   -4955.4937    2.1661445    4.9561122   0.13045614 
   53400   -952.59672    45.981683   -906.61504    1646.8971     7350.327    2.2102348    6.9547163   0.11616121 
   53500   -951.88105    42.484034   -909.39702     1521.624    9342.3093    2.2123069    4.1178504   0.10889479 
   53600    -951.2923    41.084758   -910.20754     1471.507   -9227.1719     2.169863     5.588712   0.11839928 
   53700    -944.3876    43.330795   -901.05681    1551.9519   -11308.354     2.145386    3.2551303   0.13351344 
   53800   -952.38775    43.354831   -909.03292    1552.8128    6400.9113    2.2123219    5.1435509   0.11849024 
   53900   -954.04137    44.440377   -909.60099    1591.6932    7058.8125     2.214972    3.5993217   0.10032823 
   54000   -951.26096    43.686999   -907.57397    1564.7099   -5257.0145    2.1780363    4.1136796  0.098759673 
   54100   -943.04981    41.648418   -901.40139    1491.6953   -7270.3466    2.1578025    4.8002927   0.12729048 
   54200    -950.0644     38.94779   -911.11661    1394.9686    6045.9496    2.2051887    4.8771627    0.1101103 
   54300   -954.30212    45.029551   -909.27257    1612.7952    3114.8766    2.2052576    4.5210318   0.11817061 
   54400   -951.45627    44.768374    -906.6879    1603.4408    -3353.164    2.1794129    3.3388018    0.1107262 
   54500   -949.42957     48.40008   -901.02949    1733.5153    -6534.484    2.1647195    4.7402161   0.11785094 
   54600    -947.0669    46.404628   -900.66227    1662.0455   -3350.6592    2.1711066    4.0493774   0.11054351 
   54700   -952.24721    45.016985   -907.23022    1612.3452    3740.4274    2.1981062    4.5748721  0.096569659 
   54800   -951.73161     43.19683   -908.53478    1547.1538    4326.0578     2.201076    4.0819742   0.10530952 
   54900   -950.22272     39.46757   -910.75516    1413.5852   -2530.8885     2.186605    5.2227769   0.10849412 
   55000   -950.39855    43.034869   -907.36368    1541.3529   -6184.3567    2.1732179    3.8748318    0.1003908 
   55100   -947.18111    44.012692   -903.16842     1576.375    604.26387    2.1811557    4.5687249   0.10063532 
   55200   -950.03629    41.539519   -908.49677    1487.7949    5639.2929     2.201718    4.6674346   0.10723024 
   55300   -950.32367     39.72949   -910.59418    1422.9662    2386.8008    2.1983083    4.5714169   0.12312094 
   55400   -945.64004    42.285024   -903.35502    1514.4962   -7597.0259    2.1594917    4.3805923   0.13456761 
   55500   -950.59296     45.41046    -905.1825     1626.438   -5722.9805    2.1723267    5.8111984   0.13198312 
   55600   -949.06596    39.664614   -909.40134    1420.6426    10561.208    2.2139525    5.4899177   0.11563809 
   55700   -951.58249    42.162515   -909.41998    1510.1084    8806.5316    2.2108483    5.6250872   0.10790471 
   55800   -947.57413    46.379225   -901.19491    1661.1356   -9394.1521    2.1553633     3.825881   0.12791854 
   55900   -947.76913    39.611839   -908.15729    1418.7524     -5231.27    2.1710208     5.893267   0.11558856 
   56000   -950.44865     40.72174   -909.72691    1458.5051    3800.1445    2.1998566    5.1344432   0.11505763 
   56100   -949.58264    41.675536   -907.90711    1492.6666    7005.0285    2.2085212    5.1757271   0.10814349 
   56200   -950.88678    50.510691   -900.37609    1809.1098   -5825.4196    2.1716857    5.4205861   0.10588819 
   56300   -950.44547     42.67069   -907.77478    1528.3094   -8310.3868    2.1709998    5.2580634   0.11556891 
   56400    -947.7332     38.16299   -909.57021    1366.8599   -1492.8807    2.1812793    4.5020532   0.12024322 
   56500   -950.68166    42.033524   -908.64814    1505.4884     6873.478    2.2054575    3.9544523   0.11381978 
   56600   -950.73735    41.068981   -909.66836     1470.942    4348.4623    2.2014535    5.0804814   0.13013406 
   56700   -956.51031    39.122498   -917.38781     1401.226   -3290.1769    2.1943505    4.8653004   0.11624068 
   56800   -949.97879    38.153542   -911.82525    1366.5215   -7027.7394    2.1726043     4.893813   0.11451677 
   56900   -951.25677    42.369883   -908.88689    1517.5356     814.4152    2.1949701     4.989914   0.11810527 
   57000   -949.17995     42.41088   -906.76907    1519.0039    15603.824    2.2222921    5.3606611   0.10421749 
   57100   -952.57786    40.358272   -912.21958     1445.487   -3108.1208    2.1858864    5.4890435   0.10269073 
   57200   -950.90104    36.393464   -914.50758    1303.4819   -14828.394     2.153523    3.9804969   0.11396458 
   57300   -952.55283    42.166616   -910.38621    1510.2553   -908.03918    2.1905094    4.7398185   0.11091829 
   57400   -950.58764     43.91736   -906.67028    1572.9606    11964.974     2.214214    4.0237221  0.099497415 
   57500   -951.24018    39.050547   -912.18963     1398.649    931.67771    2.1912663    4.2607868   0.10457295 
   57600   -951.95078    37.177618   -914.77317    1331.5674   -6169.4229     2.177857    4.5095495   0.10612851 
   57700   -949.33943    41.188168   -908.15126    1475.2108   -1154.6261    2.1803858    5.8062175   0.11485475 
   57800   -949.13967    40.037535   -909.10213    1433.9993    5249.0549    2.1998324    4.7509181   0.10933378 
   57900   -953.68192    37.890388   -915.79153    1357.0963    3701.6056    2.2065032    6.0402003   0.10511526 
   58000    -951.7068    43.615804   -908.09099    1562.1599   -5081.9797    2.1760698    4.3293342   0.11312819 
   58100   -950.24813    42.217115   -908.03102    1512.0639   -458.18389    2.1834996    4.3744732   0.11823051 
   58200   -952.69034    41.833343   -910.85699    1498.3186    3188.2636    2.1985189    5.6499457   0.10963047 
   58300   -953.92736    38.556438   -915.37093    1380.9518    2547.9315    2.2022402    4.7085158  0.099899082 
   58400   -952.37594    42.983731    -909.3922    1539.5214   -2026.3921     2.185509    3.7688341   0.10217905 
   58500   -948.77421     40.92203   -907.85218    1465.6787    1530.4221    2.1859185    5.1745837   0.10648066 
   58600   -948.97628    39.846213   -909.13007    1427.1468    1185.6789    2.1889954    5.5263157   0.10546348 
   58700   -948.18638    37.422562   -910.76381    1340.3405    1413.6895    2.1865636    3.1933959   0.10163759 
   58800   -955.37067    38.353831   -917.01683    1373.6951   -2744.4944     2.194241    5.8957172   0.10373258 
   58900   -956.44517    40.598536   -915.84664    1454.0923   -610.66253    2.1981062    3.9270164   0.10874262 
   59000   -952.49228    42.069869   -910.42241    1506.7901    4705.9734    2.2018992    4.5491538   0.11249052 
   59100    -954.2426    45.660535   -908.58207    1635.3948   -1883.8579    2.1873281    4.1728538   0.10829587 
   59200   -950.29707    42.993146   -907.30393    1539.8586   -6044.7941    2.1711533    4.6192053    0.1103221 
   59300   -954.29176    37.736769   -916.55499    1351.5942    3541.0764    2.2023678    4.4946395   0.10414048 
   59400   -953.65746    42.432708   -911.22475    1519.7857    2963.7425    2.2010246    4.5507843   0.11242127 
   59500   -947.41445    39.540277   -907.87418    1416.1893    779.68803    2.1831954    4.4424071   0.11394151 
   59600   -952.13721    42.475019   -909.66219    1521.3012   -8225.7442    2.1709246    4.3454323   0.10008912 
   59700    -952.8208    36.719839   -916.10096    1315.1715    1874.5606    2.2005793    4.7941824   0.11066755 
   59800   -951.24997    42.997312   -908.25266    1540.0078    6083.2884    2.2078768    4.5895417   0.11566294 
   59900   -949.72919    41.250802   -908.47839    1477.4541      1417.59    2.1888196    3.4440344   0.12189359 
   60000     -954.387    40.129937   -914.25707    1437.3088   -9834.1307    2.1739976    4.4771639   0.12002469 
   60100   -950.83574    38.172794   -912.66295    1367.2111   -1774.6447    2.1841675    6.0981086   0.10669299 
   60200   -951.98228    44.806888   -907.17539    1604.8202    9020.9482    2.2097318    4.3960684   0.11489329 
   60300   -952.83389    43.030568   -909.80332    1541.1989    3981.5802    2.2012778     4.237729   0.11917236 
   60400   -954.58757    40.101702   -914.48587    1436.2975   -10678.495    2.1686249    3.3735708   0.11455586 
   60500   -952.35705    37.827885   -914.52916    1354.8576   -6103.0844    2.1746698    4.8418745   0.10551786 
   60600   -950.88039    42.987523   -907.89287    1539.6572    7176.0035    2.2044201    5.4776976   0.10835375 
   60700   -950.85024    42.296351   -908.55389    1514.9019     7563.478    2.2046973    5.6805154   0.11415305 
   60800   -951.43125    40.061225   -911.37003    1434.8478   -6476.5599    2.1717493    4.7169782   0.10732524 
   60900    -948.7809    42.287645   -906.49325    1514.5901   -7777.5553    2.1656454    3.5464139   0.11957383 
   61000   -945.61943     41.62031   -903.99912    1490.6886    4305.2214     2.187468    3.2010484   0.12309886 
   61100   -950.19992    41.282941   -908.91697    1478.6052     4001.326    2.1937153    4.2586647   0.11043624 
   61200   -953.82268    43.187369   -910.63531    1546.8149    -727.6211    2.1862598    3.4436951   0.10867119 
   61300    -944.4212    42.131423   -902.28978    1508.9948    712.54194       2.1712     3.157256   0.13071337 
   61400   -947.09063    40.543701   -906.54693    1452.1284    4080.5156    2.1867994    4.8221498   0.11254289 
   61500   -951.40161    40.917067   -910.48455     1465.501   -65.983686    2.1866562    5.2137501   0.11418916 
   61600   -952.79722    44.885563   -907.91166    1607.6381   -2917.5613    2.1821375    5.6274196   0.10858742 
   61700   -947.19633    46.560514   -900.63582    1667.6288    324.94539    2.1716014    6.0454279   0.10408091 
   61800   -949.37888    39.104255   -910.27462    1400.5726    6388.2343    2.1991437     3.925288   0.11611131 
   61900   -952.21089    42.437033   -909.77385    1519.9406     -1647.86    2.1872067    4.6965286   0.10124192 
   62000    -949.1447     43.16277   -905.98193    1545.9339   -5496.1503    2.1687555    3.9023612   0.11464235 
   62100   -948.54392    48.185929   -900.35799    1725.8452   -3335.4373    2.1714054    5.8203426   0.11376286 
   62200   -952.59265    42.452322   -910.14033    1520.4882    12404.708    2.2198699    5.3206944    0.1101982 
   62300   -949.25974    39.943105   -909.31663    1430.6172     2830.689    2.1908022    4.0507213   0.11580293 
   62400    -948.9203    39.751166   -909.16913    1423.7426   -11891.971      2.15507    4.3276246   0.12016631 
   62500   -946.82735    41.367239   -905.46011    1481.6245   -2765.3433    2.1758423    4.9542258   0.13715422 
   62600    -947.5269    46.711474   -900.81543    1673.0356     9411.012    2.2004134     5.662193   0.12170147 
   62700   -950.33432    43.072688   -907.26163    1542.7075    1795.4348    2.1926834    6.1228711   0.11806764 
   62800   -952.01585    41.899758    -910.1161    1500.6974   -6871.4144    2.1746438    5.7766736   0.10541459 
   62900   -951.51198    42.514983     -908.997    1522.7325   -3349.0859    2.1812504    4.4155096   0.10363105 
   63000   -943.15943    42.636528    -900.5229    1527.0858    4167.0259    2.1799481    3.0348668   0.11381223 
   63100   -949.60957     41.31864   -908.29093    1479.8839    5276.1612    2.1990122    5.8613599   0.10843579 
   63200   -951.09414    40.844231   -910.24991    1462.8922   -449.80094    2.1880951    5.4537547   0.10296508 
   63300   -949.19861    43.477582   -905.72103    1557.2093   -2989.8438    2.1734257    5.6167652  0.096187895 
   63400   -946.11374    43.062566   -903.05117    1542.3449   -2358.6013    2.1710046     5.558408   0.10617544 
   63500   -950.84935    40.787254   -910.06209    1460.8515    4279.3739    2.1981521    5.5282253   0.10950708 
   63600   -952.57593    43.587688   -908.98824    1561.1529    3324.4347    2.1996498    5.0885579   0.11603165 
   63700      -946.19    43.942628   -902.24737    1573.8656   -948.79404    2.1733188    4.2946359   0.12241344 
   63800   -952.22806     44.36878   -907.85928    1589.1288   -5836.3131    2.1750084      4.19995  0.098971151 
   63900   -952.10263    41.761942   -910.34068    1495.7613   -2455.2964     2.183884     5.238504  0.096427838 
   64000   -951.74245    43.829928   -907.91252    1569.8291    4602.8326    2.1980639    4.2327732   0.10284576 
   64100   -946.65133     42.21821   -904.43312    1512.1032    4108.3525     2.190498    4.0616488   0.11283007 
   64200   -941.74496    45.040953   -896.70401    1613.2036     -6597.81    2.1504156    3.5506317   0.13335821 
   64300   -948.97912    41.345453   -907.63367    1480.8442   -701.74009    2.1856332      5.59902   0.10520622 
   64400   -947.99195    39.949661   -908.04229     1430.852    14405.731     2.216923    3.8479947  0.088451699 
   64500   -950.54998    41.474633   -909.07534    1485.4709    3667.5965    2.1965644    3.8077183   0.10292218 
   64600   -952.13686    44.645245   -907.49162    1599.0308    -18320.02    2.1421828    4.3503581    0.1111804 
   64700   -945.06469    47.006158   -898.05853    1683.5901   -11402.041     2.146301    4.0693291   0.13595334 
   64800   -949.95939    43.429364   -906.53003    1555.4823    17261.496    2.2255697    4.9991904   0.10619805 
   64900   -952.23699    43.529089    -908.7079    1559.0541    5971.6935    2.2021304     4.922176   0.10391513 
   65000   -950.79711    40.518918    -910.2782    1451.2407   -8852.3359     2.166632    5.1582523   0.11022283 
   65100   -946.92872    41.977378   -904.95134    1503.4774   -4377.0525    2.1664187     5.835508   0.10788656 
   65200   -950.22782    46.914816   -903.31301    1680.3186    3731.6577    2.1891295    5.5275594   0.11018393 
   65300   -951.17969    42.495628   -908.68406    1522.0393    4172.7945    2.1972434    4.9811163   0.10447526 
   65400   -950.97328     40.32659   -910.64669    1444.3522   -3177.9566    2.1816361    4.2514536   0.10998438 
   65500   -946.83589    43.478322   -903.35757    1557.2358   -2739.2876    2.1670824    5.3534384   0.10793338 
   65600   -950.54923    45.415857   -905.13337    1626.6313    2037.9552    2.1890481    4.6428795   0.11212802 
   65700    -949.5982    39.846278   -909.75192    1427.1492    2768.3115    2.1953168    5.5951135   0.11377724 
   65800   -951.76391    42.315243   -909.44867    1515.5785   -2830.8169    2.1822931    3.9065687   0.10884966 
   65900   -943.42036    42.456498   -900.96386    1520.6378   -1954.2628    2.1639263    5.2396235   0.10748715 
   66000   -953.20061    45.153777   -908.04683    1617.2445     2572.626    2.1978482    4.5786757   0.10336585 
   66100   -952.96736    43.160276   -909.80709    1545.8446    2434.9816    2.1987335     5.620063   0.10871476 
   66200   -951.01191    42.133471   -908.87844    1509.0681   -5525.5714    2.1736785    5.8046067   0.10058033 
   66300   -946.01084    45.148696   -900.86214    1617.0626   -6653.1287     2.158655    4.7781752   0.12556893 
   66400   -952.08917     44.42362   -907.66555    1591.0929    6150.7314    2.2025655    4.7074932  0.097583584 
   66500   -951.50761    42.311519   -909.19609    1515.4452    5537.4534    2.2027754    4.2153308   0.10254109 
   66600   -948.39097    39.290959   -909.10001    1407.2597   -4878.3728    2.1716403    5.2206174   0.12165891 
   66700   -951.36756    47.337505   -904.03006    1695.4578   -10802.831      2.15928     4.375607   0.10260116 
   66800   -946.86439    46.940806   -899.92359    1681.2495    3910.1919    2.1857944    4.7031701   0.11164657 
   66900   -948.81978    40.554705   -908.26508    1452.5225    15203.276    2.2212857    4.3332716   0.11471598 
   67000   -950.47691    41.718917   -908.75799    1494.2203   -1127.3477    2.1867913    6.5346697   0.10481791 
   67100   -952.20035    42.135775   -910.06457    1509.1507   -13231.077    2.1583385     4.999742   0.11167202 
   67200   -954.89896    36.471127   -918.42783    1306.2635   -314.76236    2.1977253    6.2798342   0.10657458 
   67300   -953.47921    42.307467   -911.17174       1515.3    6830.3453    2.2089274    5.1918786   0.10278503 
   67400   -950.26058    41.639424   -908.62116    1491.3732    4829.0272    2.1943049    4.7239839    0.1081234 
   67500   -952.67452    43.615744   -909.05877    1562.1578   -5503.3469    2.1747337    4.6626659   0.10601203 
   67600   -957.67948    40.471683   -917.20779    1449.5489    -5560.877    2.1896125    4.7126429  0.092600798 
   67700   -953.86385    42.217071   -911.64678    1512.0624   -426.09691    2.1928483    5.2147459  0.093653351 
   67800    -949.6899    41.581925   -908.10798    1489.3138    4148.5182    2.1969226    5.4224728   0.11277905 
   67900    -949.6319    39.456843   -910.17506     1413.201   -735.68477    2.1855747    4.4554011   0.11583965 
   68000    -954.3562    36.785425   -917.57077    1317.5205   -2514.9012    2.1905494    5.0157758  0.099504191 
   68100    -953.5724    44.083686   -909.48872    1578.9178   -4953.8717    2.1804638    5.6764644   0.10391572 
   68200   -950.81762     42.43712    -908.3805    1519.9437    4414.3467     2.196525    4.8156212   0.11116306 
   68300   -955.53025    43.390349    -912.1399    1554.0849    620.69418    2.1975061    5.2130759   0.10458663 
   68400     -954.101    36.562065   -917.53893    1309.5206   -1635.2077     2.189027     4.403334   0.10969323 
   68500   -950.56353    41.937062   -908.62646    1502.0335   -8996.3812    2.1632654    6.4552601   0.10661719 
   68600    -950.8775    42.074287   -908.80321    1506.9484    5085.7986    2.1967367    4.7689557   0.09353903 
   68700   -951.51675     42.25163   -909.26512    1513.3002    16683.154    2.2279327    5.2774212    0.1031435 
   68800   -947.56384    47.405608   -900.15823    1697.8969    -4661.206    2.1635472    4.5092106   0.10395438 
   68900   -946.68135    41.940396   -904.74095    1502.1529   -14796.077    2.1405623    4.1428536   0.11751218 
   69000   -952.62956    43.051602   -909.57796    1541.9523    -1297.719    2.1864781    4.9626113   0.10842558 
   69100   -951.85734     43.26937   -908.58797    1549.7519    13609.302    2.2206433    4.9612836    0.1072071 
   69200   -947.06546    44.466756    -902.5987    1592.6379    3659.2686    2.1841238    4.9515571   0.11001504 
   69300   -947.23885    41.850297   -905.38855    1498.9259   -8770.2684    2.1563126    4.7895392   0.11968835 
   69400   -948.29903    37.991045   -910.30798    1360.7015   -1575.2551    2.1777985    5.0619369   0.11149049 
   69500   -953.48805     45.19187   -908.29618    1618.6089    4618.6094    2.1996797    4.4051557   0.10891051 
   69600   -945.31188    44.613594   -900.69829    1597.8971    2903.9292    2.1810416    4.9064601   0.11222284 
   69700   -950.90334    42.404411   -908.49893    1518.7722   -3694.6507    2.1791976    4.3749719   0.11036285 
   69800   -950.60758    40.616053   -909.99153    1454.7197   -5943.2728    2.1709971    5.7450871  0.090076926 
   69900   -950.12172    42.408717     -907.713    1518.9264    1344.7362    2.1864624    5.8094023  0.097809152 
   70000   -946.61052    45.552126    -901.0584     1631.512    7532.4253    2.1939468    5.0451918   0.11040202 
   70100   -948.89988    43.339413   -905.56047    1552.2606   -270.55063    2.1794054    5.3626014   0.10340902 
   70200   -952.28723    42.892256   -909.39497    1536.2451   -10992.677    2.1604398    5.4497951   0.11077112 
   70300    -950.7026    41.255233   -909.44737    1477.6128   -1660.4589     2.184577    5.3505762   0.11200549 
[...]
  186800   -948.49952    43.324829   -905.17469    1551.7383    2914.2341    2.1841369    6.9679714  0.099942381 
  186900   -951.44147    41.353532   -910.08794    1481.1336   -2978.0025     2.181461    6.4124727  0.098124747 
  187000   -954.06499    41.641752   -912.42324    1491.4565   -2235.7001    2.1886133    6.3930296   0.10114012 
  187100   -949.35578    45.827765   -903.52802    1641.3843   -449.28044    2.1842363    6.0333117   0.10175261 
  187200   -950.09617    41.211195   -908.88497    1476.0355    4464.9649    2.2008744    6.2033912   0.11483582 
  187300    -950.8062     39.35077   -911.45542    1409.4019   -229.86225    2.1882829    6.9248459   0.10142537 
  187400   -947.39184     43.94911   -903.44273    1574.0977   -7255.5401    2.1599184    6.9105375   0.11208852 
  187500   -947.48256    39.331531   -908.15103    1408.7128    3444.3311    2.1916219    5.2370024   0.11515716 
  187600   -951.23184    40.766785   -910.46506    1460.1184    8402.5956     2.212826    6.1914655   0.11361716 
  187700   -950.83361    44.238751   -906.59486    1584.4716    864.08198    2.1874771    4.9378707   0.11332905 
  187800   -948.74945     43.19546   -905.55399    1547.1047   -12112.026    2.1525815    5.6899626    0.1146105 
  187900    -953.0096    39.618333   -913.39127     1418.985   -2631.4131    2.1904319    6.6239742   0.10225192 
  188000   -951.81075    44.411892   -907.39886    1590.6729    13166.359    2.2212785    4.8257304  0.097303877 
  188100   -949.23735    41.813077   -907.42427    1497.5928    4411.7444    2.1983616    5.9191394   0.10965476 
  188200    -950.2316    34.580966   -915.65064    1238.5648    -5574.695     2.178315    5.6228532   0.10238922 
  188300   -952.24737    42.234944   -910.01242    1512.7025   -6354.7017    2.1757054    6.3240653   0.11084583 
  188400   -949.66641    42.816304   -906.85011    1533.5247    5834.0922    2.1983827    6.9277252   0.10168113 
  188500    -955.8254    42.227317   -913.59809    1512.4294    4535.8175    2.2105258    5.5271212  0.096954428 
  188600   -950.77588    39.367384    -911.4085    1409.9969   -1073.8546    2.1887371    7.0628231   0.10700667 
  188700   -949.42748    42.514485     -906.913    1522.7147   -3788.5807    2.1741078    7.2087804   0.11435715 
  188800   -953.21175    42.403507   -910.80824    1518.7399   -1352.3839     2.191789    5.3739366    0.1199432 
  188900   -954.83993    41.500597   -913.33933    1486.4009    4354.8355    2.2090042    6.0096183   0.10136014 
  189000   -950.47119    46.023902   -904.44729    1648.4093   -2934.5579    2.1813924    6.6466478   0.10865088 
  189100   -948.37525    39.336372   -909.03888    1408.8862   -2168.1551    2.1829854    6.2149507   0.11782672 
  189200   -952.02346    40.595025   -911.42844    1453.9666    407.27131    2.1947757     4.873717    0.1077596 
  189300   -944.88317    42.097577   -902.78559    1507.7825    4951.8436    2.1892273    6.8413536   0.12166011 
  189400   -951.15216    44.177375   -906.97479    1582.2734    3923.1705    2.1970603    5.9280885   0.10348751 
  189500   -948.84665    38.010376   -910.83627    1361.3938   -2408.1682    2.1790875    5.6200394   0.10737878 
  189600   -948.58437    42.432692   -906.15167    1519.7851   -7799.1147    2.1615011    5.8952207    0.1171962 
  189700   -949.66598    46.572779    -903.0932    1668.0681     4855.787    2.1945905    5.5476344   0.11416469 
  189800   -955.18965    45.617332   -909.57232    1633.8474    13968.909    2.2313873    7.0285261   0.11078417 
  189900   -950.68777    41.709986   -908.97778    1493.9004   -493.55097    2.1870463    5.9027139   0.11103495 
  190000   -947.91173    43.121788   -904.78994    1544.4661   -15564.762    2.1446695    5.8159102   0.11217448 
  190100   -955.65725    41.075076   -914.58217    1471.1603   -1163.1026    2.1972198    6.3606615   0.10873274 
  190200   -953.39002    42.648046   -910.74198    1527.4983    7100.4455    2.2138175    6.4437055   0.10740964 
  190300   -951.38083    44.248771   -907.13206    1584.8305    682.19839     2.190847    4.9701164    0.1027719 
  190400   -952.40625    42.536488   -909.86976    1523.5027   -6226.6253    2.1740394    6.7269402   0.10733659 
  190500   -954.23215    39.658371   -914.57378     1420.419   -3576.1073     2.189702     6.537009   0.10883174 
  190600    -949.3917    41.852906   -907.53879    1499.0193    4831.1945    2.2002003    7.7394073    0.1245931 
  190700   -948.86973    40.043058   -908.82668    1434.1971    4887.1938      2.19892    5.5244118   0.12412265 
  190800   -954.81543    38.981414   -915.83401    1396.1729   -2346.2859    2.1900433    6.4605186   0.10167997 
  190900   -949.89903     41.95858   -907.94045    1502.8042   -4687.5106    2.1712855    6.1541919   0.10662868 
  191000   -952.83537    45.196281   -907.63909    1618.7669     2197.857    2.1964601    6.1321272   0.10817956 
  191100   -953.01731    40.439334   -912.57798    1448.3903    6538.3001    2.2104328    5.4769991   0.10893033 
  191200   -952.70399    45.091616   -907.61238    1615.0181   -3993.8748    2.1837872    6.2940903   0.10014839 
  191300   -952.51932    46.581715    -905.9376    1668.3881   -8828.3497    2.1647692    6.4762662   0.09416955 
  191400   -951.82065    40.988523   -910.83213    1468.0603   -1729.3362    2.1867586    6.8928044   0.10935656 
  191500   -952.44747    42.722592   -909.72488    1530.1683    8786.7847    2.2173663     7.231298   0.10608766 
  191600   -946.77125    44.878597   -901.89265    1607.3886    5213.0104    2.1881288    6.8406417   0.11441996 
  191700    -950.2728    40.929482   -909.34332    1465.9456   -17326.939    2.1450162    4.4851768   0.10982041 
  191800   -949.46323    39.094037    -910.3692    1400.2066   -7957.9544    2.1669346     6.481045  0.099758174 
  191900   -947.26095     42.65282   -904.60813    1527.6693    14973.796    2.2171393    5.2899024     0.113451 
  192000   -951.38988    46.029258   -905.36062    1648.6011    5625.2465    2.2001631    7.0688471   0.11145361 
  192100   -952.61354    40.590708   -912.02283     1453.812   -6805.7679     2.173645    5.8731943   0.10112146 
  192200   -950.50299    41.389838   -909.11316    1482.4339   -5829.2957     2.170582     6.350799   0.09856854 
  192300   -949.26391    44.576006    -904.6879    1596.5509    3502.2085    2.1901039    7.3392799   0.11215487 
  192400   -952.39668    39.263811   -913.13287    1406.2873    6807.7726    2.2081271    6.7181435    0.1074742 
  192500   -955.15712    43.810332   -911.34679    1569.1272   -5874.2558    2.1777823    5.9223019   0.10271418 
  192600   -950.69664    43.217064   -907.47957    1547.8785   -6705.6965    2.1695426    7.0721871   0.10193192 
  192700    -954.2069    43.343944   -910.86296    1552.4229    1236.8712    2.1976125    5.4336889  0.096345483 
  192800   -952.31716    38.182006   -914.13515     1367.541    10357.887    2.2139935    6.0265329   0.10295472 
  192900   -950.93037     43.36454   -907.56583    1553.1606   -1519.5279    2.1813138    5.5570028   0.11668965 
  193000   -954.11479    45.053646   -909.06114    1613.6582   -10830.216    2.1662207     6.065633   0.10775533 
  193100   -958.27441    42.594419   -915.67999    1525.5776   -2997.0849    2.1942671    6.8911142   0.09657596 
  193200   -954.58415    46.623663   -907.96049    1669.8905    4665.6748    2.2028123    5.8802468   0.10518679 
  193300   -953.77069    46.092239   -907.67845    1650.8569    2833.6672     2.197494    7.7514968    0.1049169 
  193400   -953.84355    40.958982   -912.88457    1467.0022   -10680.093    2.1690872    6.5840429   0.12407257 
  193500   -949.54371    41.404753   -908.13895    1482.9681   -9047.6493    2.1619814    7.2272844   0.11386826 
  193600   -950.96714    46.032128   -904.93501    1648.7039    10951.897    2.2155981    5.2723832   0.10625873 
  193700   -950.04336    41.229885   -908.81348    1476.7049    11856.199    2.2143475    7.1260941   0.10460325 
  193800   -950.33455    38.361708   -911.97284    1373.9773   -11215.581    2.1605279     6.638631   0.11658031 
  193900   -948.60189    45.050836   -903.55105    1613.5576   -13694.097    2.1482477    6.9621075   0.12116364 
  194000   -950.05656    43.390464    -906.6661     1554.089    7106.7182    2.2038225    5.9258301   0.11150201 
  194100   -951.11607    40.873514   -910.24256     1463.941    7300.2199    2.2065426    5.3378801   0.11302527 
  194200   -954.25106    46.124191   -908.12687    1652.0013   -4857.9494    2.1802243    6.8758605   0.10057519 
  194300   -946.52935    44.896005   -901.63335    1608.0121   -6010.1349    2.1603017    6.5786615   0.12539716 
  194400   -949.39116     38.02964   -911.36152    1362.0838    4387.7104    2.2002648    6.0536653   0.11963891 
  194500   -951.05419    41.482263   -909.57192    1485.7442    4682.8893    2.1987946    5.6522802   0.10139418 
  194600   -947.86905    41.132553    -906.7365    1473.2189   -915.39316    2.1769032    6.5365137   0.10597523 
  194700   -948.11953    47.069865   -901.04966    1685.8719   -7534.4184    2.1590162    4.7005953   0.10640057 
  194800   -951.93499    41.810386    -910.1246    1497.4964    1134.3198    2.1929851    5.9889671   0.10738351 
  194900    -950.4744    40.561024   -909.91338    1452.7488     982.4797    2.1881925    4.4037138   0.10899878 
  195000   -950.95765     41.74773   -909.20992    1495.2523    -3072.433    2.1781126     6.399306   0.10101223 
  195100   -949.11637    41.245973    -907.8704    1477.2812   -429.25576    2.1807939    7.2466723  0.098316973 
  195200   -943.25682    45.268581   -897.98824    1621.3564     5917.833    2.1828942    6.4385275   0.10819509 
  195300   -947.33447    42.720833   -904.61364    1530.1053    7452.6489     2.196292    5.9698921   0.11486396 
  195400   -946.98749    38.179262   -908.80823    1367.4427   -5951.1528    2.1629362    5.1735242   0.13348663 
  195500   -953.53886    42.926361    -910.6125    1537.4666   -9726.9046     2.166183    6.7737668    0.1140954 
  195600   -952.31438    42.275025   -910.03935    1514.1381    10048.075    2.2135044    6.1476078   0.11055312 
  195700   -947.16333    45.191237   -901.97209    1618.5862    6618.2832    2.1950169    7.6980253   0.11119664 
  195800   -949.10028    40.848715   -908.25157    1463.0528   -6768.9037    2.1665869    5.6553908   0.12537697 
  195900   -950.68443    40.043471   -910.64096    1434.2119   -6298.4721    2.1709869    6.1004444    0.1220689 
  196000   -947.35685    40.905625   -906.45122    1465.0911    7162.3407    2.1984181    6.4090079   0.11505571 
  196100   -945.70107    42.908184   -902.79289    1536.8155    4536.7623    2.1901374    6.2298503   0.10988437 
  196200   -951.12363    41.081594   -910.04204    1471.3937   -3545.9697    2.1812351    6.0998317   0.10921845 
  196300   -947.49012    37.872062   -909.61806    1356.4399   -678.02494    2.1803648     6.808482   0.11498181 
  196400   -947.25752    44.909983   -902.34754    1608.5127    3981.9799    2.1845752    5.9808577   0.11917532 
  196500   -949.32887    41.315573    -908.0133     1479.774    4060.7334    2.1919057    5.8196264   0.11878625 
  196600   -949.61948    38.965312   -910.65417    1395.5962   -1398.9229    2.1818311    6.6762652    0.1142185 
  196700   -950.42887    43.250359   -907.17851     1549.071   -1193.6347    2.1792411    5.7621805   0.11272652 
  196800    -948.2286    45.232486   -902.99611    1620.0636    717.87187    2.1809342    7.6506503   0.12273816 
  196900   -951.91039     39.42479    -912.4856     1412.053    6540.4021    2.2024628    5.9215813   0.10442492 
  197000   -952.71505    42.310956    -910.4041     1515.425   -3716.4589    2.1769609    6.3293388  0.097870016 
  197100   -952.77522    44.817581   -907.95764    1605.2032   -6437.4777    2.1716868    5.2330285   0.11026731 
  197200   -951.73887    43.027683   -908.71118    1541.0956    2045.2878    2.1899909    6.3499616  0.099500424 
  197300   -951.00463    35.627978   -915.37665     1276.065    8474.5722    2.2101411    5.5235226   0.11158348 
  197400   -951.17647    41.738579   -909.43789    1494.9245   -1425.5035    2.1845726    7.1564987   0.11319459 
  197500   -947.46341    39.256659   -908.20675    1406.0312   -2647.0726    2.1732307    5.5097396   0.11207448 
  197600   -953.34856    38.555212   -914.79335    1380.9079   -2002.0284    2.1906475    6.8886426   0.11318534 
  197700   -950.87782    38.102265   -912.77556    1364.6849    4446.8314    2.1981907    6.7661804   0.11810543 
  197800   -949.75489    41.959238   -907.79565    1502.8277    1747.9688    2.1874467    8.2203612   0.11916119 
  197900   -954.83811    44.422487   -910.41562    1591.0524   -4460.0029    2.1814429    8.3265019   0.10949894 
  198000   -954.20592     37.70154   -916.50438    1350.3325   -525.58321    2.1937954    6.6938341   0.10260011 
  198100   -949.47166    41.510472   -907.96118    1486.7546   -182.97754    2.1831225     6.524708   0.10881553 
  198200   -950.15466    41.817546   -908.33711    1497.7528    2398.4883    2.1940185     6.487312    0.1150277 
  198300   -954.07657    42.705932   -911.37064    1529.5716   -1497.9655    2.1936292    6.0021518   0.11437962 
  198400   -954.47105    38.725989   -915.74506    1387.0245   -2393.7741    2.1885034    5.9281567   0.10899155 
  198500   -953.73699    34.000065   -919.73692     1217.759    2466.1274     2.201969    7.0353317   0.10501428 
  198600   -956.01324     45.11313   -910.90011    1615.7887    890.51406    2.1990208    7.0415707   0.11020161 
  198700   -951.04813    41.338214   -909.70992    1480.5849     92.25763    2.1876906    4.7602461   0.11023955 
  198800   -952.15756     42.99729   -909.16027     1540.007   -6294.5935    2.1772571     6.170037   0.12251328 
  198900   -948.53552    44.008939   -904.52658    1576.2406    2791.4009    2.1883147     6.549431   0.12980327 
  199000   -947.42663    46.467234    -900.9594    1664.2878    4103.1056    2.1891049    6.3015724   0.12285937 
  199100   -953.14386     44.75294   -908.39092     1602.888   -4190.2104    2.1840425    5.8631158   0.11393445 
  199200   -949.81591    40.469654   -909.34626    1449.4762   -2764.1708    2.1818043    6.5325787   0.10727398 
  199300    -954.2702      45.2458    -909.0244    1620.5405   -1053.9919    2.1934934    6.9099081    0.1044929 
  199400   -948.99617    49.809956   -899.18622     1784.012    1081.2232    2.1867216    6.1143696   0.11765986 
  199500   -950.73802    45.139093   -905.59892    1616.7186     3450.664    2.1979576    6.6689777    0.1156002 
  199600   -952.30236    42.908269   -909.39409    1536.8186   -5175.9946    2.1783472    7.2418117    0.1125701 
  199700   -952.51835    42.237493   -910.28086    1512.7938   -6831.6791    2.1743285    6.9646768   0.10483169 
  199800   -949.36098    46.601497   -902.75948    1669.0966    3644.1782    2.1917345     6.540353   0.12138245 
  199900   -951.60093     47.33678   -904.26415    1695.4318    9156.7445    2.2088365    6.6921386   0.11839948 
  200000   -951.92633    42.365234   -909.56109    1517.3691   -6089.2565    2.1754423    8.0314162   0.11628497 
  200100   -950.70242    40.800075   -909.90234    1461.3107    -9835.406    2.1638924    5.2361185   0.11936244 
  200200   -952.16756    48.725422   -903.44214    1745.1679    1360.9813    2.1915334    6.0908667   0.10973821 
  200300     -947.501    43.519218   -903.98178    1558.7006    9239.7547    2.2035393    6.4211577   0.11186159 
  200400   -951.89725    42.167626   -909.72962    1510.2914   -1590.2652    2.1833717    5.6983003   0.10309085 
  200500   -952.63816    43.421223   -909.21694    1555.1907    -7602.988    2.1740104    6.6636783   0.10563448 
  200600   -949.58102    46.647655   -902.93336    1670.7498   -1486.7798    2.1812557    6.4511675   0.11636062 
  200700   -946.75508    41.003306   -905.75177    1468.5897    4171.4685    2.1877358    5.9856737   0.12048901 
  200800   -951.19407    41.118959   -910.07511     1472.732   -433.52138    2.1849606    6.2636707    0.1175092 
  200900   -952.44519    43.681362   -908.76383     1564.508   -971.36604    2.1862545    7.8425295   0.11161457 
  201000   -947.92479    42.929507   -904.99528    1537.5793    1378.4627    2.1851154    6.9631003   0.10803793 
  201100   -948.16508    48.853967   -899.31112    1749.7719   -1905.5442    2.1703975    7.7627311   0.11127373 
  201200   -952.91669    44.350542   -908.56615    1588.4756   -168.77368    2.1904933    6.4820157    0.1048947 
  201300   -948.73747    39.659739   -909.07773     1420.468    4362.1916    2.1978969    6.2982065   0.10889685 
  201400   -951.83314    41.949671   -909.88347    1502.4851   -758.08777    2.1901739    5.2924692   0.10569702 
  201500   -946.24365     43.93781   -902.30584     1573.693   -1865.9337    2.1706908    6.2254133   0.10999726 
  201600   -947.96798    44.356833   -903.61114    1588.7009    2099.7986    2.1879663    6.4142784   0.11852488 
  201700   -949.56596    41.340673   -908.22529     1480.673    2876.7949    2.1967788    8.1807071   0.11731827 
  201800   -950.10438    39.558419   -910.54596    1416.8391   -1423.8763    2.1855857    6.0912577   0.12231563 
  201900   -950.15076     43.77411   -906.37665    1567.8299    -4257.805    2.1746724    6.4638383   0.11732193 
  202000   -947.83139     44.46203   -903.36936    1592.4687   -69.655653    2.1824852    7.1143956    0.1110208 
  202100   -951.30892    41.969042   -909.33988    1503.1789    3562.8539    2.1965292     5.512485   0.10734255 
  202200   -948.85606    38.585965   -910.27009    1382.0093    2436.3212    2.1882124    6.3762107   0.10209099 
  202300   -944.54738    42.450254   -902.09713    1520.4142   -1588.9646    2.1671655    5.3555381   0.10784909 
  202400   -949.97482    42.386725   -907.58809    1518.1388     1773.054    2.1861008     6.221473  0.097984379 
  202500   -952.87808     42.50686   -910.37122    1522.4416    1328.7114    2.1923274    5.5500817    0.1061966 
  202600   -952.15533    44.470676   -907.68465    1592.7783   -1498.0908    2.1846387    8.3251631   0.10123401 
  202700   -947.31314    46.316813   -900.99633    1658.9003   -2166.1221    2.1662014    5.9846718   0.12319451 
  202800   -950.36991    39.695945   -910.67396    1421.7648    4666.1194    2.1975644    7.0430096   0.10831603 
  202900   -950.85523    41.182544   -909.67269    1475.0094    1620.9691    2.1908038    7.5788709   0.11690807 
  203000   -948.68502    41.584419    -907.1006    1489.4031     -3102.88    2.1732825     6.368748   0.12319606 
  203100   -941.86123    41.320926    -900.5403    1479.9657    2954.6973      2.16951    4.3909391   0.11919794 
  203200   -946.67059    42.400037   -904.27055    1518.6156    4683.4016    2.1908684    5.3533077     0.110267 
Loop time of 143.849 on 1 procs for 200000 steps with 217 atoms

Performance: 360.377 ns/day, 0.067 hours/ns, 1390.342 timesteps/s
100.0% CPU use with 1 MPI tasks x no OpenMP threads

MPI task timing breakdown:
Section |  min time  |  avg time  |  max time  |%varavg| %total
---------------------------------------------------------------
Pair    | 139.97     | 139.97     | 139.97     |   0.0 | 97.31
Neigh   | 0.79047    | 0.79047    | 0.79047    |   0.0 |  0.55
Comm    | 0.86123    | 0.86123    | 0.86123    |   0.0 |  0.60
Output  | 0.06742    | 0.06742    | 0.06742    |   0.0 |  0.05
Modify  | 1.8462     | 1.8462     | 1.8462     |   0.0 |  1.28
Other   |            | 0.3097     |            |       |  0.22

Nlocal:    217 ave 217 max 217 min
Histogram: 1 0 0 0 0 0 0 0 0 0
Nghost:    957 ave 957 max 957 min
Histogram: 1 0 0 0 0 0 0 0 0 0
Neighs:    4158 ave 4158 max 4158 min
Histogram: 1 0 0 0 0 0 0 0 0 0
FullNghs:  8316 ave 8316 max 8316 min
Histogram: 1 0 0 0 0 0 0 0 0 0

Total # of neighbors = 8316
Ave neighs/atom = 38.3226
Neighbor list builds = 1336
Dangerous builds = 4
Total wall time: 0:02:26
