LAMMPS (3 Mar 2020)
Reading data file ...
  orthogonal box = (0 0 0) to (17.469 17.469 17.469)
  1 by 1 by 1 MPI processor grid
  reading atoms ...
  217 atoms
  read_data CPU = 0.000982938 secs
Reading potential file library.meam with DATE: 2012-06-29
Reading potential file LiSi.meam with DATE: 2020-11-07
1 atoms in group Li
216 atoms in group Si
Neighbor list info ...
  update every 1 steps, delay 10 steps, check yes
  max neighbors/atom: 2000, page size: 100000
  master list distance cutoff = 6
  ghost atom cutoff = 6
  binsize = 3, bins = 6 6 6
  2 neighbor lists, perpetual/occasional/extra = 2 0 0
  (1) pair meam/c, perpetual
      attributes: full, newton on
      pair build: full/bin/atomonly
      stencil: full/bin/3d
      bin: standard
  (2) pair meam/c, perpetual, half/full from (1)
      attributes: half, newton on
      pair build: halffull/newton
      stencil: none
      bin: none
Setting up Verlet run ...
  Unit style    : metal
  Current step  : 0
  Time step     : 0.003
Per MPI rank memory allocation (min/avg/max) = 8.895 | 8.895 | 8.895 Mbytes
Step Temp E_pair E_mol TotEng Press Volume 
       0         1800   -951.04357            0   -900.78722   -114161.75    5330.9442 
    3200    1911.2552    -939.3844            0   -886.02179    481.93623    4676.9405 
Loop time of 2.30157 on 1 procs for 3200 steps with 217 atoms

Performance: 360.380 ns/day, 0.067 hours/ns, 1390.356 timesteps/s
99.9% CPU use with 1 MPI tasks x no OpenMP threads

MPI task timing breakdown:
Section |  min time  |  avg time  |  max time  |%varavg| %total
---------------------------------------------------------------
Pair    | 2.1807     | 2.1807     | 2.1807     |   0.0 | 94.75
Neigh   | 0.069921   | 0.069921   | 0.069921   |   0.0 |  3.04
Comm    | 0.015555   | 0.015555   | 0.015555   |   0.0 |  0.68
Output  | 2.6829e-05 | 2.6829e-05 | 2.6829e-05 |   0.0 |  0.00
Modify  | 0.030248   | 0.030248   | 0.030248   |   0.0 |  1.31
Other   |            | 0.005099   |            |       |  0.22

Nlocal:    217 ave 217 max 217 min
Histogram: 1 0 0 0 0 0 0 0 0 0
Nghost:    945 ave 945 max 945 min
Histogram: 1 0 0 0 0 0 0 0 0 0
Neighs:    4139 ave 4139 max 4139 min
Histogram: 1 0 0 0 0 0 0 0 0 0
FullNghs:  8278 ave 8278 max 8278 min
Histogram: 1 0 0 0 0 0 0 0 0 0

Total # of neighbors = 8278
Ave neighs/atom = 38.1475
Neighbor list builds = 118
Dangerous builds = 2
Setting up Verlet run ...
  Unit style    : metal
  Current step  : 3200
  Time step     : 0.003
Per MPI rank memory allocation (min/avg/max) = 9.663 | 9.663 | 9.663 Mbytes
Step PotEng KinEng TotEng Temp Press Density c_msdli[4] c_msdsi[4] 
    3200    -939.3844     53.36261   -886.02179    1911.2552    481.93623      2.15639            0            0 
    3300   -942.63494    49.829772   -892.80517    1784.7217   -15511.619    2.1253105   0.45945718   0.11829537 
    3400   -943.16816    51.043294   -892.12487    1828.1857    3535.8656    2.1754321   0.31285138   0.11266608 
    3500   -936.93494    54.750293   -882.18465    1960.9569    8251.8233    2.1653083   0.76880504   0.13550534 
    3600   -939.00297    49.424386   -889.57858    1770.2023   -5847.5576     2.135849    0.3280191   0.15694282 
    3700   -943.29239    52.146761   -891.14563    1867.7079   -3220.1128    2.1530462   0.18524832   0.14073648 
    3800   -934.96697    54.182105   -880.78487    1940.6065    11118.291    2.1696288    1.3690679   0.15904309 
    3900   -937.43951    50.348287   -887.09122    1803.2931   -5366.0372    2.1470262   0.28390891   0.16142844 
    4000   -939.44718    47.321747   -892.12543    1694.8934   -6976.3701    2.1408337   0.56570005   0.14245002 
    4100    -936.2241    51.512657   -884.71144    1844.9966    11570.918    2.1799876   0.92518071   0.17286133 
    4200   -934.91834    46.714559   -888.20378    1673.1461    4343.7808    2.1626831   0.92116243   0.14365109 
    4300   -943.32231     48.69786   -894.62445    1744.1808   -8527.5463    2.1432844    3.2783356   0.17241164 
    4400   -937.66625    50.204977   -887.46128    1798.1602    2300.7576    2.1650516    1.5100264   0.16610601 
    4500    -935.8016    48.475591   -887.32601    1736.2199     6906.292    2.1720515   0.32949577    0.1689559 
    4600    -943.0591     46.20752   -896.85158    1654.9858   -4441.6733    2.1640477   0.30431293   0.17316028 
    4700   -938.94649    49.546899   -889.39959    1774.5903   -1485.1203    2.1576256   0.37639536   0.16027029 
    4800   -934.55143     48.61736   -885.93407    1741.2975    5610.2959    2.1711783   0.28962407   0.16210237 
    4900   -939.71814    47.161842   -892.55629    1689.1662   -3174.5972    2.1608165    0.2337998   0.16792442 
    5000   -938.62342    44.760912   -893.86251    1603.1735   -1144.3337    2.1649031   0.82261372    0.1603968 
    5100   -933.53166    47.449125   -886.08254    1699.4556    6924.2226     2.168322    2.3080454   0.16597806 
    5200   -938.28259    51.505593     -886.777    1844.7435    4389.7153    2.1730255    4.4921448   0.19664839 
    5300   -942.26561    49.237545   -893.02806    1763.5103   -2934.7735    2.1589391    4.6000174   0.20211167 
    5400   -942.56235    48.199149   -894.36321    1726.3187   -499.26966    2.1702667    1.5725355   0.19472003 
    5500    -935.4141    49.441446   -885.97266    1770.8133    3017.4522    2.1600324    2.7437514   0.20068462 
    5600   -940.59579     53.19805   -887.39774    1905.3612   -7664.4349    2.1455762    1.3391692   0.18095399 
    5700   -937.86206     47.18851   -890.67355    1690.1213    3588.8007    2.1649054    3.2390689   0.20249233 
    5800     -941.831    44.110224   -897.72078    1579.8683    7794.5376    2.1876179    0.5920515   0.17036011 
    5900   -936.46097    50.047436   -886.41354    1792.5176   -7005.9018    2.1302074    0.8771878   0.14451707 
    6000   -936.68215    48.673952    -888.0082    1743.3245    3868.4128    2.1662339   0.31075257   0.15010353 
    6100   -939.81667    50.306837   -889.50984    1801.8085    6742.4001    2.1804561    4.0771868   0.16699769 
    6200    -941.8329    43.545619   -898.28728    1559.6461   -7387.1558    2.1513389    4.1049455   0.17423234 
    6300   -941.00719    49.748308   -891.25888     1781.804   -1731.3899    2.1599596    5.2748803   0.17104158 
    6400   -942.69887    56.106544   -886.59233     2009.533    12530.403    2.1908573    5.1303779    0.1712263 
    6500   -941.36157    48.403111   -892.95846    1733.6239   -6702.5069    2.1482911    5.0499259   0.16528845 
    6600   -942.83604    53.755072   -889.08096    1925.3117   -7786.0671    2.1467011    5.1054556   0.16469953 
    6700   -939.64775    57.012977   -882.63478    2041.9981    5136.8669    2.1688727     4.444925   0.17774454 
    6800   -942.90918    52.437613   -890.47156    1878.1251   -329.95978    2.1621157    6.2803552   0.17113527 
    6900   -943.01209    50.872854   -892.13924    1822.0811   -5094.3256    2.1552428     4.567114   0.18636326 
    7000   -937.77609    55.518384   -882.25771    1988.4672    565.75037    2.1561587    4.8540993   0.20622657 
    7100   -938.51373      50.6363   -887.87743    1813.6087    2502.1099    2.1639341    4.6480635   0.17837916 
    7200    -939.6768     47.91234   -891.76446    1716.0463   -1465.7534    2.1522496    5.1850897   0.18760409 
    7300   -940.31664    55.174969   -885.14167    1976.1673     1109.524    2.1597267    5.6781007   0.17607621 
    7400    -937.5947    50.818677   -886.77603    1820.1407    1502.9538    2.1593676    5.9874274   0.18723874 
    7500    -942.0292     48.07849   -893.95071    1721.9972   -34.835434    2.1682449    6.3465859   0.16623175 
    7600   -939.56354     51.21665   -888.34689    1834.3947    2361.8598    2.1620494    4.1128405   0.14662425 
    7700   -936.86416    48.977588   -887.88657    1754.1996    704.02972    2.1550942    3.2336589   0.17869827 
    7800   -943.62123    45.923829    -897.6974     1644.825    3763.4677    2.1798672    5.1244774    0.1829947 
    7900   -941.15136    51.065154    -890.0862    1828.9686   -2330.5542    2.1562281     5.205462   0.16978246 
    8000   -937.69557    49.719044   -887.97653    1780.7558    222.70447    2.1551557    4.0380506   0.16045313 
    8100    -943.7839    47.106117   -896.67779    1687.1703    3015.0956    2.1807188    4.7667587   0.15621547 
    8200   -941.19422    48.685744   -892.50847    1743.7468   -1651.3541    2.1556044    3.8320304   0.14000017 
    8300   -942.99521    54.698251   -888.29696     1959.093   -5026.5277    2.1544717    4.9217832   0.14763438 
    8400   -940.87914    48.737997   -892.14115    1745.6183    5167.0113    2.1734231    5.5834904   0.14170977 
    8500    -943.2279    45.339534   -897.88837    1623.8977    1615.0211    2.1728999    4.7831657   0.14905626 
    8600   -937.01816     49.97725   -887.04091    1790.0039    -7737.982    2.1351863    4.2230269   0.15904045 
    8700   -938.36763    49.054404   -889.31323    1756.9509     7872.141    2.1748093    5.0871116    0.1672131 
    8800   -944.97228    51.068072    -893.9042    1829.0732    3730.9042    2.1783727    4.5589071   0.16618548 
    8900   -938.59933    54.932711   -883.66662    1967.4905   -11420.971    2.1272283      4.25057   0.18011152 
    9000   -937.23183    49.707942   -887.52389    1780.3582    6122.1534    2.1649442    6.0400031   0.17514725 
    9100   -940.22749    48.901592    -891.3259    1751.4777    7086.5993    2.1800573    3.0989392   0.16771736 
    9200   -933.63483    44.120389   -889.51445    1580.2323    -3450.211    2.1412537    4.8564394   0.17645306 
    9300   -933.42412    51.670866   -881.75325     1850.663   -4262.3481    2.1384837    4.0424641   0.17974199 
    9400   -943.62462    52.691973   -890.93265    1887.2354    11671.389    2.1960202    3.7170271   0.17629615 
    9500   -940.19263    48.514013   -891.67862     1737.596   -3161.4066    2.1532408    4.2442977   0.18038817 
    9600   -937.44935    51.944113   -885.50523    1860.4497   -11525.143    2.1255914    4.0869083   0.20382208 
    9700    -941.3894    46.332646   -895.05675    1659.4674    9357.5033    2.1936996    6.9585573    0.1823713 
    9800   -942.32315    48.695019   -893.62813     1744.079    1657.1203    2.1697239     3.850336   0.17691186 
    9900   -938.13656     49.16833   -888.96823    1761.0313   -6705.0545    2.1400229    6.0868492   0.17224056 
   10000    -936.7687     49.64165   -887.12705    1777.9839     3509.507    2.1601749    4.2049936   0.18830482 
   10100   -942.59163    45.280134   -897.31149    1621.7702    7879.6779    2.1880191      5.59383   0.18567919 
   10200   -942.23411    51.811688   -890.42243    1855.7068   -6129.1215    2.1481109    4.1510771    0.1651694 
   10300   -942.69114    54.714654   -887.97649    1959.6805   -4814.6707    2.1508439    3.9634483   0.18831427 
   10400   -944.78654    48.447807   -896.33873    1735.2248    2427.0903    2.1774623    4.2653881   0.16537599 
   10500   -944.79089      52.5116   -892.27929    1880.7751   -2533.3965    2.1628291    3.9994451   0.18317866 
   10600   -939.03735    51.139629   -887.89772    1831.6361   -3484.9733    2.1491296    5.3816128   0.18497567 
   10700   -943.54942    50.356973   -893.19245    1803.6042   -976.31122    2.1621252    4.9851796   0.16639252 
   10800   -942.40389    46.930105   -895.47378    1680.8662     6919.003    2.1797639    5.0353786   0.15686575 
   10900   -936.74784    51.159805   -885.58803    1832.3587   -5534.0355    2.1376498    4.9843173   0.17249839 
   11000   -940.81887    49.303868     -891.515    1765.8858   -2267.7451    2.1556638    3.7180186    0.1687272 
   11100   -941.97049    49.568424   -892.40206    1775.3612    10230.335    2.1871764    5.2877792   0.18342103 
   11200   -934.66129    52.880414   -881.78088    1893.9846   -5013.9755    2.1329234    4.1051484   0.18583548 
   11300   -936.85085    46.981955   -889.86889    1682.7232   -2324.0191     2.148353     5.451868   0.18264863 
   11400   -938.92441    47.485646   -891.43876    1700.7636    11240.326    2.1862892    5.3078242   0.16173543 
   11500   -940.34609    53.281454   -887.06464    1908.3484   -471.90449    2.1545353    4.1082935   0.16318113 
   11600   -934.81863    49.836482   -884.98215    1784.9621   -13073.512    2.1135178    3.8365062    0.1902978 
   11700   -941.80017    48.238172     -893.562    1727.7164     8398.678    2.1883262    3.5760216   0.15917599 
   11800   -940.36988    50.923333   -889.44655    1823.8891    8973.2102    2.1804179    4.3218271   0.14608654 
   11900   -936.65432    48.954633   -887.69968    1753.3774   -11873.051    2.1174138    5.2351871   0.16588297 
   12000   -944.30483    46.615094   -897.68974    1669.5836   -281.47846    2.1708023    4.5954813   0.15343504 
   12100   -942.52515    50.610044    -891.9151    1812.6682    6371.9257    2.1818306    4.9513487   0.17619517 
   12200   -934.50435    46.103096   -888.40125    1651.2457   -461.72709    2.1456089    4.8656793   0.17466872 
   12300   -943.48936    49.916568   -893.57279    1787.8304   -5242.1517    2.1522654    3.9696351   0.15226243 
   12400   -942.20241    46.518153   -895.68426    1666.1115    7807.6556    2.1837113    5.2831829   0.14090436 
   12500    -944.0699    57.054289   -887.01561    2043.4777   -4772.5714    2.1525471    4.5501719   0.14671546 
   12600   -938.28102    46.545847   -891.73517    1667.1035   -2940.5986     2.148378     4.053202   0.14807958 
   12700   -943.57087    48.465328   -895.10554    1735.8523    2569.3115    2.1754679    5.2444963   0.15525619 
   12800    -938.5378    54.371674   -884.16612    1947.3962   -704.54682    2.1502349    3.8015936   0.16531383 
   12900   -940.52944     50.97336   -889.55608    1825.6809    710.31533    2.1558005      3.95201   0.16524497 
   13000   -941.51318    48.975987   -892.53719    1754.1422    1102.2144    2.1647352     4.524956    0.1647508 
   13100   -936.08553    53.145392   -882.94014    1903.4752   -552.69776    2.1534769    4.2735495   0.18191103 
   13200   -938.41975    50.690056   -887.72969     1815.534     870.2284    2.1598613    5.9790945   0.15143321 
   13300   -942.38627    49.779008   -892.60726    1782.9036   -4705.4499    2.1494805    3.9323455   0.14653612 
   13400   -938.95184    52.214461   -886.73738    1870.1326    3785.5889    2.1659215    4.9846835   0.15777519 
   13500   -935.24082    52.280084   -882.96074     1872.483    7757.0762    2.1639645    4.9106481   0.14547257 
   13600   -942.56617    49.282847   -893.28332    1765.1328   -8799.8877    2.1412875    5.1895237   0.15267528 
   13700   -943.07575    51.570544    -891.5052    1847.0699   -780.42221    2.1621341    4.5157711   0.16707416 
   13800   -940.39342    54.296407   -886.09701    1944.7004    8776.2753     2.179062    4.2557875   0.17372504 
   13900   -942.64007    51.225646   -891.41443    1834.7169   -12347.716    2.1330145    4.2981948    0.1716408 
   14000   -943.17496     47.25069   -895.92427    1692.3484   -4470.1613    2.1558032    3.6118723   0.17172338 
   14100   -940.46612    53.376533   -887.08959    1911.7538    10390.418    2.1826085    3.4187092   0.14800459 
   14200   -939.84969    48.824476   -891.02521    1748.7157   -3936.2636    2.1483385    3.9917052   0.16058752 
   14300   -944.52875    45.925013   -898.60374    1644.8674   -7967.2895    2.1511284    4.5796413    0.1526834 
   14400   -941.16352     50.22332    -890.9402    1798.8172    7055.9373    2.1785081    4.3342039   0.16459989 
   14500   -942.08808    54.134851   -887.95323    1938.9141    2815.2662    2.1661711    4.1064477   0.16424244 
   14600   -943.30666    50.734395   -892.57226     1817.122   -12335.087     2.135241    3.8687726   0.19082385 
   14700   -944.19479    57.470242   -886.72455    2058.3756    -907.6407    2.1568845     6.217564   0.18998713 
   14800   -934.49359    52.038411   -882.45518    1863.8272    7449.1892    2.1607128    5.0976804    0.2109016 
   14900   -938.94157    48.689747   -890.25183    1743.8902   -6322.2866    2.1387693    3.3631048   0.20473568 
   15000   -941.68804     52.09192   -889.59612    1865.7436    179.46231    2.1620751    5.8777952   0.20178756 
   15100   -934.77334    53.319296   -881.45404    1909.7038     9196.927    2.1609771    4.9754844   0.19912167 
   15200   -937.13592    52.178555   -884.95737    1868.8466   -5598.8504    2.1364376    5.9825759   0.21133042 
   15300   -938.61354     47.86261   -890.75093    1714.2651    -2296.604    2.1500638     11.81032   0.18404613 
   15400   -938.84145    51.295923   -887.54553    1837.2339    8558.1344    2.1740787    5.2931732   0.17492757 
   15500   -930.01915    50.612768   -879.40638    1812.7658    165.20332    2.1394527    3.2614654   0.24234484 
   15600   -935.36354    49.827072   -885.53647     1784.625   -7284.3372    2.1350922    2.7723232   0.23843563 
   15700   -939.66623    51.139263   -888.52697     1831.623    1748.9671    2.1601368    7.0038486     0.199108 
   15800   -940.73633    51.669808   -889.06652    1850.6252    5569.7717     2.169275    6.4670306   0.18478078 
   15900    -940.5338    50.007043   -890.52675    1791.0709   -4098.4763    2.1443526    6.3121251   0.16982391 
   16000   -947.09163    47.628094   -899.46354    1705.8656    282.38723    2.1736924     5.232152   0.16698387 
   16100   -943.14384    52.383671   -890.76017    1876.1931    1349.2704    2.1640936    5.1815373   0.17938428 
   16200   -941.69035    53.632891   -888.05746    1920.9357   -4384.3294    2.1435176    5.2464572   0.16460369 
   16300   -941.66442     51.07727   -890.58715    1829.4026   -1457.0151    2.1559366    7.7736248   0.17255028 
   16400    -948.9394    51.923787   -897.01561    1859.7218     6084.085    2.1954644    7.5800509    0.1656292 
   16500    -940.0662    51.808307    -888.2579    1855.5857   -6163.4431    2.1433883     6.503708   0.16015699 
   16600   -937.76123    47.493254   -890.26798    1701.0361   -7583.5173    2.1351897    7.6949753   0.20017509 
   16700    -941.5471    48.069615   -893.47749    1721.6793    20079.559    2.2106183    6.8458741   0.17721318 
   16800   -945.00684     49.56502   -895.44182    1775.2393    2347.6223    2.1741693    7.6349808    0.1705691 
   16900    -934.7725    48.489091    -886.2834    1736.7034   -27000.627    2.0861788    7.8007315   0.17899802 
   17000   -938.77087    49.088319   -889.68255    1758.1656    9590.2747    2.1868481    6.6467916   0.17028276 
   17100   -940.69884    48.782758   -891.91609    1747.2215    10737.514    2.1888095    7.7060203   0.17221365 
   17200     -936.615     53.28461   -883.33039    1908.4615   -11393.742    2.1200063    9.7076785   0.16839563 
   17300   -940.79507    52.939577    -887.8555    1896.1037   -2039.9809    2.1499478    8.4078588    0.1736317 
   17400   -935.76648      44.6202   -891.14628    1598.1337    11482.408     2.182857    6.9117337   0.16428615 
   17500    -938.5567    49.308319   -889.24838    1766.0452   -2506.1782    2.1501245    7.0913187   0.17315781 
   17600   -936.12513    53.233564   -882.89156    1906.6332   -7393.7839    2.1286772    6.9093932   0.18571467 
   17700   -947.32453    53.051025    -894.2735    1900.0953    9850.9355    2.1967169    6.1894872   0.16007073 
   17800   -943.15393    52.259673   -890.89426     1871.752   -3227.5448    2.1526504    5.8304809   0.15884971 
   17900   -935.64321    47.483357   -888.15985    1700.6816   -6404.7895    2.1341498    7.4314973    0.1596568 
   18000   -943.14852    46.281544   -896.86698    1657.6371    6785.0168     2.189241    6.6245015   0.15293416 
   18100   -945.92874    51.418721   -894.51002    1841.6321    817.16787    2.1738368    6.3232671   0.13980842 
   18200   -941.66105    52.317647    -889.3434    1873.8284   -9767.1934    2.1376604     9.626568   0.16107537 
   18300   -941.80089    52.740609   -889.06028    1888.9774   -223.60984    2.1617709    7.9349389   0.15925983 
   18400   -944.95791    47.420537   -897.53737    1698.4316    7412.8885    2.1930504    7.4771364   0.16143714 
   18500   -936.56687    48.667767    -887.8991    1743.1029    -9778.861    2.1315087    7.3429779    0.1948135 
   18600   -940.60692    51.618287   -888.98863    1848.7798   -401.55319    2.1553503    5.5006329   0.16882466 
   18700   -942.01546    49.098755    -892.9167    1758.5394    10884.544    2.1894215    7.7524021    0.1597124 
   18800   -942.30908    50.244506   -892.06458     1799.576   -6265.2513    2.1471064    6.6318133   0.14750409 
   18900   -937.74397     52.77564   -884.96833     1890.232   -8177.2722    2.1262042    7.6224596   0.15242893 
   19000   -943.72129    53.519679   -890.20161    1916.8808    8390.9412    2.1874839    7.8300392    0.1600631 
   19100   -941.24857    49.515845   -891.73273     1773.478    4939.5688    2.1769336    6.8519271   0.16469777 
   19200   -932.85539    49.314705   -883.54068    1766.2739   -15709.606    2.1047203    8.1080541   0.19894188 
   19300   -936.90511    51.930245   -884.97486     1859.953    6145.3402    2.1689509    8.5515821   0.18564171 
   19400   -942.25902    52.831717    -889.4273    1892.2405    17217.321    2.2043981    5.6474429   0.17479592 
   19500   -936.36509    45.227893   -891.13719    1619.8991   -14157.433    2.1157095    6.5694467    0.1735402 
   19600   -939.68607    53.464355   -886.22171    1914.8993   -7385.0407    2.1389784    7.5041133   0.17306435 
   19700   -944.80501    48.630799   -896.17421    1741.7788    9914.5109    2.1952934    7.6549252   0.17060889 
   19800    -939.9889    46.032363   -893.95653    1648.7123    310.45244    2.1584789    8.7047651   0.18250055 
   19900   -942.14241     53.47026   -888.67214    1915.1108   -4477.0101    2.1526611    7.7919772   0.18141138 
   20000    -940.3772    49.022035   -891.35516    1755.7915    2317.7066    2.1709982    7.2566886   0.18867958 
   20100   -943.53484     44.96754    -898.5673    1610.5742    2849.7054    2.1766603    7.0852282   0.18418417 
   20200   -936.48979    48.010297   -888.47949    1719.5547   -4182.3935    2.1429585    6.8386658   0.19508255 
   20300   -938.65006    49.381568    -889.2685    1768.6687    5311.1763    2.1688313    6.0533416   0.19094878 
   20400   -945.82537    50.169739   -895.65564    1796.8981    5217.7076    2.1860663     6.383018   0.16394557 
   20500   -937.03248     49.60886   -887.42362    1776.8094   -6813.1838    2.1442249    8.9862706   0.16955817 
   20600   -938.66183    51.584516   -887.07732    1847.5703    736.97306    2.1594747    7.5932108   0.16205968 
   20700   -943.07367    52.136381   -890.93729    1867.3361    5155.9072    2.1784138     7.506534   0.15367826 
   20800   -945.11001    49.525866   -895.58414    1773.8369   -6822.9165    2.1590976    7.2973168   0.17857563 
   20900   -939.27044    54.546515   -884.72392    1953.6584   -4570.6357    2.1460553     6.008933   0.18278248 
   21000   -938.54606    51.510452   -887.03561    1844.9176    14673.208    2.1935728    5.1682675   0.17193215 
   21100   -941.28607    48.798012   -892.48806    1747.7678    -5182.697    2.1510815      6.74312   0.18212421 
   21200   -938.77327    50.971127   -887.80214    1825.6009    -10288.28    2.1305416    7.7360794   0.16595626 
   21300   -934.84853    54.824987   -880.02355    1963.6322    10082.741    2.1743092    7.6180988   0.17427143 
   21400   -939.68151    49.947034   -889.73447    1788.9216    3805.2254      2.17566    8.2734875   0.17011481 
   21500   -941.50893    49.574036   -891.93489    1775.5622   -10325.133    2.1361083    7.2065806   0.16250822 
   21600   -938.75301    54.620969   -884.13204     1956.325    1231.8905    2.1589036    7.7204203    0.1721087 
   21700   -943.70286    54.944902   -888.75796    1967.9271    957.47998    2.1683911    6.0242877   0.16595659 
   21800   -939.76715    46.126751    -893.6404     1652.093   -817.79958     2.157246    6.4522472   0.17479863 
   21900   -939.99753    51.174801   -888.82273    1832.8958     476.3977    2.1613755     7.427327   0.17817586 
   22000   -941.18983     54.74939   -886.44044    1960.9246    450.32555    2.1577514     10.45612   0.16087829 
   22100    -947.7781    50.442289   -897.33581    1806.6599    863.69565     2.177915    6.8534694    0.1573067 
   22200    -941.0667    49.318853   -891.74784    1766.4225    -4777.346    2.1510879    7.2845865   0.15686002 
   22300   -939.49275    51.676869   -887.81588     1850.878     1008.213    2.1601683    7.2773469   0.18016952 
   22400    -944.4869    48.931226   -895.55567    1752.5391    1727.7115    2.1747399    5.8251402   0.17374513 
   22500   -939.82823    44.885403   -894.94282    1607.6323   -1203.5806    2.1593788    8.0192915   0.17670355 
   22600   -936.48628    48.408494   -888.07779    1733.8167    712.29877    2.1487085    5.0070885   0.18229076 
   22700   -939.99627     48.69381   -891.30246    1744.0357    3205.1528    2.1712159    6.3771014    0.1835082 
   22800   -942.01108    44.425386   -897.58569    1591.1562    3312.6566    2.1708127    6.6655786   0.17438266 
   22900   -935.80692    49.235241   -886.57168    1763.4278   -6502.5256    2.1322103    8.2635171   0.17872033 
   23000   -940.46996    51.762546   -888.70741    1853.9467    8343.8363    2.1799109    7.3180593   0.17860145 
   23100   -940.93169    47.292757   -893.63893     1693.855    2327.2917    2.1700034    7.5469501   0.17320302 
   23200   -934.23449    49.769797   -884.46469    1782.5736   -9898.8342    2.1201979    7.4517307   0.18864013 
   23300   -935.91642    49.665236   -886.25118    1778.8286    7041.0403     2.170203     6.546839   0.18382876 
   23400   -938.71075     47.39471   -891.31604    1697.5066     8227.705    2.1761107    6.7276961    0.1802475 
   23500   -941.92158    51.425688   -890.49589    1841.8817   -9367.7457    2.1388044    8.1186734   0.18104635 
   23600   -936.92622    55.026411   -881.89981    1970.8465   -1953.7025    2.1430036    6.3659677   0.17831771 
   23700   -941.02126    49.145101   -891.87616    1760.1993    11544.847    2.1906588    6.7086347   0.16248619 
   23800   -938.53133    46.595433    -891.9359    1668.8794   -5248.3876    2.1411709    7.1066099   0.16583502 
   23900   -937.69352    51.188912   -886.50461    1833.4012   -5810.5129    2.1375948    6.2948043   0.17522922 
   24000   -945.63476    50.415871   -895.21889    1805.7137    7686.9323    2.1885688    6.5168818   0.14218182 
   24100   -941.58674    47.521258   -894.06548    1702.0391   -1330.6826    2.1585613    7.0366164   0.14581273 
   24200   -938.63781    49.801122   -888.83668    1783.6956   -4744.9344    2.1422373    7.4434461   0.17985708 
   24300   -935.26994    45.471945   -889.79799    1628.6402     7045.753    2.1679525    6.2369239   0.18442474 
   24400     -941.372    43.252183   -898.11982    1549.1364    7531.9928    2.1792458    7.7066497    0.1528904 
   24500   -938.74889    49.664302   -889.08459    1778.7952   -5063.0965    2.1426729    6.5330405   0.15761853 
   24600   -940.38283    51.229702   -889.15312    1834.8622   -2030.4407    2.1551709    7.2658302   0.17779175 
   24700   -943.94039    47.049061   -896.89133    1685.1267     3234.427    2.1778357     5.775161   0.15301592 
   24800   -940.70795     50.01991   -890.68804    1791.5318   -1459.0602    2.1557634    7.1522839     0.166877 
   24900   -939.90838    52.052789   -887.85559    1864.3421   -1639.2106    2.1539079    7.5205338   0.16011951 
   25000   -943.24875    50.812411   -892.43634    1819.9163    -1549.404    2.1604628    7.6368856   0.14981154 
   25100   -942.89059    47.210556   -895.68004    1690.9109    633.31765    2.1697099     7.068998    0.1682839 
   25200   -939.01616    54.729193   -884.28697    1960.2012   -6507.3735    2.1405998    8.2701706   0.16946502 
   25300   -937.64517    48.934701   -888.71047    1752.6635    3472.2454    2.1651833    6.5662726   0.16787778 
   25400   -940.24268    47.690132   -892.55255    1708.0876    3661.5461    2.1693413    7.4803542   0.18893025 
   25500   -936.38605    51.406447   -884.97961    1841.1925   -4676.1168    2.1382872    7.3130947     0.182716 
   25600   -938.50337    53.472885   -885.03048    1915.2048    2146.5642    2.1565714    8.8373047   0.16903515 
   25700   -943.60554    52.154353   -891.45119    1867.9798     1440.124    2.1726666    6.9422516   0.16144716 
   25800   -945.35429    54.542829   -890.81146    1953.5263    -7781.647    2.1483637    5.7143108   0.16904657 
   25900   -933.86538      52.2046   -881.66078    1869.7794   -962.26534    2.1375235    5.6016184   0.16776732 
   26000    -944.3783    52.550706   -891.82759    1882.1757    11126.896    2.1929654    6.5477712   0.15599977 
   26100   -940.97115     49.07733   -891.89382     1757.772   -4571.4302    2.1524824    6.4528219   0.18461707 
   26200   -933.87672    47.556284   -886.32043    1703.2936   -5131.2595    2.1367359     5.349196   0.17994175 
   26300   -943.87614    48.431944   -895.44419    1734.6566    8842.2557    2.1932019     6.555382   0.18228203 
   26400   -940.50554    46.441707   -894.06383    1663.3735    2302.8473    2.1670447    6.1000621   0.17952574 
   26500   -940.87165    51.587521   -889.28413    1847.6779   -7813.5276    2.1408595    5.8823656    0.1854376 
   26600   -940.18727    52.540313   -887.64696    1881.8035    2470.9917    2.1702686    6.5705723    0.1800984 
   26700   -944.32453    46.775612   -897.54892    1675.3328    8637.4694    2.1921609    7.1679324   0.16415615 
   26800   -938.72452    48.769746   -889.95478    1746.7554   -11175.973    2.1312848    7.0751451   0.17232321 
   26900    -936.2374    47.945384   -888.29202    1717.2298    2488.8611    2.1631923    8.9688141   0.18395879 
   27000   -943.12936    49.936497   -893.19286    1788.5442    9971.6416    2.1975214    6.7237191   0.17119902 
   27100    -943.7189    47.386977   -896.33192    1697.2297   -9014.2413    2.1500069    7.4905457   0.17444865 
   27200   -934.86391    48.609414    -886.2545    1741.0129   -7628.2615    2.1322768    7.2221369   0.19286087 
   27300   -944.66857    55.905885   -888.76269    2002.3461    9725.4074     2.195246    8.3074187   0.18022949 
   27400   -942.18244    48.717459   -893.46498    1744.8827   -467.75367    2.1640635    9.4579566   0.17770577 
   27500   -938.89231    54.685516   -884.20679    1958.6369   -7489.5453     2.138282    6.7322607   0.16687534 
   27600   -940.61782    52.209094   -888.40872    1869.9404    1215.0066     2.166035    7.5836384   0.17243393 
   27700   -942.35989    49.371137   -892.98875    1768.2951    903.02772    2.1693691    7.4394079   0.17331526 
   27800     -940.357    52.845367   -887.51164    1892.7294   -723.97431    2.1545368    7.9623266   0.16936905 
   27900   -934.85745    50.983523   -883.87392    1826.0449   -848.74469     2.145382    9.5156958   0.17375169 
   28000   -942.55567     47.87802   -894.67765    1714.8171    4438.9091    2.1837224    7.5971995   0.18204464 
   28100   -940.83071     50.49161    -890.3391    1808.4264   -3196.5808    2.1591953    6.8071276   0.19383708 
   28200   -941.36306    54.464562   -886.89849    1950.7231   -5979.3319    2.1445459    7.9314095    0.1681233 
   28300   -941.14354    44.056319   -897.08723    1577.9376    10553.176    2.1886211    7.7737366   0.16375883 
   28400   -938.79717    47.592851   -891.20432    1704.6033    150.09518    2.1596643    7.9845519   0.17137687 
   28500   -937.44749    49.034019   -888.41347    1756.2207   -4712.9345    2.1434029    8.1252174   0.17736718 
   28600   -942.24445    47.804543    -894.4399    1712.1854    5235.7349    2.1786095    6.6327818   0.17382724 
   28700   -939.64669    44.208724   -895.43797    1583.3962    8872.1329    2.1845615    6.6754436   0.16786503 
   28800   -936.52264    48.807695   -887.71494    1748.1146   -7044.4922    2.1313719    7.6711288   0.18248583 
   28900   -938.30622     47.21642    -891.0898    1691.1209   -1288.9147    2.1597417    5.2012297    0.1770604 
   29000   -942.74627    48.514949   -894.23132    1737.6295    14697.575    2.2049676    7.5658216   0.15902326 
   29100   -933.66637    49.994094   -883.67227    1790.6071   -6441.8541    2.1272844    8.1293393   0.16361604 
   29200   -938.34973    48.608376   -889.74136    1740.9757   -6745.7312    2.1439682    7.7730097   0.15712739 
   29300   -938.11115    46.762777   -891.34837    1674.8731    14196.177    2.1956255    4.9733555   0.16403092 
   29400   -935.14065    48.196486   -886.94416    1726.2233    2989.6353    2.1580065    6.5549101   0.17595854 
   29500   -933.54418    48.888252   -884.65593    1750.9999   -9642.5393    2.1222153    6.3784868   0.17846661 
   29600   -942.74773    50.286269   -892.46146    1801.0718    6406.3409    2.1837753    5.6910386   0.17201388 
   29700   -938.21957    48.127785   -890.09178    1723.7627    7329.2817    2.1755935      6.44129   0.17792918 
   29800   -936.55045    51.806464   -884.74399    1855.5197   -7178.0787    2.1321127    7.7425427   0.16812614 
   29900   -945.90116    50.516059    -895.3851    1809.3021   -24.473555    2.1726453    6.4982924   0.15147099 
   30000   -939.38046    48.508342   -890.87212    1737.3929    3887.0336    2.1677855    6.9290643   0.16703169 
   30100   -939.27851    52.900837   -886.37767    1894.7161   -3315.5246    2.1462535    7.0303177   0.15949954 
   30200   -943.89965    48.115706   -895.78395    1723.3301   -518.09822    2.1676379    6.9201399     0.170167 
   30300   -938.85122    46.393631   -892.45759    1661.6516     4157.236    2.1687918    10.312845   0.18314952 
   30400   -936.72653    49.817386   -886.90914    1784.2781    3363.9132    2.1581688     7.359504   0.18122771 
   30500   -943.17366    48.771148   -894.40251    1746.8056   -636.59314    2.1618693    8.3339028   0.16367548 
   30600    -943.9273    50.243306     -893.684     1799.533    721.74782    2.1687874    7.2354304   0.15305934 
   30700   -935.65282    49.691184   -885.96163     1779.758    4037.2512    2.1617849    5.8002064   0.16461596 
   30800   -944.11277    51.697149   -892.41563    1851.6044   -5364.7433     2.152343    6.9357865   0.15353791 
   30900     -941.923    47.127709   -894.79529    1687.9436    865.60706     2.165966    6.8557898   0.16987046 
   31000   -935.91236    51.953701   -883.95866    1860.7932    4443.8721     2.161587    6.8841478   0.17722297 
   31100   -938.72151    49.356339   -889.36518    1767.7651   -1536.3306    2.1567952    8.4881686   0.17616037 
   31200   -939.49873    45.614122    -893.8846    1633.7324   -2028.5684    2.1568947     8.350618   0.17254232 
   31300   -934.78199    49.190303   -885.59169    1761.8183    7303.1827    2.1721397    8.2272469   0.18604292 
   31400   -938.52823     52.23372   -886.29451    1870.8224     1406.788    2.1615935    7.1948395   0.16206467 
   31500    -940.1063    46.148517   -893.95779    1652.8725   -7846.0597    2.1433572    7.8605786   0.15971134 
   31600   -939.04412    50.561316   -888.48281     1810.923    3901.0002    2.1687647    5.7577885   0.16396479 
   31700   -934.88202    51.494645   -883.38737    1844.3514    8920.8568    2.1656986    6.8427493   0.16314304 
   31800   -940.55167    46.561418   -893.99025    1667.6611   -6171.3579    2.1461833    6.9811992   0.16418086 
   31900   -940.98051    49.007377   -891.97313    1755.2665   -4017.4207    2.1516571    7.0645318   0.15870558 
   32000   -936.79582    51.438195   -885.35763    1842.3296    11715.707     2.180494    6.9049371   0.16654431 
   32100   -942.27166    48.633546   -893.63811    1741.8772   -3950.7707     2.153095    7.7605983   0.16305522 
   32200   -943.34198    48.290126   -895.05186    1729.5772   -9910.4073    2.1432484    6.8590735   0.15279357 
   32300   -937.67818     51.19596   -886.48222    1833.6536    9663.3645    2.1755054    5.7518341   0.15964573 
   32400     -939.445    49.018926   -890.42607    1755.6802    3022.4914    2.1651967    7.6928322   0.15715335 
   32500   -944.44564    46.613837    -897.8318    1669.5386   -8988.8145    2.1480048    6.9166196   0.16068163 
   32600   -942.34686     52.82735   -889.51951    1892.0841    2432.0169    2.1647587    7.2609718    0.1564751 
   32700   -940.20468     52.58733   -887.61735    1883.4874    2347.9816    2.1692078    7.0887192   0.16510673 
   32800   -942.33751    47.544688   -894.79282    1702.8783   -5288.0084    2.1543591     7.457366   0.18551311 
   32900   -940.71142    52.259907   -888.45152    1871.7603    234.03919    2.1567432    5.9742064   0.15426964 
   33000   -935.36079    49.336646   -886.02414    1767.0597    6046.1539    2.1588863    7.9500553   0.16728974 
   33100   -940.62179    46.729515   -893.89227    1673.6818     121.7654    2.1613781    6.4510888   0.15726869 
   33200   -941.15448    52.941055   -888.21343    1896.1566   -2195.5108    2.1538463    7.0220351   0.15738796 
   33300   -936.88081    52.422412    -884.4584    1877.5807    2477.0839    2.1538059    5.1084541   0.16846589 
   33400   -937.69347    44.116696   -893.57678    1580.1001    3746.0499    2.1659821    5.7709289   0.17791639 
   33500   -938.13272    48.925506   -889.20722    1752.3342   -708.56274    2.1559961    6.2253168   0.17811093 
   33600   -938.97951    55.406796   -883.57271    1984.4705   -1530.5039    2.1477703    8.4051587   0.17810832 
   33700   -940.02662     45.94793   -894.07869    1645.6882     3781.008    2.1734083    7.5489337   0.16764581 
   33800   -936.71817    46.445154   -890.27302     1663.497    241.04209    2.1561291    8.3275766   0.17369692 
   33900   -933.69539    47.959619   -885.73577    1717.7396   -593.41637    2.1452445    6.9143472   0.19093549 
   34000   -939.54921    43.344403    -896.2048    1552.4393    8224.2957    2.1826786     8.340444   0.17779744 
   34100   -940.10376    48.790797   -891.31296    1747.5094   -2714.1529    2.1547543    6.3139197   0.18094025 
   34200   -934.91153    47.081489   -887.83004    1686.2882   -1221.2429    2.1459018      6.64375   0.18722431 
   34300   -942.88837    47.494269    -895.3941    1701.0725    5521.6828    2.1806725    6.6759267   0.17057919 
   34400   -941.81796    47.795759    -894.0222    1711.8708    943.42534    2.1680843    6.2450482   0.16434472 
   34500   -937.05871    49.092094   -887.96661    1758.3008   -6558.2552    2.1352262    8.4129825   0.17624142 
   34600   -940.54442    48.758838   -891.78558    1746.3648    1856.0842    2.1652004    8.7960245   0.15802791 
   34700   -947.91214    52.100571   -895.81157    1866.0535    8012.9581    2.1924858    7.6241916   0.15733667 
   34800   -938.71001    53.386752   -885.32326    1912.1198   -11364.909    2.1218166     6.843389   0.16394772 
   34900   -940.45298    49.459614   -890.99337     1771.464    -4075.916    2.1526418    7.3517453    0.1746247 
   35000   -941.60256    49.706179   -891.89638    1780.2951    12942.963    2.1938103    6.8612647   0.17263228 
   35100   -935.07271    52.398934   -882.67378    1876.7398   -3312.9055    2.1390118    6.2602921   0.18263393 
   35200   -938.32686    50.390675   -887.93619    1804.8112   -8569.5517    2.1364987    8.0399103   0.16512908 
   35300   -941.70732    49.728433   -891.97888    1781.0921    5133.8927    2.1776991    7.0754644   0.15825644 
   35400   -940.91518    51.729402   -889.18577    1852.7596    4349.3605    2.1730026    8.2736982   0.15763699 
   35500   -937.51178    54.108139   -883.40364    1937.9573   -11706.099    2.1218241    7.9092172   0.17415913 
   35600   -942.44453    48.671264   -893.77327    1743.2282    2464.5988    2.1740022    6.6758704   0.16647757 
   35700   -940.27098    50.439048   -889.83194    1806.5438    7804.4851    2.1765979    5.2477456    0.1674754 
   35800   -934.62162    48.435359   -886.18626    1734.7789   -4509.2813    2.1369716    7.4441212   0.17906862 
   35900   -944.72798    48.051542   -896.67644     1721.032    97.881832    2.1675888     7.101984   0.16042901 
   36000   -944.03022    51.396932   -892.63329    1840.8517    1075.1583    2.1693765    7.3598344   0.16141715 
   36100   -940.68169    53.161784   -887.51991    1904.0623   -795.78408    2.1573275    6.2950253    0.1651406 
   36200   -941.18916    47.940588   -893.24858     1717.058   -3178.3704    2.1580752    7.3186759   0.15966292 
   36300   -943.67297     47.95461   -895.71836    1717.5602    1038.4676    2.1749202    6.3263096   0.16154483 
   36400   -942.17585    55.037709   -887.13814    1971.2512   -752.31655    2.1602399    6.4262104   0.15581523 
   36500   -945.08545    53.523176   -891.56227     1917.006   -5830.5987    2.1533464    5.4571069   0.17157078 
   36600   -945.44513    48.887265   -896.55787    1750.9645     910.2325    2.1762217    5.8843243   0.17115347 
   36700   -941.71379    55.880493    -885.8333    2001.4366    -2601.062    2.1566256     7.282376   0.17345873 
   36800   -942.13427    52.726352   -889.40792    1888.4667   -1778.2335    2.1595576    8.1442286   0.16527817 
   36900    -941.8817    47.515417   -894.36628    1701.8299   -291.47878    2.1656806    7.5375089   0.15365651 
   37000   -935.10152    49.387047   -885.71447    1768.8649    3193.0106    2.1594191    8.0099632   0.16296036 
   37100   -939.53105    53.251959   -886.27909    1907.2921    880.58112    2.1597432     5.665833   0.15212904 
   37200   -941.79926    48.439375   -893.35988    1734.9228   -6216.0583    2.1492109    7.6965838   0.15595982 
   37300   -940.17003    52.403839   -887.76619    1876.9155    3521.2877    2.1665371    7.2231178   0.16942212 
   37400   -939.29462    56.914353   -882.38027    2038.4657    2604.8014    2.1594703    7.4876229    0.1806451 
   37500   -943.56238    50.548079    -893.0143    1810.4489   -7132.5747    2.1483612    8.5742245   0.17040542 
   37600   -940.10731    49.201178   -890.90613    1762.2078    -936.3276    2.1582806     10.01812   0.15640623 
   37700   -942.61701     58.29964   -884.31737    2088.0817    7068.5068    2.1742008    7.4343436   0.14097756 
   37800   -940.01792    48.702508   -891.31541    1744.3472   -7422.5643     2.143195    8.0559988   0.16676187 
   37900   -941.04039    46.487067   -894.55332    1664.9981   -8531.5859    2.1412073    8.1976341   0.14773241 
   38000   -944.89043    58.163465   -886.72696    2083.2044    11128.221    2.1878913    6.7051603   0.15741785 
   38100   -943.04302    52.481979   -890.56104    1879.7142   -1238.7656    2.1586751    7.7669921   0.17861577 
   38200   -943.17971    43.680691   -899.49902    1564.4839   -9505.3351    2.1457777    9.8106903   0.19300071 
   38300   -945.71638    54.581622   -891.13476    1954.9157      2362.75    2.1742968    8.1317807   0.18901111 
   38400   -939.93371     52.13732   -887.79639    1867.3697    5299.5381     2.171814    6.6044965   0.17078824 
   38500   -942.12081    47.290884   -894.82992    1693.7879   -7563.1637    2.1476896    6.1206841   0.15490242 
   38600   -941.31572    46.615392   -894.70033    1669.5943     1270.361    2.1683638    6.1239441   0.17333344 
   38700   -938.25897    51.633759   -886.62521     1849.334     4704.638     2.166686    4.8401153   0.16448622 
   38800   -943.51338    51.656734   -891.85665    1850.1569   -4840.5349    2.1503423    8.5431307    0.1662017 
   38900    -944.3052    49.933447   -894.37175     1788.435   -1487.0192    2.1649167    5.4041446   0.17989023 
   39000   -935.95283    52.387469   -883.56536    1876.3291   -239.09117    2.1513903    5.2208219   0.19884238 
   39100   -939.28173    50.515097   -888.76663    1809.2676    570.55779    2.1640414     4.693545   0.19592093 
   39200   -943.17966    50.013974   -893.16569    1791.3192    -2928.383    2.1569834    6.8019673   0.16890406 
   39300   -934.58723    49.315085   -885.27215    1766.2875    4277.2883    2.1557487    7.0724593   0.15431176 
   39400   -932.05068    46.659751   -885.39093    1671.1831    7265.6286    2.1631455    8.0807493   0.16689653 
   39500   -942.35282    49.447389   -892.90544    1771.0261   -8220.8638    2.1474073    5.8842961   0.15131065 
   39600   -939.55595    50.766851    -888.7891    1818.2845    1298.7778    2.1613993    7.2852511     0.165704 
   39700   -933.01958    52.302936   -880.71665    1873.3015    9949.0693    2.1682709     7.489323    0.1877046 
   39800   -938.43693    47.271191   -891.16574    1693.0826    -3872.742    2.1473273    6.8495574    0.1792352 
   39900   -939.59035    47.525642   -892.06471    1702.1961   -8145.1291    2.1421234    7.6671726   0.18469035 
   40000   -935.76948    50.604795   -885.16468    1812.4802    13336.617    2.1900357    7.1609597   0.19780785 
   40100   -940.11801    48.161605   -891.95641     1724.974    54.710046    2.1635158     6.599479     0.157538 
   40200   -941.94686    45.493488   -896.45337    1629.4117   -10379.739    2.1412039     8.320135   0.16895726 
   40300   -937.52635    49.285355   -888.24099    1765.2227    6614.9958    2.1744544    10.297935   0.16378145 
   40400   -937.99364    50.663621   -887.33002    1814.5872     6144.698    2.1732616    8.7268817   0.16967264 
   40500   -941.27515    46.724276   -894.55087    1673.4941   -9842.2502    2.1420325     10.23407    0.1730474 
   40600   -944.69891    49.917917   -894.78099    1787.8788   -469.74879    2.1755023    19.811262    0.1894916 
   40700   -942.34812    55.608742   -886.73938    1991.7035    2225.2297    2.1692035    20.010681    0.2279858 
   40800   -938.42665    47.824271   -890.60238     1712.892    -5188.608    2.1460652    15.863695   0.20691128 
   40900   -947.41798    51.295708   -896.12227    1837.2262   -3620.9638    2.1659713    18.775664   0.17583312 
   41000   -938.43899    51.338945   -887.10004    1838.7748    5586.4165    2.1705461    14.185018   0.18076809 
   41100   -937.53748    50.384524   -887.15296    1804.5909    2602.7423    2.1558653     20.05607   0.18600577 
   41200    -941.4492    49.586421   -891.86278    1776.0058    -5616.989    2.1480351    14.673275   0.18844524 
   41300   -934.86172    45.365519    -889.4962    1624.8284    8298.5504     2.168485    16.111179   0.19062345 
   41400   -933.32796    51.180383   -882.14758    1833.0957    2176.2083    2.1480344    19.239179   0.19424849 
   41500   -935.86042    45.329256   -890.53116    1623.5296    -985.2431    2.1493686    15.266093   0.19807633 
   41600   -940.43216     51.11397   -889.31819     1830.717    890.99057    2.1616208    19.997842   0.20752041 
   41700   -932.93665    53.039286   -879.89736    1899.6749    250.26546    2.1437531    14.499925   0.21311845 
   41800   -934.79102    45.621733   -889.16928     1634.005    3647.6485    2.1598836    13.638894   0.20503465 
   41900   -941.98155    51.913485   -890.06807    1859.3528   -5851.0732    2.1500669     12.86242   0.18818686 
   42000   -935.76007    49.799912   -885.96016    1783.6522    1723.6619    2.1564841    19.639911   0.18416193 
   42100   -934.48028    50.749822   -883.73046    1817.6746    2683.2115    2.1573142    10.484146   0.19130006 
   42200    -941.5898    47.292818   -894.29698    1693.8572    3852.5164    2.1782493    18.110348   0.20987506 
   42300   -941.07028    50.184618   -890.88567     1797.431   -12407.748     2.129159     17.71497    0.1929561 
   42400   -943.28677    54.329553   -888.95721    1945.8876    501.65555    2.1669448    19.829818   0.20910302 
   42500    -942.9008     54.06082   -888.83998    1936.2625    18608.715    2.2097353    16.077115   0.18399759 
   42600   -930.67949    53.817443   -876.86205    1927.5456   -16686.266    2.0980161    19.347166   0.20770986 
   42700   -936.95325    49.561542   -887.39171    1775.1147   -2126.7399    2.1487864    7.0673935   0.18656852 
   42800   -936.64823     48.33959   -888.30864    1731.3488    12205.062    2.1851338    8.3992598   0.18072363 
   42900   -941.31273    50.760053   -890.55268     1818.041   -7143.6852     2.144704    11.285567   0.17971427 
   43000   -940.17107    59.137786   -881.03328     2118.101   -7114.4837    2.1372469    17.356606   0.19090806 
   43100   -942.28353    56.747917   -885.53561    2032.5046    7935.5441    2.1763095    18.513715   0.18510165 
   43200   -941.39088    51.057111   -890.33377    1828.6806   -3769.5499    2.1542106    17.688195   0.19797288 
   43300   -934.75619    45.755299   -889.00089    1638.7889   -528.30541    2.1495086    23.020604   0.21894652 
   43400   -931.80078     51.62874   -880.17204    1849.1542    8713.3993    2.1631434    16.517309   0.22776694 
   43500   -937.07407    49.946489   -887.12758    1788.9021   -3452.8762     2.147962    15.062223    0.1932471 
   43600   -941.74775    50.497542    -891.2502    1808.6388   -8643.6115    2.1385467    16.171638   0.17843371 
   43700    -938.8447    52.794787   -886.04991    1890.9178    10190.993    2.1723361    16.766846   0.17212141 
   43800   -943.11571    50.194665   -892.92104    1797.7909    3285.7473    2.1683319    15.189447   0.17273087 
   43900   -941.19426     46.21961   -894.97465    1655.4188    -7468.592     2.143084    12.628143   0.19281751 
   44000   -941.21626    53.169785   -888.04648    1904.3489    2515.7853    2.1660993    17.796924   0.19854548 
   44100   -943.64634    55.031366   -888.61497     1971.024    1792.1444     2.167879    15.096447   0.19707937 
   44200   -940.11329    41.736169   -898.37712    1494.8382   -7533.0057    2.1512385    15.108378   0.19705802 
   44300   -938.19423    46.157986   -892.03624    1653.2117    656.53538    2.1596595    18.082227   0.19738175 
   44400   -938.37885    52.153306   -886.22554    1867.9423    12971.904     2.181497    13.773707   0.17005054 
   44500   -941.16167    49.277799   -891.88387     1764.952   -3412.5098    2.1493181    12.997768   0.16715607 
   44600   -940.54373    45.684738   -894.85899    1636.2616   -2730.5969    2.1520097    17.638213    0.1809727 
   44700   -935.46816    51.504628   -883.96353     1844.709    599.39425    2.1529281    16.679428   0.20827443 
   44800   -942.31328    54.524255   -887.78903    1952.8611   -2399.1358    2.1592249    20.584332   0.20774591 
   44900   -939.19958    47.016621   -892.18296    1683.9649   -1197.2914    2.1537891    18.916387   0.20701476 
   45000   -939.36822    53.882549   -885.48567    1929.8775    -87.06713     2.156112    10.809292    0.2088109 
   45100   -934.45819    50.416505   -884.04169    1805.7364    1179.9139    2.1466713    17.377676   0.20276129 
   45200    -938.6013    46.667546   -891.93376    1671.4623    104.33234    2.1545624    15.519903   0.19611194 
   45300   -937.39238    48.865492   -888.52688    1750.1847    2484.7837    2.1618907     17.53463   0.20598571 
   45400   -935.06697    54.217107   -880.84986    1941.8602   -831.29077    2.1418697    20.879005   0.18952641 
   45500   -944.76949    53.024909   -891.74458      1899.16   -1230.3384    2.1629762    20.032481   0.19186291 
   45600   -941.23018    50.724808   -890.50537    1816.7787   -2773.6644    2.1592624    16.849945   0.20086406 
   45700   -937.48196    52.668258    -884.8137     1886.386   -3174.3066    2.1474719     15.51897   0.19347169 
   45800   -937.99657    53.689943   -884.30663     1922.979    -3322.574     2.146366    15.152959   0.20819074 
   45900   -939.49905    46.799415   -892.69964    1676.1853    6973.7592    2.1795308    16.205482   0.20613794 
   46000   -935.91318    46.808774    -889.1044    1676.5205    4251.4463    2.1675276    17.967883   0.22610919 
   46100   -936.97196    48.998702   -887.97326    1754.9558   -9969.2584    2.1320963    12.135153   0.19123542 
   46200   -944.50183     46.42972   -898.07211    1662.9442    2783.2671    2.1811839     23.76502   0.18523215 
   46300   -942.63659    50.316038   -892.32056     1802.138    2810.2159    2.1798942    18.927329   0.19464926 
   46400   -936.32698    48.213667   -888.11332    1726.8387   -9014.8047    2.1359781    7.4132167   0.19505787 
   46500   -931.90825     45.71715    -886.1911    1637.4225    3590.3914    2.1452931    13.128283   0.18708838 
   46600   -944.95083    48.273539   -896.67729    1728.9831    15166.351     2.208697    9.4831927   0.18005531 
   46700   -941.83222    52.811829   -889.02039    1891.5282   -9376.0348    2.1428423    6.8849859   0.18024075 
   46800   -937.38545    49.454244    -887.9312    1771.2717   -4939.7233    2.1412456    5.8474088   0.16691243 
   46900   -938.52078    50.694671   -887.82611    1815.6993    6818.4406    2.1736237    11.550301   0.18687101 
   47000   -943.56846    46.877365    -896.6911    1678.9772    663.26016    2.1672106    6.8018321   0.16035574 
   47100   -937.05647    45.535695   -891.52078    1630.9235   -4742.0623    2.1438401    5.4393907   0.16928356 
   47200   -933.83309     46.52963   -887.30346    1666.5226      7760.84    2.1672908     7.104262   0.19081826 
   47300   -935.66273    46.051515   -889.61122    1649.3983    3871.2516    2.1655845    3.8694615   0.18427246 
   47400   -941.86428    45.357362   -896.50691    1624.5362   -4956.3241    2.1512207    11.560363    0.1888206 
   47500   -942.90613    48.944956   -893.96117    1753.0308    4379.7516    2.1750262     19.13494   0.17479355 
   47600   -940.95707    53.449621   -887.50745    1914.3716    3427.1166    2.1664317    17.991482   0.18935681 
   47700   -937.09905    47.147592   -889.95146    1688.6557   -5667.3096    2.1454606    12.529308   0.22587676 
   47800   -946.83372    51.935956   -894.89776    1860.1576   -4964.7547    2.1640578    15.540151   0.19101005 
   47900   -949.75841    48.958889   -900.79952    1753.5298    3860.5552    2.1930846    13.605598   0.19477417 
   48000   -939.62004    50.247156   -889.37288    1799.6709   -7116.9801    2.1369659    13.305655   0.20779669 
   48100   -938.92503    49.547947   -889.37709    1774.6278   -1573.8024     2.151537    18.643902   0.18793241 
   48200    -937.9259    47.425747   -890.50015    1698.6183    9405.6521    2.1793122    21.222554   0.17393445 
   48300   -950.00115    50.224747   -899.77641    1798.8683   -3308.4975    2.1683757    18.441778   0.16205579 
   48400   -943.54748    53.007223   -890.54025    1898.5265   -9032.2433    2.1413159    20.793746   0.18272707 
   48500   -942.28611    54.010229   -888.27588    1934.4505    4100.6571    2.1743744    17.979576   0.19856754 
   48600   -940.49626    45.807755   -894.68851    1640.6677    1899.0628     2.166284    19.896926   0.18976418 
   48700   -939.90181    46.663416   -893.23839    1671.3143   -140.44929    2.1570507    21.115321   0.17866732 
   48800   -941.52799    55.571266   -885.95672    1990.3612   -2476.7144    2.1532087    24.351206    0.1686549 
   48900    -940.0901    49.742542   -890.34756    1781.5975    580.56085     2.161823    22.271317   0.18949554 
   49000   -941.58502    47.741014   -893.84401      1709.91    1864.2454    2.1684973    23.560763   0.16915146 
   49100   -938.56028    54.134585    -884.4257    1938.9045   -468.79998    2.1573499    17.086629   0.18946784 
   49200   -938.51435    52.519721   -885.99463     1881.066    539.05444    2.1588136    21.777534   0.16948015 
   49300   -939.98162     48.03516   -891.94646    1720.4452   -1421.0192    2.1573114    18.096269   0.18753596 
   49400   -943.33233    53.709445   -889.62289    1923.6776   -908.59801    2.1634819    19.494292    0.1901807 
   49500   -933.06591    51.833783   -881.23212    1856.4981    1355.7086    2.1480567    21.036743   0.18251981 
   49600   -941.22697    49.761349   -891.46562    1782.2711    40.749365    2.1646925    20.339889   0.16643176 
   49700   -939.68746    49.029506   -890.65795    1756.0591    1688.3335    2.1649837     20.27805   0.16737969 
   49800   -938.25185    54.860587   -883.39126    1964.9073   -4088.6554    2.1489528    22.377394   0.17625266 
   49900   -942.64398    52.954589   -889.68939    1896.6413   -3241.9692     2.162335    19.668116   0.16793092 
   50000   -942.81667    50.378076   -892.43859      1804.36    27.334889    2.1621485    24.168559   0.16175612 
   50100   -937.53281    49.012078   -888.52073    1755.4349    5158.7266    2.1683768    19.566556   0.18161528 
   50200   -939.42909    53.217631   -886.21146    1906.0625   -1230.6348    2.1540443      22.7143   0.18800468 
   50300   -942.83328    45.524948   -897.30833    1630.5385   -164.38953    2.1704719    20.560457   0.17920623 
   50400   -939.01473     46.08904   -892.92569    1650.7423   -925.68273    2.1593101    19.027223    0.1747241 
   50500   -939.25387    50.957659   -888.29621    1825.1185    3178.1026    2.1639179    22.721311   0.16135767 
   50600   -944.06642    52.331688   -891.73474    1874.3313    -2725.746    2.1601608    21.174032    0.1630483 
   50700   -947.31241    48.757142   -898.55527     1746.304   -3360.3072    2.1685576    18.095321   0.16759559 
   50800   -940.48058    50.848375    -889.6322    1821.2044    2283.9117     2.161325    20.126346   0.16591268 
   50900   -943.96654     54.99278   -888.97376    1969.6419   -606.89554    2.1619478    19.835855   0.16462514 
   51000   -941.73573    44.414849   -897.32088    1590.7788   -1637.1905    2.1600838    20.853669   0.17750496 
   51100   -941.68565    49.185992   -892.49966    1761.6639    620.97786    2.1648485    23.267424   0.18407747 
   51200    -939.7292    52.424156   -887.30505    1877.6431    5808.5039    2.1725723    20.412973   0.19301542 
   51300   -942.29839    49.370455   -892.92794    1768.2707   -9657.4172    2.1452884    22.934844    0.1888803 
   51400   -942.66378    50.481018   -892.18276     1808.047   -1982.0153    2.1604162     21.19961   0.17947179 
   51500   -932.33903    50.147435   -882.19159    1796.0993    6615.5348    2.1564856    22.469367   0.17766717 
   51600   -938.68869    49.145591   -889.54309    1760.2168   -3313.3093    2.1504096    20.698985   0.17322128 
   51700    -941.5997    48.790348   -892.80935    1747.4933   -2708.0347    2.1593161    22.400671   0.17575935 
   51800    -942.6133    55.529549   -887.08375    1988.8671    3294.2297    2.1718656    21.565662   0.16536133 
   51900   -932.39043    47.936589   -884.45384    1716.9148   -1157.7044     2.139125    20.329163   0.20294697 
   52000   -939.29085    46.092493   -893.19836    1650.8659    -5237.473     2.143853    22.860038   0.18181105 
   52100    -940.3728    51.202232   -889.17057    1833.8783     10225.99    2.1855103    20.152305    0.1825075 
   52200   -938.12774    54.457257   -883.67048    1950.4615    -8.925284    2.1556905    18.782055   0.17525074 
   52300    -936.7009     49.27987   -887.42103    1765.0262   -15277.601    2.1116937    22.920838   0.18412293 
   52400   -941.63627    49.216351   -892.41992    1762.7512    6460.0111    2.1770348    20.804383   0.15498184 
   52500    -942.3643    55.083172   -887.28112    1972.8794    9083.8425    2.1812667    19.981178   0.15822016 
   52600   -941.45199    50.925008   -890.52698    1823.9491   -12303.733    2.1291824    19.333109   0.15937104 
   52700   -945.77867    47.864272   -897.91439    1714.3247   -1413.7409    2.1685266    21.351648   0.16306615 
   52800   -941.40253    53.478302   -887.92423    1915.3989    6186.7703    2.1723236    22.962788   0.15761797 
   52900   -939.47946     50.56202   -888.91744    1810.9482   -1882.1655      2.15173    26.002299   0.19181703 
   53000   -942.53914    50.826469   -891.71267    1820.4198   -4666.2132    2.1529996    22.381217   0.18204797 
   53100   -948.30955    49.254518   -899.05503    1764.1182    3322.9952    2.1904583    21.767528   0.17874334 
   53200   -935.73952     47.37137   -888.36815    1696.6707   -3417.1703    2.1461089    34.238702   0.21382703 
   53300   -935.97039    48.092633   -887.87775    1722.5037    1975.3304    2.1616213    26.598871   0.18927162 
   53400   -937.31327     48.32249   -888.99078    1730.7364    5512.6908    2.1679956    30.247598   0.18982658 
   53500   -946.57809    47.734162   -898.84393    1709.6646   -3927.0396    2.1636418    32.469046   0.15748462 
   53600   -941.97595    48.909367   -893.06658    1751.7561    151.13301    2.1645886     33.41849    0.1848338 
   53700   -934.71266    47.079312   -887.63334    1686.2102    9412.9175    2.1816189    27.273728   0.20871854 
   53800   -937.76705    48.418667   -889.34838    1734.1811   -9102.8778    2.1420045    30.115229   0.22903401 
   53900   -941.28087    47.868577   -893.41229    1714.4788   -1771.4764    2.1607627    30.638615   0.19570709 
   54000   -944.88795    48.019888   -896.86806    1719.8983    20354.312    2.2260855     28.35403   0.20474811 
   54100   -937.22357    48.545415   -888.67816    1738.7207   -8471.9789    2.1354718    33.817303   0.19939286 
   54200   -938.66745    49.500048    -889.1674    1772.9122   -11112.249     2.134067    40.558102   0.20542553 
   54300   -939.42865    52.198937   -887.22971    1869.5766    10571.753    2.1806841    20.580666   0.18651527 
   54400   -933.67521    57.923192   -875.75202    2074.5987   -29.065958     2.140811     6.797255   0.22295274 
   54500   -936.38012    49.708439   -886.67169     1780.376   -1378.7721    2.1499952    4.3777303   0.18160001 
   54600   -941.23138    51.538716   -889.69266    1845.9299   -963.31167    2.1574699    6.3052882   0.17471275 
   54700    -943.0804    51.083532   -891.99687    1829.6269    649.04132    2.1651864     4.903289   0.17004618 
   54800   -940.26801    46.060309    -894.2077    1649.7132    1581.5828     2.162255    4.8054342   0.18167413 
   54900   -935.27586    52.599574   -882.67629     1883.926    423.36273    2.1446113    4.8551021   0.16795358 
   55000   -941.46132    55.838624    -885.6227     1999.937    6264.7858    2.1701141    4.3145284   0.16809233 
   55100   -941.07838     51.27179   -889.80659    1836.3696   -6665.9254     2.138689    6.0868307   0.15194274 
   55200   -940.57393    47.638053   -892.93588    1706.2223   -2378.8399    2.1522661    4.4622771   0.15549749 
   55300    -946.7746    51.346327   -895.42827    1839.0392    13171.872    2.2054966     5.344659   0.17325034 
   55400   -936.08656    52.105757    -883.9808    1866.2393   -9228.0905    2.1215393    4.7692586   0.17428047 
   55500   -939.76313    49.602018   -890.16111    1776.5644   -9487.1529    2.1360704    6.2642818   0.16823927 
   55600   -941.50316    51.827624   -889.67554    1856.2775    16265.075    2.2002145    3.7115304   0.16249369 
   55700   -943.36975    48.637244   -894.73251    1742.0097   -2140.3109    2.1575718    4.3153651    0.1549362 
   55800   -949.08542    45.053465   -904.03196    1613.6517   -11297.631    2.1525112    6.0665453   0.13796514 
   55900   -942.91035    47.854888   -895.05546    1713.9886     4295.593    2.1772928    6.1710211   0.16167935 
   56000   -942.05363    51.026776   -891.02685    1827.5941    3509.2772    2.1720625     5.327622   0.15994584 
   56100   -937.44981    48.397969   -889.05184    1733.4397   -4118.4365    2.1438618    5.2289869   0.16124624 
   56200   -938.81481    55.769848   -883.04496    1997.4737   -3096.2692    2.1481139    3.4494404   0.16474593 
   56300   -929.02094    50.979628   -878.04131    1825.9054    7992.1028    2.1507882    5.4709517   0.17507584 
   56400   -938.25692    48.639684   -889.61724    1742.0971    4056.3404    2.1674306    6.2280588   0.16935811 
   56500   -939.94576    49.651809   -890.29395    1778.3477   -4629.0366    2.1522178    7.0412993   0.18172823 
   56600   -939.87285    49.335725   -890.53713    1767.0267    -1846.702    2.1563064    5.2052832   0.15819859 
   56700   -945.96795    49.861691   -896.10626    1785.8649    1320.3546    2.1774159    5.5799875   0.15090733 
   56800   -945.53565    46.693012   -898.84264    1672.3744    597.44079    2.1748299    5.4278335   0.12874358 
   56900   -940.95723    49.402739   -891.55449     1769.427   -2278.3928    2.1533159    5.9800366   0.15787775 
   57000   -942.15044    52.615826   -889.53461    1884.5081   -3331.3893    2.1517955     5.053196   0.15008571 
   57100   -939.50258    50.283686   -889.21889    1800.9793    3800.4327    2.1670514    5.1085181    0.1676077 
   57200   -947.50723    47.588905   -899.91832     1704.462    819.49251    2.1772699    4.7139183   0.15984216 
   57300   -940.87867    47.846528   -893.03214    1713.6891   -11055.772    2.1323379    4.4325971   0.15952513 
   57400   -943.32672    54.153499   -889.17322    1939.5819    4151.9993    2.1689588    5.6368172   0.14641426 
   57500   -938.09083    47.494133    -890.5967    1701.0676    9611.9411    2.1778986     6.411476   0.16397219 
   57600   -944.43591    44.396199   -900.03971    1590.1108    -11990.47    2.1409418    5.3167993    0.1441582 
   57700   -942.26058    48.418684    -893.8419    1734.1817   -3082.9511    2.1554999     5.198375   0.15183975 
   57800   -944.15749    56.181361   -887.97613    2012.2126    9720.7056    2.1845375    3.6954521   0.14014934 
   57900   -942.71873    51.290289   -891.42844    1837.0321   -4217.1396    2.1488686    6.0091014   0.13757224 
   58000   -945.68986    46.984917   -898.70495    1682.8293   -9106.4664    2.1500879    7.9003872   0.16293316 
   58100   -944.62332    49.588095   -895.03522    1776.0657    9529.8186    2.1915287     4.384152   0.16832942 
   58200    -943.0304    53.790509   -889.23989     1926.581    1627.1464    2.1640229    5.6900184   0.16558505 
   58300   -941.19193    50.001965   -891.18996     1790.889   -7702.3218     2.139613    4.8370235    0.1634679 
   58400   -943.04979    46.931048   -896.11874    1680.8999     2651.196    2.1747742    5.9954634   0.14818304 
   58500   -943.89651    43.784625   -900.11189    1568.2065    5939.1042    2.1890499     5.049516   0.14093203 
   58600   -942.38466    51.645694   -890.73897    1849.7615   -7036.0414    2.1444705    5.6935457   0.16233199 
   58700   -938.46449    48.263478   -890.20101    1728.6228    942.16833    2.1552793    5.8841558   0.15801278 
   58800   -937.28224     48.36108   -888.92116    1732.1185    9074.4666    2.1761291    9.2197709   0.18863834 
   58900   -930.27993    52.261872   -878.01806    1871.8307   -1390.4304    2.1352238    8.6771441   0.22900357 
   59000   -937.62811    50.277403   -887.35071    1800.7542   -1726.0304    2.1570966    14.615076   0.18943359 
   59100   -938.08234    49.003962   -889.07838    1755.1442    508.85018    2.1619923    7.4339674    0.1909994 
   59200   -942.19545    49.617894   -892.57756     1777.133   -1634.4221    2.1615531    5.2241275   0.15325002 
   59300   -945.40548    46.258426   -899.14705    1656.8091     3734.667    2.1834284    4.0405335   0.14917574 
   59400   -935.07887    46.184716   -888.89416     1654.169   -724.23245    2.1519889    3.7997558   0.16183108 
   59500   -939.50885    49.644903   -889.86394    1778.1004   -1278.3867    2.1571297    5.1652166   0.16642015 
   59600   -941.93603    46.640753   -895.29528    1670.5026    6173.2459    2.1830225    5.5360661   0.16737781 
   59700   -945.22452    46.416351   -898.80817    1662.4654    379.77336    2.1732376    6.0321476   0.16417137 
   59800   -940.56797    51.218056   -889.34991     1834.445   -12119.023     2.129651    6.2307782   0.18045646 
   59900   -940.41185    50.409895   -890.00195    1805.4996    7191.6169     2.177727     5.084896   0.18047553 
   60000   -941.91114    48.675443    -893.2357    1743.3778    9376.9784    2.1882237    4.6157354   0.15433358 
   60100    -934.3703    53.072799    -881.2975    1900.8752   -10324.641    2.1145744    6.3621213   0.16598225 
   60200   -934.03623    47.551422   -886.48481    1703.1195    6736.1533     2.166618    5.8660078   0.17444578 
   60300   -946.45609    56.020671   -890.43542    2006.4573    2941.1856    2.1757415    5.6691616    0.1617552 
   60400    -940.0673    47.135403   -892.93189    1688.2192   -5360.9675    2.1467785    5.2551142   0.17594891 
   60500   -938.28175    55.539464   -882.74229    1989.2222   -3234.2211    2.1479946    5.6794791   0.17798721 
   60600    -938.9178    52.552843   -886.36496    1882.2523    10893.729    2.1776821    4.3431143   0.18291564 
   60700    -944.3134    52.269599    -892.0438    1872.1075   -7509.2946    2.1453713    4.8012295   0.17293979 
   60800   -939.25591    50.147699   -889.10821    1796.1087   -4093.0297    2.1471135    4.4895775   0.17809206 
   60900   -928.44726    49.273328   -879.17393    1764.7919    12632.922    2.1681113    5.4750762   0.19129001 
   61000    -936.7381    47.564018   -889.17408    1703.5706    2132.7886    2.1566421    6.1163788   0.16664187 
   61100   -936.14889    44.198598   -891.95029    1583.0335   -6311.9349    2.1374147    4.1922694   0.17408931 
   61200    -941.3123    54.749359   -886.56294    1960.9235    4886.6755    2.1735105    5.0510704   0.16770557 
   61300   -941.31819    53.855083   -887.46311    1928.8938   -707.67056    2.1582928    6.2866946   0.16898328 
   61400   -945.63699     49.81622   -895.82077    1784.2364    -3406.865    2.1603017    4.4323648    0.1720545 
   61500   -944.05598    53.417711   -890.63827    1913.2287   -1882.7611    2.1638542    4.7307102   0.18784985 
   61600   -936.06175    48.733491   -887.32826    1745.4569    2303.9291    2.1567639    6.2251495   0.19055617 
   61700   -943.51788    46.999562   -896.51832    1683.3539   -3185.6874     2.162161    4.8208376   0.17171725 
   61800   -942.68425    48.372077   -894.31218    1732.5124   -1105.5494       2.1644    6.4179878   0.18066129 
   61900   -933.97889    46.141737   -887.83716    1652.6297    5299.1586    2.1628011    4.0854469   0.17930679 
   62000   -943.13617    50.900526   -892.23565    1823.0722    -3331.987    2.1598102    4.5326287   0.17100648 
   62100   -947.20382    49.422289   -897.78153    1770.1271   -239.68262    2.1731013    5.3330385   0.16384755 
   62200    -939.4057    51.485106   -887.92059    1844.0098   -1774.1185     2.153959    6.6948994   0.18043911 
   62300    -943.5182    53.749954   -889.76824    1925.1284   -890.66748     2.162551    3.7599543   0.17180346 
   62400   -946.93823     50.01597   -896.92226    1791.3907   -1884.5417    2.1704878    6.2413791    0.1572188 
   62500   -937.96495    50.192617   -887.77233    1797.7175    769.14445    2.1533218    2.7359566    0.1614702 
   62600    -941.5166     55.42848   -886.08812    1985.2471    4700.7297    2.1726858    2.6157987   0.16644109 
   62700   -940.18499    48.386292   -891.79869    1733.0215   -6776.1333    2.1445558    2.2247704   0.16227599 
   62800   -936.57866    51.088962   -885.48969    1829.8214   -1799.9064     2.143388    6.8765462   0.19313217 
   62900   -934.99374    54.794109   -880.19963    1962.5263    9860.3847    2.1763061    4.8542311   0.20521066 
   63000    -938.7318    50.313581   -888.41822      1802.05   -6636.0296    2.1401463    6.0925744   0.19231068 
   63100   -936.80572     47.04326   -889.76246     1684.919    -3505.143    2.1472738    6.0747174   0.19211785 
   63200   -940.64449    54.202559   -886.44194    1941.3391    11009.952    2.1848434    5.2449472   0.17401359 
   63300   -931.96738    52.270623   -879.69676    1872.1441   -6897.0517    2.1235753    5.3408313   0.19203421 
   63400   -935.15692    44.496527    -890.6604    1593.7042   -1527.9086     2.153621    4.2391575   0.18479044 
   63500   -942.99752    52.971656   -890.02586    1897.2526    6996.7769    2.1878189    4.5140135   0.16671631 
   63600   -942.32792    50.507086   -891.82083    1808.9806   -3344.8282    2.1550403    4.6544925    0.1725764 
   63700   -936.13009    55.489937   -880.64015    1987.4483   -6508.9268    2.1341499    6.7302068   0.19180432 
   63800   -937.57751    53.406392   -884.17112    1912.8233    8771.8332     2.170614    6.2774043   0.17704435 
   63900   -935.27661    45.365005   -889.91161      1624.81    1155.2768    2.1527121     4.893824   0.16871272 
   64000    -938.9715    47.389541   -891.58196    1697.3215   -3411.8642    2.1516023     5.988835   0.16238384 
   64100   -940.36372    53.521651   -886.84207    1916.9514    5159.5735    2.1699647    6.1259217   0.15402433 
   64200   -934.55268    52.142601   -882.41008    1867.5589   -648.58877    2.1394635    5.3531238   0.15317985 
   64300    -938.0613    47.152757   -890.90854    1688.8407   -1301.6923    2.1528434    6.2835669   0.15660717 
   64400   -942.03396    51.352763    -890.6812    1839.2697    2174.2733    2.1701482    5.2684344   0.17064446 
   64500   -937.74865    54.475568   -883.27308    1951.1173    641.12833    2.1520318    4.8121316   0.17000957 
   64600   -933.84183    49.467052   -884.37478    1771.7304   -2874.4621     2.140792    5.3284639   0.18549655 
   64700   -939.70637    48.350509   -891.35586    1731.7399    1773.1735     2.165273    5.1581467   0.17046904 
   64800   -941.32846    51.622751   -889.70571    1848.9397    3068.4483    2.1707619    5.8629032   0.16416807 
   64900   -934.71797    53.623757   -881.09421    1920.6085   -2288.6221    2.1371422    6.2809092   0.15723972 
   65000   -938.40288    53.588907   -884.81397    1919.3603   -2850.2988    2.1443618    4.8952715    0.1611911 
   65100   -941.18455    50.975596   -890.20896     1825.761    845.91091     2.164697    5.5044212   0.16220584 
   65200   -943.55038    53.404039   -890.14634     1912.739   -115.03058    2.1637668    5.4356716   0.16102059 
   65300   -938.22513    51.308523   -886.91661    1837.6852    180.27512    2.1513726    4.3633797   0.16621743 
   65400   -936.82763    57.982833    -878.8448    2076.7348   -6392.7484    2.1328433    4.3603255   0.18653608 
   65500   -944.88165    56.283204   -888.59845    2015.8603    4536.6235    2.1763676     6.378407    0.1714277 
   65600    -941.1407    50.326547   -890.81416    1802.5144   -1159.7755    2.1610055    7.3637643   0.17013989 
   65700   -940.76408    50.430865   -890.33321    1806.2507   -7496.5935    2.1450789    5.1555326   0.16634654 
   65800   -937.65852    58.883679   -878.77484    2108.9998   -25.992766    2.1509123    4.4617454   0.16292917 
   65900   -940.45028    53.661188    -886.7891    1921.9492    3259.6391    2.1691615    4.2173529   0.16557164 
   66000   -942.35619    50.720649   -891.63554    1816.6297   -7406.5253    2.1509382     4.253724    0.1752702 
   66100   -940.61823    51.276807   -889.34142    1836.5493   -536.63102    2.1592681    6.3066509   0.17257111 
   66200   -934.62962    55.062852   -879.56677    1972.1517    482.22352    2.1450015    6.4765979   0.18915377 
   66300   -940.90085    50.538639   -890.36221    1810.1108    2779.0399    2.1703787    6.0215953   0.17861623 
   66400   -942.10641    50.776171   -891.33024    1818.6183   -3919.0321     2.153593    5.8978067   0.17726234 
   66500   -933.68061    47.601979   -886.07863    1704.9303    920.39438    2.1505984    7.8436444   0.20509742 
   66600   -931.51762    52.926844   -878.59077    1895.6476    7699.8119    2.1588075    7.3331493    0.1804877 
   66700   -935.61205    47.198325   -888.41372    1690.4728    3029.0227    2.1616141    12.485784   0.18612612 
   66800    -940.5471    51.320875   -889.22623    1838.1276   -10144.652    2.1384468    19.157388   0.18297981 
   66900   -935.90189    50.500331   -885.40156    1808.7387    3269.1116    2.1534218     20.21736   0.17554596 
   67000     -933.621    58.646769   -874.97423    2100.5146    5553.7733     2.149664    21.295688   0.16945767 
   67100   -934.32562    48.073935   -886.25169     1721.834    2561.1422    2.1535953    20.553528   0.18887299 
   67200   -939.57638    49.670878    -889.9055    1779.0307   -2777.0976    2.1508737    23.118205    0.1680188 
   67300   -943.71908    52.519317   -891.19976    1881.0515    2230.0233    2.1715999    22.764792   0.17074478 
   67400    -945.1789    53.201907   -891.97699    1905.4994    -1862.896     2.166958    24.718317   0.15201048 
   67500   -931.94219    51.688229   -880.25396    1851.2849   -8726.2115    2.1183826    23.632247   0.19400044 
   67600   -940.54504    53.409342    -887.1357    1912.9289    6396.9294    2.1810105    21.679545    0.1708007 
   67700   -943.29837    53.498146   -889.80023    1916.1096    1322.3938    2.1681966    18.304371   0.16365023 
   67800   -944.04011    49.811952   -894.22816    1784.0835   -15566.885    2.1294289    21.831593   0.15818988 
   67900   -942.32503    50.545674   -891.77935    1810.3627    7288.2644    2.1816343    20.440028   0.17180152 
   68000    -936.9713    52.574449   -884.39685    1883.0261    6274.5265    2.1665913    24.123578   0.17176343 
   68100   -943.61824    52.407693   -891.21055    1877.0535   -12144.004    2.1341593    21.942216   0.17721024 
   68200   -942.28976    51.722381   -890.56738    1852.5081    1022.4503    2.1674053    20.889529   0.18298991 
   68300   -937.31428     56.59837   -880.71591    2027.1484    6108.6397    2.1652838     20.75409    0.1665206 
   68400   -937.13811    50.631227   -886.50689    1813.4269   -4126.0677    2.1454427    19.139494   0.18143588 
   68500   -943.18515    51.198238   -891.98691    1833.7352   -4000.9246    2.1522707    19.579087   0.17233849 
   68600   -936.76653    48.879777   -887.88676    1750.6963    8199.7828    2.1722521    20.607491   0.16497952 
   68700   -935.24239    54.143611   -881.09878    1939.2278   -1623.8855    2.1433708    25.877073   0.17706269 
   68800   -940.64253    48.234714   -892.40781    1727.5925   -1411.6448    2.1607322    23.859848   0.16529075 
   68900   -939.90153    48.638717   -891.26281    1742.0625   -161.48901    2.1569396    19.642866   0.15166411 
   69000   -940.00089    51.816083   -888.18481    1855.8642   -1294.8326    2.1557611    19.210567   0.18275297 
   69100   -935.30377    51.418474   -883.88529    1841.6233    1812.5516    2.1520981    22.438268    0.1864509 
   69200   -930.28906    56.778459    -873.5106    2033.5985   -4086.1092    2.1221579    22.430374   0.18044444 
   69300   -939.15835    53.108121   -886.05022    1902.1403    8770.2144      2.17384    23.606637   0.16196336 
   69400   -936.58399    47.806006   -888.77799    1712.2378    1859.7447    2.1592205     20.36105   0.17612155 
   69500   -939.68494    47.073103   -892.61183    1685.9878   -11633.555    2.1281031    22.966624   0.15444342 
   69600   -939.21457    52.182255   -887.03232    1868.9791    10063.446    2.1823135    19.150004   0.17217135 
   69700   -929.75576    48.838725   -880.91704     1749.226     9486.601    2.1616279    21.853734   0.19050661 
   69800   -939.93368    48.682288   -891.25139     1743.623   -12032.964    2.1298084    19.941226   0.17249454 
   69900   -938.85293    47.854946   -890.99798    1713.9906    4085.2863    2.1664522    19.102094    0.1792107 
   70000   -937.83366     50.17995   -887.65371    1797.2638    10068.797    2.1764585    17.752398    0.1696557 
   70100   -939.28915    57.611449    -881.6777    2063.4332   -11766.047    2.1212255    21.813935   0.15646769 
   70200   -943.65638    50.564341   -893.09204    1811.0313    684.40289    2.1700367    21.633776    0.1589746 
   70300   -939.89178    49.742555   -890.14922    1781.5979    5895.0019    2.1729721     24.73381   0.16061233 
   70400   -937.31257    49.837322   -887.47525    1784.9921   -3585.7443    2.1444046     24.32849    0.1551273 
   70500   -943.73216    49.626212   -894.10595    1777.4309   -5001.3345    2.1532408    23.157004    0.1544431 
   70600   -944.75901    49.082916   -895.67609     1757.972    4779.3211     2.178786    21.048661    0.1597396 
   70700   -941.18004    51.311869   -889.86817    1837.8051    1342.1874    2.1619681    20.664117   0.17089578 
   70800   -943.79378    54.858356   -888.93542    1964.8274   -7338.6577    2.1449601    22.188755   0.17592314 
   70900   -944.04857    45.236713   -898.81186     1620.215    2995.6802    2.1745619    21.184311   0.16256765 
[...]
  186800   -936.26805    51.922919   -884.34514    1859.6907   -8216.9048    2.1295063    154.01935   0.22075715 
  186900   -934.80217    54.192637   -880.60953    1940.9837   -2568.0775    2.1380506    149.43676    0.2207303 
  187000   -942.11291    52.243016    -889.8699    1871.1554    11841.573    2.1928629    146.39678   0.20979175 
  187100   -939.34635    50.405924   -888.94043    1805.3574   -5454.1925    2.1481496    153.02233    0.2038508 
  187200   -936.40734    49.779353   -886.62798    1782.9159   -7665.6382    2.1359675    148.15174   0.20266883 
  187300   -944.89983    47.915573   -896.98426    1716.1621    8851.3523    2.1933817    151.20439   0.19966537 
  187400   -940.72266    51.749408   -888.97325    1853.4761   -754.83961    2.1578377     165.0965   0.19182377 
  187500   -938.37967    50.581087   -887.79859    1811.6311   -3521.6749    2.1454983    149.44274   0.19773151 
  187600   -940.44415    46.693185   -893.75097    1672.3805    2687.1517    2.1690091    140.79987   0.19788118 
  187700   -943.81603    50.369782   -893.44624    1804.0629   -642.12114    2.1702333    152.49533   0.18907288 
  187800   -934.90631    48.994939   -885.91137     1754.821   -422.05512    2.1495079    150.05217   0.21034986 
  187900   -940.62655    48.873493   -891.75305    1750.4713    -2370.404    2.1584595    139.13914   0.20313256 
  188000   -939.22966    46.314433   -892.91522     1658.815    4584.5366    2.1749239    155.35677   0.21375837 
  188100   -933.64257    50.502556   -883.14001    1808.8184   -2167.2536    2.1427957    159.42282   0.21994239 
  188200   -942.36385     51.73902   -890.62483    1853.1041   -6496.5232     2.147704    150.70411   0.17986628 
  188300   -939.18031    48.441371   -890.73894    1734.9942    9928.5104    2.1827576    149.40268   0.20028355 
  188400   -932.34339    51.495607   -880.84778    1844.3859    1622.0578    2.1453101    173.38342   0.19185435 
  188500   -940.76124    51.693312   -889.06793     1851.467   -8454.4061    2.1373253    174.16775   0.19188105 
  188600   -940.32262    49.382638   -890.93998     1768.707    3579.7038    2.1714566     185.6075   0.18706712 
  188700   -934.79342    51.760041   -883.03338     1853.857    10561.673    2.1737872    175.23472   0.20736061 
  188800   -936.22468    49.956665   -886.26802    1789.2666   -13750.164    2.1133524     174.8565   0.19277589 
  188900   -943.21812    48.704735   -894.51339     1744.427   -2107.2799    2.1638807    177.17039    0.1548219 
  189000   -942.24881    53.937605    -888.3112    1931.8494    15505.588    2.2017568     177.2308   0.16725637 
  189100   -935.40797    47.763581   -887.64439    1710.7182   -5341.0022    2.1333867    186.75072   0.18187315 
  189200   -942.55514    45.922584   -896.63255    1644.7804   -6611.1759    2.1487551    191.50861   0.15580326 
  189300   -947.10979    53.276279   -893.83351    1908.1631    6075.3867    2.1886582    174.74587   0.15729659 
  189400   -943.56491    55.870664   -887.69425    2001.0846   -1741.2441    2.1611582    181.90057   0.17840601 
  189500   -938.61126    47.560884   -891.05038    1703.4584   -6698.9278    2.1414859    189.44877   0.19764163 
  189600   -948.07631    51.510281   -896.56603    1844.9115    1371.2122    2.1828321    178.77521   0.19352675 
  189700   -943.16833    56.950492   -886.21784    2039.7601   -929.37816    2.1590126    180.21555   0.17745839 
  189800   -943.47565    53.474798   -890.00085    1915.2733    -4527.831    2.1476233    182.31334   0.18378155 
  189900   -944.67053    49.799352   -894.87118    1783.6322    225.40538    2.1699577    168.23472   0.16525586 
  190000   -943.49678    55.235578   -888.26121    1978.3381    4038.3333    2.1773042    180.91294   0.17423977 
  190100   -939.02913    52.756884   -886.27224    1889.5603    -4545.585    2.1421378    174.77482   0.18012973 
  190200    -944.6804    51.467643   -893.21276    1843.3843   -6795.7512    2.1485697    182.58693   0.17456306 
  190300   -938.61584    48.745951   -889.86988    1745.9032    10261.203    2.1865532    181.88641   0.20072935 
  190400   -938.91367    56.606801   -882.30687    2027.4503   -1936.3731    2.1469045    172.67453   0.19586136 
  190500   -938.46547    46.104572    -892.3609    1651.2986   -9181.7933    2.1354931    178.48222   0.19769684 
  190600   -939.60256    48.714665    -890.8879    1744.7826    8700.0848    2.1817454    189.32052   0.17729521 
  190700   -941.59747    56.746273    -884.8512    2032.4457    9451.3171    2.1841062    171.14757   0.18146298 
  190800   -935.80976    47.854825   -887.95493    1713.9863   -17755.927    2.1036018    190.79071   0.19543093 
  190900   -941.91348    46.122713   -895.79076    1651.9483    933.12277    2.1676119    179.60864    0.1723715 
  191000   -940.27262    52.412966   -887.85966    1877.2424     15678.39    2.1960528    184.78002    0.1655487 
  191100   -939.25352    50.523706   -888.72981    1809.5759   -8135.6596    2.1414054    176.34365   0.18625641 
  191200   -942.44405    45.534484   -896.90956    1630.8801   -4576.8379    2.1544614    177.06096   0.17462576 
  191300   -941.32468    49.282932   -892.04175    1765.1359    7492.1982    2.1828681    179.20773   0.17871217 
  191400   -940.61139    53.763739   -886.84765    1925.6222   -163.64347    2.1557571    185.71469   0.18023054 
  191500   -942.94864    48.625192   -894.32344     1741.578   -7921.8214    2.1440574    177.98487   0.16017883 
  191600    -943.4744    51.058687   -892.41571     1828.737    1422.8356    2.1692286    182.80056   0.16109759 
  191700   -937.44722    53.004651   -884.44257    1898.4344    2495.8853    2.1578274    169.43005   0.17040867 
  191800   -940.26016     48.65775   -891.60241    1742.7442   -3943.7601      2.14158    146.10045    0.1908589 
  191900   -939.63794    48.879261   -890.75868    1750.6779      3438.65    2.1621627    139.90012   0.17694265 
  192000   -932.38362    50.598292   -881.78532    1812.2473    3875.0154    2.1453025    142.78763   0.18422321 
  192100   -936.35731    45.467796   -890.88952    1628.4916   -310.00805    2.1503745    149.16023    0.1808869 
  192200   -941.62749    49.610132   -892.01736     1776.855   -1447.8546    2.1585004    145.98935   0.16828053 
  192300   -934.84117    51.977293   -882.86388    1861.6381    3495.7922    2.1543562     146.7183   0.16765325 
  192400   -939.03237    50.510901   -888.52146    1809.1173    -1579.982    2.1506787    147.62452   0.17179467 
  192500   -942.85682    49.150139   -893.70668    1760.3797   -8905.4549    2.1412882    149.19529   0.15864923 
  192600   -939.10409    52.521685   -886.58241    1881.1363    8502.5134    2.1735024     147.2029   0.17093382 
  192700   -939.38645    49.319823   -890.06662    1766.4572    3628.2535    2.1606659    138.43135   0.16508366 
  192800   -941.24775     44.10945    -897.1383    1579.8405   -9044.8966    2.1402689     139.5407   0.16064138 
  192900   -936.84911     47.07215   -889.77696    1685.9537    9147.7703     2.174972    142.79015   0.17671918 
  193000   -937.45813    49.755265   -887.70286    1782.0531    5952.3497    2.1674149    138.21086    0.1762487 
  193100   -944.59236    48.494887   -896.09747     1736.911   -12749.021    2.1385752    152.12641   0.17781191 
  193200   -943.43082    49.378001   -894.05282    1768.5409    209.71876    2.1645216    143.66989   0.17066951 
  193300     -942.804     56.41746   -886.38654    2020.6688    6717.8574    2.1767121    143.91669   0.17924622 
  193400   -940.61637    48.094758   -892.52161    1722.5798    -8099.649    2.1401287    144.73115   0.17113887 
  193500   -942.07836    47.902639   -894.17572    1715.6988   -2787.6517    2.1558977     148.9528   0.18071604 
  193600   -935.35295    52.147232   -883.20572    1867.7248    5283.1503    2.1589118    158.06022   0.19550058 
  193700   -940.93146    52.267672   -888.66379    1872.0385   -309.19831    2.1584751     147.6329   0.19519456 
  193800    -943.4245    51.710484   -891.71401     1852.082    -5753.258    2.1501857    148.52041   0.20912523 
  193900   -936.49362    54.773696   -881.71993    1961.7951   -800.70102     2.148775    145.12607    0.2166604 
  194000   -939.65491    51.968914   -887.68599    1861.3381    635.13321    2.1608073    146.56663   0.20534498 
  194100   -940.24653    48.711556   -891.53497    1744.6713   -4470.7195    2.1523462    151.67205   0.18717154 
  194200   -941.72752    55.646091   -886.08143    1993.0412   -2140.6019     2.151193    136.64324   0.19125176 
  194300   -936.30002    54.696767   -881.60325    1959.0398    78.428052     2.152073    149.22581   0.19433532 
  194400    -939.1933    46.701332   -892.49197    1672.6723    5700.3859    2.1723605     145.2216   0.21381603 
  194500   -942.15988     51.95836   -890.20152      1860.96   -4421.9277    2.1510759    150.61024   0.20511684 
  194600   -937.30599    50.675669   -886.63032    1815.0187    1439.0694    2.1512254    141.43185   0.19617802 
  194700   -941.18844    45.189664   -895.99878    1618.5299    4514.1954    2.1740855    143.10191    0.2016254 
  194800   -941.21494    48.621525   -892.59342    1741.4467   -3069.4354    2.1568476     146.7151   0.17536353 
  194900   -939.58457    52.572282   -887.01229    1882.9485    1024.9113    2.1541702     142.2022    0.1944164 
  195000   -940.57028    49.907289   -890.66299    1787.4981    2870.8721    2.1667241    141.83754   0.19750996 
  195100   -944.58516     48.29302   -896.29214    1729.6808   -2918.8834    2.1613724    152.42057   0.17544949 
  195200   -941.38108    53.581034   -887.80005    1919.0783   -4239.7835    2.1514464    137.40534   0.18669283 
  195300   -935.49535    47.703585   -887.79177    1708.5694    5777.1949    2.1702117     148.5469   0.19314508 
  195400   -940.38595    44.823294   -895.56266    1605.4078   -1520.9403    2.1621778    158.80273   0.19273427 
  195500   -937.78982    48.237064   -889.55275    1727.6767   -5665.3807    2.1454598    151.68914   0.20455907 
  195600   -937.63771    53.253927   -884.38378    1907.3626    7852.0848    2.1724371    137.85687   0.20324014 
  195700   -945.05196     53.24219   -891.80977    1906.9422   -2722.0591    2.1639954    144.93794   0.18412107 
  195800   -939.48992    48.633904   -890.85602    1741.8901   -5964.4162    2.1447153    152.13381   0.20320497 
  195900   -935.81871    52.929305   -882.88941    1895.7357    5094.5248    2.1621257    152.31005   0.18770336 
  196000   -940.98993    51.175599   -889.81433    1832.9244    4933.0531    2.1733692    139.90036   0.18648634 
  196100   -941.33188    48.555334   -892.77654     1739.076   -9351.4839    2.1414301    133.77323   0.19003967 
  196200     -933.367    50.317891   -883.04911    1802.2044   -1468.4913    2.1415662    157.16139   0.17802497 
  196300   -940.44624    50.351936    -890.0943    1803.4238    13572.605     2.191935    154.07547   0.17588973 
  196400   -941.14107    48.044489   -893.09658    1720.7794   -4623.4699    2.1532482    156.46919   0.16989259 
  196500    -935.1074    48.754112   -886.35328    1746.1955   -5162.2654    2.1377069    153.80292    0.2100099 
  196600   -937.63495    52.080326   -885.55462    1865.3284    9346.7029    2.1779554    104.84651   0.19237192 
  196700   -944.02154    49.565807   -894.45573    1775.2675    1134.5505     2.173207    108.58488    0.2113481 
  196800   -936.51949     47.39947   -889.12002    1697.6771   -8465.4343    2.1341661    146.30555   0.19778395 
  196900   -938.26005    53.761331   -884.49871    1925.5359    2733.1866    2.1614006    159.59857    0.2071815 
  197000   -945.62042    52.281007   -893.33942    1872.5161    5531.0561    2.1850644    149.55164     0.171537 
  197100   -943.81321    50.035831   -893.77738     1792.102   -6481.9919    2.1537481    156.98457   0.18325883 
  197200   -936.03298    49.964608   -886.06837     1789.551   -1547.7528    2.1521835    144.50878   0.19125359 
  197300   -943.97473    51.955832    -892.0189    1860.8695    1824.5074    2.1722656    155.20478   0.17183712 
  197400    -944.0024    49.362194   -894.64021    1767.9748    296.95337    2.1709064    156.34646   0.17121715 
  197500   -934.73056    50.324435   -884.40612    1802.4388     -4845.35    2.1424338    159.20787   0.20607101 
  197600     -936.762    46.031609    -890.7304    1648.6853    5466.9456    2.1701273    160.17398   0.20002193 
  197700   -944.98488    51.649905   -893.33498    1849.9123   -741.66999    2.1723586    150.39602   0.18553628 
  197800    -935.7675     51.83957   -883.92793    1856.7054   -2210.0909    2.1459554    162.39628   0.19466988 
  197900   -945.18921    54.087283   -891.10193    1937.2103   -879.28389    2.1706931    159.12691   0.17115672 
  198000   -941.42461    48.453742   -892.97087    1735.4373    3427.7427    2.1716369    157.28765   0.16591265 
  198100   -938.02477    52.082662   -885.94211    1865.4121   -2986.3387    2.1539785    155.62621   0.17131175 
  198200   -938.34606    47.944252   -890.40181    1717.1892     721.1874    2.1632709    153.16451   0.17970856 
  198300   -945.40511    51.012523   -894.39259    1827.0836    1344.2528    2.1778852     151.7984   0.17508438 
  198400   -936.28613    49.507369   -886.77876    1773.1744    67.835941    2.1608931     154.0934   0.20820687 
  198500   -941.53497    51.500054   -890.03491    1844.5452   -6647.4062    2.1525725    158.46259   0.19653095 
  198600   -943.91802    48.243721    -895.6743    1727.9151    4533.3873    2.1808322    153.40258   0.17400161 
  198700   -936.91949     51.23108   -885.68841    1834.9115    4896.6471    2.1644685    157.64458   0.16756494 
  198800   -940.16997    50.168366    -890.0016    1796.8489   -7267.8976    2.1461018    142.50935   0.16498508 
  198900   -941.76084    45.698114   -896.06272    1636.7407    102.94451     2.167147    150.26882     0.158734 
  199000   -938.17692    51.047643   -887.12928    1828.3415     7299.442    2.1763509    147.19247   0.17933507 
  199100   -940.32823    52.544876   -887.78336    1881.9669   -2635.5024    2.1474223    155.70132   0.16230052 
  199200   -943.75538    48.425165   -895.33021    1734.4138   -8262.0558    2.1466846    162.62869   0.20652155 
  199300   -939.13068    49.745339   -889.38534    1781.6976    8588.2377    2.1794475    150.76208   0.19772005 
  199400    -937.5973    52.790904    -884.8064    1890.7787    3913.5321    2.1588017    154.73641   0.17049117 
  199500   -943.85969    49.346113   -894.51358    1767.3988   -10968.995    2.1407171    153.04841   0.18690546 
  199600   -942.12489    51.554438   -890.57045     1846.493    1092.6895    2.1650575    153.68571   0.16482303 
  199700   -933.37781    50.403998   -882.97381    1805.2884    9432.6306    2.1657983    156.20205   0.18185929 
  199800   -937.67967    45.181924   -892.49775    1618.2527   -4089.6332    2.1441923    155.62019   0.17155994 
  199900   -940.39785    47.547724   -892.85013     1702.987   -5354.6059    2.1433098    158.31544   0.17065691 
  200000   -940.16035    55.987611   -884.17274    2005.2732    11429.339    2.1771287    149.58653    0.1810823 
  200100   -939.14073    48.041036   -891.09969    1720.6557    2059.4327    2.1580818    149.85457   0.17544921 
  200200   -940.95577    43.932401   -897.02337    1573.4993   -12382.727    2.1303451    163.50047   0.17902558 
  200300   -941.29682    52.965141   -888.33168    1897.0193    6091.6835    2.1751658     154.8125   0.17213748 
  200400   -941.30881    52.524404   -888.78441    1881.2337    6390.5288    2.1763939    159.33446   0.15913087 
  200500   -946.06114    48.261518   -897.79962    1728.5526   -9397.8121    2.1478142    158.41924   0.16391412 
  200600   -940.03177    49.594124   -890.43765    1776.2817   -523.55697    2.1586738    157.40675   0.15683648 
  200700   -941.38058     54.33998    -887.0406     1946.261    2178.0504    2.1691892    155.70067    0.1817361 
  200800   -940.98798    45.792453   -895.19553    1640.1196   -2505.7857    2.1577615    160.63539    0.1627576 
  200900   -938.31688    50.452754   -887.86412    1807.0347   -4409.4174    2.1438792    161.01946   0.19408445 
  201000   -933.26624    48.802062   -884.46418    1747.9129    5810.6654    2.1607672    154.95337   0.18474321 
  201100   -944.18035    51.213677   -892.96668    1834.2882   -2173.3759     2.160097    212.88593   0.16818118 
  201200   -935.69105    46.031647    -889.6594    1648.6867   -2647.6697    2.1477752    206.12241    0.2030009 
  201300   -938.65827    54.343611   -884.31466    1946.3911   -2355.7753    2.1503861    206.36006   0.17042413 
  201400    -938.5232    47.489492   -891.03371    1700.9014    4404.0044    2.1666753    209.78782   0.19396914 
  201500   -939.19549    48.467582   -890.72791     1735.933    1783.0909    2.1640592    181.37033   0.18611196 
  201600   -936.86852    54.620715    -882.2478    1956.3159   -7446.0037    2.1349004    208.48121   0.20088957 
  201700   -940.50504    49.874563   -890.63048     1786.326    1712.6742    2.1639303    197.86568   0.19809753 
  201800   -939.26559    49.595391    -889.6702    1776.3271    8890.2336    2.1778705    208.96983   0.18659199 
  201900   -934.89353    53.135841   -881.75769    1903.1331   -7992.4135    2.1303658    208.25792   0.21251907 
  202000   -939.93979    49.846808   -890.09298    1785.3319   -7645.8003    2.1435007    201.85384   0.21474167 
  202100   -943.60143    53.545275   -890.05616    1917.7976    7490.1802    2.1899252    202.79338   0.20300489 
  202200    -939.2676    53.614228   -885.65338    1920.2672   -827.70659    2.1588021    210.07001   0.17526404 
  202300   -935.11502    50.206057   -884.90896    1798.1989    -14518.76    2.1168039    215.61155   0.22337566 
  202400   -941.05686    47.839514   -893.21735    1713.4379    12126.943    2.1936337    205.18317   0.17129248 
  202500   -942.07344    56.163211   -885.91023    2011.5625    4087.1164    2.1747229    214.20458   0.18690679 
  202600   -934.45655    47.430782   -887.02577    1698.7986   -11135.401    2.1261857     200.8321    0.2062159 
  202700   -940.95639    47.222632   -893.73376    1691.3434    -60.92897    2.1708341    191.95205   0.19475994 
  202800   -942.41286    51.811668   -890.60119    1855.7061     9394.211    2.1868161    207.51846   0.19860334 
  202900   -939.68588    54.221705   -885.46418    1942.0248   -6896.8977    2.1414652    207.84622   0.19439161 
  203000   -942.63458    51.461001   -891.17358    1843.1464   -1754.7071    2.1584658     213.6329   0.17597505 
  203100    -945.2569     53.98678   -891.27012    1933.6107    4201.7048    2.1794313    188.14281   0.19897821 
  203200   -937.45197    54.681397   -882.77057    1958.4893   -4888.4011    2.1430931    188.85665   0.20303886 
Loop time of 141.924 on 1 procs for 200000 steps with 217 atoms

Performance: 365.265 ns/day, 0.066 hours/ns, 1409.202 timesteps/s
100.0% CPU use with 1 MPI tasks x no OpenMP threads

MPI task timing breakdown:
Section |  min time  |  avg time  |  max time  |%varavg| %total
---------------------------------------------------------------
Pair    | 135.21     | 135.21     | 135.21     |   0.0 | 95.27
Neigh   | 3.4951     | 3.4951     | 3.4951     |   0.0 |  2.46
Comm    | 0.95126    | 0.95126    | 0.95126    |   0.0 |  0.67
Output  | 0.069818   | 0.069818   | 0.069818   |   0.0 |  0.05
Modify  | 1.8846     | 1.8846     | 1.8846     |   0.0 |  1.33
Other   |            | 0.3179     |            |       |  0.22

Nlocal:    217 ave 217 max 217 min
Histogram: 1 0 0 0 0 0 0 0 0 0
Nghost:    951 ave 951 max 951 min
Histogram: 1 0 0 0 0 0 0 0 0 0
Neighs:    4115 ave 4115 max 4115 min
Histogram: 1 0 0 0 0 0 0 0 0 0
FullNghs:  8230 ave 8230 max 8230 min
Histogram: 1 0 0 0 0 0 0 0 0 0

Total # of neighbors = 8230
Ave neighs/atom = 37.9263
Neighbor list builds = 5945
Dangerous builds = 90
Total wall time: 0:02:24
