LAMMPS (3 Mar 2020)
Reading data file ...
  orthogonal box = (0 0 0) to (12.27 12.27 12.27)
  1 by 1 by 1 MPI processor grid
  reading atoms ...
  108 atoms
  read_data CPU = 0.00094969 secs
Reading potential file /usr/share/lammps-stable/potentials/Ag_u3.eam with DATE: 2007-06-11
Neighbor list info ...
  update every 1 steps, delay 10 steps, check yes
  max neighbors/atom: 2000, page size: 100000
  master list distance cutoff = 7.55
  ghost atom cutoff = 7.55
  binsize = 3.775, bins = 4 4 4
  2 neighbor lists, perpetual/occasional/extra = 1 1 0
  (1) pair eam, perpetual
      attributes: half, newton on
      pair build: half/bin/atomonly/newton
      stencil: half/bin/3d/newton
      bin: standard
  (2) compute rdf, occasional, copy from (1)
      attributes: half, newton on
      pair build: copy
      stencil: none
      bin: none
Setting up Verlet run ...
  Unit style    : metal
  Current step  : 0
  Time step     : 0.001
Per MPI rank memory allocation (min/avg/max) = 3.723 | 3.723 | 3.723 Mbytes
Step PotEng KinEng TotEng Temp Press Density c_msdall[4] 
       0       -307.8    14.660686   -293.13931         1060    8476.8932    10.472245            0 
     100   -298.49185    9.0147259   -289.47712    651.78462    36781.999    10.472245  0.057399379 
     200   -295.67208    15.058299   -280.61378    1088.7483    50316.085    10.472245  0.065583279 
     300   -292.55359    18.373762   -274.17983    1328.4636    62774.757    10.472245  0.076091284 
     400   -293.35812    14.011579   -279.34654    1013.0681    57253.056    10.472245  0.081248664 
     500   -295.13492    16.376971   -278.75795    1184.0912    54076.976    10.472245  0.061981349 
     600   -293.60105    13.250404   -280.35065    958.03351    55242.979    10.472245  0.077519147 
     700    -292.5249     15.65953   -276.86537    1132.2187    61665.503    10.472245  0.080700854 
     800   -294.08994    15.151542    -278.9384      1095.49    55521.681    10.472245  0.068548487 
     900   -292.80285     12.68367   -280.11918    917.05738    58338.869    10.472245  0.077497468 
    1000   -292.14192    14.557001   -277.58492    1052.5034    62775.819    10.472245  0.073012621 
    1100   -293.86788    14.038135   -279.82974    1014.9882    56941.531    10.472245   0.07143648 
    1200   -295.22241    12.479279   -282.74313     902.2795    51119.032    10.472245  0.069252465 
    1300   -293.15122    14.886491   -278.26473    1076.3262    59744.645    10.472245  0.067419728 
    1400    -294.2486    16.583038   -277.66556    1198.9903    57406.919    10.472245  0.064367971 
    1500    -293.6536    13.957999    -279.6956    1009.1942    56689.581    10.472245    0.0817209 
    1600   -293.23271    16.620901   -276.61181    1201.7279     59629.39    10.472245  0.079929747 
    1700    -292.5752    14.417192     -278.158    1042.3948    59289.872    10.472245  0.077476453 
    1800   -294.14622    14.474918    -279.6713    1046.5686    55270.681    10.472245  0.074433114 
    1900   -292.28675    16.247205   -276.03955    1174.7088    61425.975    10.472245  0.077574187 
    2000   -292.53784      15.9277   -276.61014    1151.6079    62019.212    10.472245  0.077404527 
    2100   -293.02522    12.790479   -280.23474    924.77994     57584.78    10.472245  0.079073289 
    2200   -293.02945    14.644638   -278.38481    1058.8397    58958.556    10.472245  0.078515009 
    2300   -290.81887     16.56648   -274.25239    1197.7931    67618.599    10.472245  0.084660586 
    2400   -292.59197    14.432723   -278.15925    1043.5178    60220.263    10.472245    0.0844839 
    2500    -293.3282    13.621457   -279.70675    984.86145    58020.998    10.472245  0.078494108 
    2600   -295.63129    17.564182   -278.06711    1269.9292    51858.695    10.472245  0.061187148 
    2700   -293.67876    14.484991   -279.19377    1047.2969     56986.86    10.472245  0.082301312 
    2800    -292.0207    16.204971   -275.81573    1171.6553    63745.626    10.472245  0.079003858 
    2900   -293.16975    13.853505   -279.31624    1001.6391    58565.374    10.472245  0.072994803 
    3000   -293.56731    13.524768   -280.04255    977.87067    57002.451    10.472245   0.07358319 
    3100   -292.93482    16.594873   -276.33995     1199.846    61309.722    10.472245  0.076935152 
    3200   -292.23805    13.633571   -278.60448    985.73736     61784.99    10.472245  0.084143549 
    3300   -293.76024    15.433521   -278.32672    1115.8777     58456.92    10.472245  0.070494367 
    3400   -295.10565    14.362838   -280.74281    1038.4649    52992.135    10.472245  0.063760405 
    3500    -291.9973    15.845943   -276.15136    1145.6967    63023.681    10.472245  0.072649419 
    3600   -293.25693    15.617734    -277.6392    1129.1967    60051.717    10.472245  0.080212437 
    3700   -293.42122     12.37113   -281.05009    894.46003    56517.871    10.472245  0.076889128 
    3800    -295.8569    13.900419   -281.95648     1005.031    49545.107    10.472245  0.057790217 
    3900      -292.83    15.135574   -277.69443    1094.3355    59831.653    10.472245   0.08086752 
    4000    -292.4829     16.26401   -276.21889    1175.9239    62102.653    10.472245   0.07740385 
    4100   -294.13079    13.827587    -280.3032     999.7651    55162.264    10.472245  0.069758331 
    4200   -293.24391    15.201805    -278.0421    1099.1241    59214.877    10.472245  0.069537698 
    4300   -291.87685    12.499712   -279.37713    903.75682    61889.002    10.472245  0.081167343 
    4400    -293.1372    13.800186   -279.33702    997.78394    58185.975    10.472245  0.070310757 
    4500   -292.26402    14.848732   -277.41529    1073.5962    61750.062    10.472245   0.07670742 
    4600    -291.6759    12.610339   -279.06556    911.75544    62246.052    10.472245  0.094690441 
    4700   -291.88292    15.000782   -276.88214    1084.5897     62651.88    10.472245  0.085704818 
    4800   -293.18394    14.436161   -278.74778    1043.7663      58887.4    10.472245  0.078258007 
    4900   -294.56604    14.460832   -280.10521    1045.5501    54281.552    10.472245  0.074922679 
    5000   -293.95696    15.619014   -278.33794    1129.2893    56683.279    10.472245  0.077025814 
    5100   -293.05714    16.105606   -276.95154    1164.4709    60088.024    10.472245  0.080754674 
    5200   -294.44627    13.460711   -280.98556    973.23921    53521.335    10.472245  0.069290544 
    5300    -293.6815    15.891418   -277.79008    1148.9847    57749.013    10.472245  0.073294949 
    5400   -291.49955    15.023319   -276.47623    1086.2192    63587.481    10.472245    0.1019618 
    5500   -292.93054    14.771454   -278.15908    1068.0088    60144.128    10.472245  0.089357408 
    5600   -295.85315    14.665624   -281.18753    1060.3571    50063.038    10.472245  0.058798437 
    5700   -294.97351    14.586751   -280.38676    1054.6544    52059.947    10.472245  0.066113485 
    5800   -292.61455    15.761538   -276.85301    1139.5941    60608.585    10.472245  0.086007258 
    5900   -293.21557    14.825886   -278.38968    1071.9444    58621.075    10.472245  0.075133404 
    6000   -295.31182    14.053884   -281.25794    1016.1269    51661.276    10.472245  0.054868576 
    6100    -294.3027    14.368143   -279.93455    1038.8486    54457.477    10.472245  0.072598785 
    6200   -292.37509    14.718325   -277.65676    1064.1675    60541.892    10.472245   0.09142804 
    6300   -292.04511    15.361853   -276.68326     1110.696    63808.964    10.472245  0.083624185 
    6400   -294.33987    13.733674   -280.60619    992.97503    54209.696    10.472245  0.069712852 
    6500   -294.42613    15.453799   -278.97233    1117.3438    54264.342    10.472245  0.067650712 
    6600    -291.6047    13.940632   -277.66407    1007.9385    63420.612    10.472245  0.093954816 
    6700   -291.62207    16.129363   -275.49271    1166.1886    64208.007    10.472245  0.092922049 
    6800      -293.72    15.102364   -278.61763    1091.9343    56790.207    10.472245  0.081202088 
    6900   -294.06751    14.010433   -280.05708    1012.9853    54779.345    10.472245  0.074164501 
    7000   -294.79963    16.669208   -278.13042    1205.2206    55384.566    10.472245  0.068248511 
    7100   -292.56707     15.83178   -276.73529    1144.6727    60997.636    10.472245  0.087051349 
    7200    -292.3637    14.407007    -277.9567    1041.6585    61215.683    10.472245  0.078319665 
    7300   -295.18545    15.457044   -279.72841    1117.5784    53187.244    10.472245  0.061505953 
    7400   -293.89367    15.154255   -278.73941    1095.6862    56286.819    10.472245  0.071176073 
    7500   -290.27305    14.494416   -275.77863    1047.9783    67683.533    10.472245  0.084789205 
    7600   -293.28437    15.236041   -278.04833    1101.5994    59796.646    10.472245  0.076387793 
    7700   -293.93735    15.499019   -278.43833    1120.6134    56471.391    10.472245  0.078885051 
    7800   -292.07184    15.619095   -276.45275    1129.2952    64048.827    10.472245  0.075476855 
    7900   -293.78805     13.59586   -280.19219    983.01075     56482.16    10.472245  0.077443215 
    8000   -293.61002    15.104359   -278.50566    1092.0785    58229.405    10.472245   0.07432456 
    8100   -290.44788    17.212832   -273.23505    1244.5258    70364.242    10.472245  0.084313741 
    8200   -291.96926    15.192925   -276.77633    1098.4821    62693.837    10.472245   0.07422894 
    8300   -295.08223    13.816021   -281.26621    998.92888    52404.616    10.472245  0.053266932 
    8400   -292.96059    14.215167   -278.74542     1027.788    58845.045    10.472245  0.074305189 
    8500   -291.42123    14.603553   -276.81768    1055.8692    65454.902    10.472245  0.081154274 
    8600    -293.1435    14.296416   -278.84708    1033.6625    58200.554    10.472245  0.073458388 
    8700    -292.9713    13.364165   -279.60714     966.2587    59009.483    10.472245  0.080629789 
    8800   -292.53847     16.24443   -276.29404    1174.5082    61337.234    10.472245  0.077569408 
    8900   -292.43282    14.168769   -278.26405    1024.4333    61667.499    10.472245  0.084020858 
    9000   -293.19508    15.316352   -277.87873    1107.4061    58740.507    10.472245  0.078840554 
    9100   -294.90379    14.571031   -280.33276    1053.5178     53424.59    10.472245   0.06106499 
    9200   -294.06058    11.441545   -282.61903    827.24905    53189.583    10.472245  0.064011191 
    9300   -292.62236    14.064048   -278.55831    1016.8618    61136.694    10.472245  0.068440258 
    9400   -292.47187    14.245515   -278.22636    1029.9822    61406.924    10.472245  0.074864493 
    9500   -294.15593    13.407426   -280.74851    969.38659    55575.069    10.472245  0.066945892 
    9600   -293.91575    14.916016   -278.99973    1078.4609    57331.554    10.472245  0.059301098 
    9700   -291.78984    14.883334   -276.90651     1076.098    63679.992    10.472245  0.079971892 
    9800   -295.66967     15.05236   -280.61731    1088.3189    50743.715    10.472245  0.067615922 
    9900   -293.35701    13.705307   -279.65171    990.92404    57010.833    10.472245  0.071793822 
   10000   -292.47571    14.066956   -278.40875     1017.072    60634.393    10.472245   0.07939256 
Loop time of 2.07773 on 1 procs for 10000 steps with 108 atoms

Performance: 415.839 ns/day, 0.058 hours/ns, 4812.947 timesteps/s
100.0% CPU use with 1 MPI tasks x no OpenMP threads

MPI task timing breakdown:
Section |  min time  |  avg time  |  max time  |%varavg| %total
---------------------------------------------------------------
Pair    | 1.3845     | 1.3845     | 1.3845     |   0.0 | 66.64
Neigh   | 0          | 0          | 0          |   0.0 |  0.00
Comm    | 0.04178    | 0.04178    | 0.04178    |   0.0 |  2.01
Output  | 0.0016518  | 0.0016518  | 0.0016518  |   0.0 |  0.08
Modify  | 0.64023    | 0.64023    | 0.64023    |   0.0 | 30.81
Other   |            | 0.00954    |            |       |  0.46

Nlocal:    108 ave 108 max 108 min
Histogram: 1 0 0 0 0 0 0 0 0 0
Nghost:    990 ave 990 max 990 min
Histogram: 1 0 0 0 0 0 0 0 0 0
Neighs:    4644 ave 4644 max 4644 min
Histogram: 1 0 0 0 0 0 0 0 0 0

Total # of neighbors = 4644
Ave neighs/atom = 43
Neighbor list builds = 0
Dangerous builds = 0
Total wall time: 0:00:02
