LAMMPS (3 Mar 2020)
Reading data file ...
  orthogonal box = (0 0 0) to (17.469 17.469 17.469)
  1 by 1 by 1 MPI processor grid
  reading atoms ...
  217 atoms
  read_data CPU = 0.00096357 secs
Reading potential file library.meam with DATE: 2012-06-29
Reading potential file LiSi.meam with DATE: 2020-11-07
1 atoms in group Li
Neighbor list info ...
  update every 1 steps, delay 10 steps, check yes
  max neighbors/atom: 2000, page size: 100000
  master list distance cutoff = 6
  ghost atom cutoff = 6
  binsize = 3, bins = 6 6 6
  2 neighbor lists, perpetual/occasional/extra = 2 0 0
  (1) pair meam/c, perpetual
      attributes: full, newton on
      pair build: full/bin/atomonly
      stencil: full/bin/3d
      bin: standard
  (2) pair meam/c, perpetual, half/full from (1)
      attributes: half, newton on
      pair build: halffull/newton
      stencil: none
      bin: none
Setting up Verlet run ...
  Unit style    : metal
  Current step  : 0
  Time step     : 0.00214067
Per MPI rank memory allocation (min/avg/max) = 9.27 | 9.27 | 9.27 Mbytes
Step PotEng KinEng TotEng Temp Press Density c_msdli[4] 
       0   -951.04357    50.256344   -900.78722         1800   -114161.75    1.8918427            0 
     100   -917.73409    33.716921   -884.01716    1207.6178   -80655.017    1.8918427   0.27475646 
     200   -911.86833     52.91238   -858.95595    1895.1296    -69593.43    1.8918427   0.34084056 
     300   -898.32252    52.615532   -845.70699    1884.4975   -57717.271    1.8918427   0.12775065 
     400   -902.22949    46.817662   -855.41183    1676.8389   -64170.773    1.8918427    6.9229134 
     500   -902.78418    46.907353   -855.87682    1680.0513   -66057.981    1.8918427    4.0236341 
     600   -903.15317    56.049836   -847.10334    2007.5019   -63898.472    1.8918427    13.724797 
     700   -902.56474    48.528653   -854.03609    1738.1204   -66574.006    1.8918427    9.7046954 
     800   -904.81898    50.016393   -854.80259    1791.4058    -65373.05    1.8918427    13.170941 
     900    -897.6498    50.754859   -846.89494     1817.855   -62458.137    1.8918427    12.548692 
    1000   -903.08134    48.700204   -854.38114    1744.2647   -65691.438    1.8918427    10.804655 
    1100   -902.53012    49.473725   -853.05639    1771.9694   -63884.694    1.8918427    11.804956 
    1200   -901.73443    54.944138   -846.79029    1967.8998   -63250.073    1.8918427    14.433508 
    1300   -903.81877    47.093011   -856.72576    1686.7009    -66366.35    1.8918427    16.286592 
    1400   -899.64998    46.627781    -853.0222     1670.038   -64308.893    1.8918427    9.0199759 
    1500   -899.34009    50.140858   -849.19924    1795.8637   -62997.105    1.8918427    6.8577052 
    1600   -901.83227    49.525736   -852.30654    1773.8322   -66380.964    1.8918427     9.087037 
    1700   -903.53885    42.341819   -861.19703    1516.5304   -68800.579    1.8918427    8.2038149 
    1800   -902.36605    49.296534   -853.06952    1765.6231   -64932.869    1.8918427    9.1375387 
    1900   -899.68015    50.168145     -849.512     1796.841   -64192.342    1.8918427    14.691225 
    2000   -903.41106    47.200567   -856.21049    1690.5531   -68408.429    1.8918427    13.476419 
    2100   -903.06928    49.754112   -853.31517    1782.0119   -67338.756    1.8918427    14.486226 
    2200   -901.42534    52.733585   -848.69175    1888.7258   -67556.002    1.8918427    14.009917 
    2300   -900.91072    46.810022    -854.1007    1676.5652   -63760.501    1.8918427    13.099574 
    2400   -903.53333    45.908178   -857.62515    1644.2645   -68011.134    1.8918427    15.026062 
    2500    -898.3584    49.606667   -848.75174    1776.7309   -62654.741    1.8918427    11.991551 
    2600   -901.39788    47.655399   -853.74248    1706.8436   -65597.324    1.8918427    18.328226 
    2700   -903.33937    46.932879    -856.4065    1680.9655   -67181.784    1.8918427    15.820565 
    2800   -901.81029    50.678728   -851.13156    1815.1282   -65179.251    1.8918427    19.480894 
    2900   -903.59804    55.783613   -847.81442    1997.9667   -65761.099    1.8918427    18.007169 
    3000   -904.52779    52.975377   -851.55241    1897.3859   -66143.691    1.8918427    16.198122 
    3100   -904.39951    47.739724   -856.65978    1709.8638    -67000.05    1.8918427    14.184135 
    3200   -902.53881     56.90931    -845.6295    2038.2851   -64663.217    1.8918427    13.119633 
    3300   -900.19078     49.43439   -850.75639    1770.5606   -63578.993    1.8918427    15.062895 
    3400   -907.66756    52.443497   -855.22406    1878.3359   -71117.237    1.8918427    16.150635 
    3500   -899.27028    53.785313   -845.48497    1926.3948   -62650.753    1.8918427     13.90718 
    3600   -902.44818    51.005632   -851.44255    1826.8368   -63994.329    1.8918427    12.849735 
    3700   -905.61851    52.345952   -853.27256    1874.8422   -67090.669    1.8918427    16.273942 
    3800   -902.29587    55.232411   -847.06346    1978.2247   -63968.668    1.8918427    9.3056835 
    3900   -897.31032    54.102096   -843.20822    1937.7409   -58740.612    1.8918427    17.012024 
    4000   -905.46177     52.60989   -852.85188    1884.2955   -69300.526    1.8918427    12.566687 
    4100   -906.29934    52.237991   -854.06135    1870.9754   -71448.909    1.8918427    13.835931 
    4200   -902.63876    58.124492   -844.51427    2081.8085   -66086.899    1.8918427    10.932039 
    4300   -900.56352    47.869188   -852.69433    1714.5007   -68671.112    1.8918427    13.170946 
    4400   -903.20587    51.622119   -851.58375    1848.9171   -68734.975    1.8918427    10.722605 
    4500   -900.19255    52.891546     -847.301    1894.3834   -65663.677    1.8918427    13.073486 
    4600     -901.792    48.375491   -853.41651    1732.6346   -65922.925    1.8918427     13.49828 
    4700   -905.12288    50.808015   -854.31487    1819.7588   -68332.813    1.8918427    13.082331 
    4800   -901.83247    55.417644   -846.41482     1984.859   -69040.597    1.8918427    10.788391 
    4900   -902.09234    51.117034   -850.97531    1830.8268   -68823.428    1.8918427    15.088349 
    5000   -900.65508    44.290506   -856.36457    1586.3253   -67833.718    1.8918427    16.259624 
    5100    -903.4338    49.452592   -853.98121    1771.2125    -70422.46    1.8918427    12.297269 
    5200   -903.17083    55.838623   -847.33221     1999.937    -68857.53    1.8918427    13.802293 
    5300   -902.75329    46.409859   -856.34343    1662.2328   -69337.009    1.8918427    15.254101 
    5400   -898.62283    49.972736    -848.6501    1789.8422   -65581.303    1.8918427    20.361677 
    5500   -899.96291      50.9135   -849.04941    1823.5369   -67067.552    1.8918427    12.359024 
    5600   -901.37012     45.23206   -856.13806    1620.0483   -70211.877    1.8918427    19.590686 
    5700   -898.38348    52.686039   -845.69745    1887.0228   -64711.904    1.8918427    13.463844 
    5800   -902.72917    52.083997   -850.64518    1865.4599   -67414.605    1.8918427    15.461823 
    5900   -900.14083     46.23764   -853.90319    1656.0646   -66099.912    1.8918427    16.028511 
    6000   -895.44475    52.971722   -842.47303     1897.255   -59402.864    1.8918427    9.8558036 
    6100   -899.74577    52.256195   -847.48958    1871.6274   -62185.853    1.8918427    14.823363 
    6200   -904.18638    51.990929   -852.19545    1862.1265   -67032.402    1.8918427    13.483333 
    6300   -903.70809    49.166493    -854.5416    1760.9655   -67623.242    1.8918427    15.074991 
    6400   -904.79941      53.1768   -851.62261    1904.6001   -69652.658    1.8918427    16.286027 
    6500   -898.15715    50.809456   -847.34769    1819.8105    -63142.62    1.8918427      25.1995 
    6600    -908.6175    51.767214   -856.85029    1854.1139   -74715.672    1.8918427    21.688151 
    6700   -902.94423    51.044862   -851.89937    1828.2419   -67980.776    1.8918427    24.836715 
    6800   -899.21722       48.339   -850.87822    1731.3277   -70264.171    1.8918427    18.730283 
    6900    -903.2088    50.000132   -853.20867    1790.8234   -71196.492    1.8918427    25.950837 
    7000   -905.50524    46.355112   -859.15013     1660.272   -73341.255    1.8918427    21.279867 
    7100   -903.50679    53.798082   -849.70871    1926.8522   -68378.533    1.8918427    17.898277 
    7200   -902.69552    49.854524     -852.841    1785.6083   -67532.931    1.8918427    20.631139 
    7300   -905.71008    45.444231   -860.26585    1627.6476   -70285.981    1.8918427    18.915357 
    7400   -899.35839    49.248429   -850.10996    1763.9001   -63974.865    1.8918427    21.614636 
    7500   -904.42658    53.123175    -851.3034    1902.6795    -68472.86    1.8918427    19.717219 
    7600   -905.31493    47.275972   -858.03896    1693.2539    -69710.13    1.8918427    24.734016 
    7700   -900.84672    53.950499   -846.89622    1932.3112   -66608.445    1.8918427    22.564828 
    7800   -904.99407    50.480866    -854.5132    1808.0416   -70496.314    1.8918427     24.08434 
    7900   -905.24556    51.400168   -853.84539    1840.9676   -69813.389    1.8918427    22.832431 
    8000   -898.65308    53.115523   -845.53756    1902.4054   -62210.702    1.8918427    28.702643 
    8100   -900.49597    46.699484   -853.79649    1672.6062   -66190.307    1.8918427     55.27724 
    8200   -901.65615    50.772923   -850.88323     1818.502   -66593.531    1.8918427    52.488659 
    8300   -897.85882     54.51895   -843.33987    1952.6711   -65356.971    1.8918427    52.742779 
    8400   -901.04002    49.343712   -851.69631    1767.3128   -68880.395    1.8918427    48.451047 
    8500   -901.26543    48.098875   -853.16656    1722.7273   -66671.269    1.8918427    44.666583 
    8600    -898.3061    54.733314   -843.57279    1960.3488   -63856.262    1.8918427    47.431562 
    8700   -899.63873    47.062695   -852.57603    1685.6151   -64548.178    1.8918427    48.768435 
    8800   -902.08767    50.093145   -851.99453    1794.1548   -65900.807    1.8918427     40.21801 
    8900   -897.04853    54.574219   -842.47431    1954.6506   -61787.033    1.8918427    44.266591 
    9000    -901.6043    49.066396    -852.5379    1757.3804   -65061.004    1.8918427    47.015201 
    9100   -904.78234    52.608254   -852.17409    1884.2369   -69523.723    1.8918427    43.279539 
    9200   -902.19332    55.999839   -846.19348    2005.7111   -65702.238    1.8918427    47.357803 
    9300   -900.91052    47.732405   -853.17812    1709.6016   -66773.951    1.8918427    39.009735 
    9343   -905.07861    49.460431   -855.61818    1771.4933   -68824.054    1.8918427    36.178401 
Loop time of 5.20221 on 1 procs for 9343 steps with 217 atoms

Performance: 332.171 ns/day, 0.072 hours/ns, 1795.969 timesteps/s
100.0% CPU use with 1 MPI tasks x no OpenMP threads

MPI task timing breakdown:
Section |  min time  |  avg time  |  max time  |%varavg| %total
---------------------------------------------------------------
Pair    | 4.9298     | 4.9298     | 4.9298     |   0.0 | 94.76
Neigh   | 0.17717    | 0.17717    | 0.17717    |   0.0 |  3.41
Comm    | 0.042502   | 0.042502   | 0.042502   |   0.0 |  0.82
Output  | 0.0026999  | 0.0026999  | 0.0026999  |   0.0 |  0.05
Modify  | 0.038951   | 0.038951   | 0.038951   |   0.0 |  0.75
Other   |            | 0.01104    |            |       |  0.21

Nlocal:    217 ave 217 max 217 min
Histogram: 1 0 0 0 0 0 0 0 0 0
Nghost:    889 ave 889 max 889 min
Histogram: 1 0 0 0 0 0 0 0 0 0
Neighs:    3624 ave 3624 max 3624 min
Histogram: 1 0 0 0 0 0 0 0 0 0
FullNghs:  7248 ave 7248 max 7248 min
Histogram: 1 0 0 0 0 0 0 0 0 0

Total # of neighbors = 7248
Ave neighs/atom = 33.4009
Neighbor list builds = 324
Dangerous builds = 2
Total wall time: 0:00:05
