LAMMPS (3 Mar 2020)

# ---------- 1. Initialize simulation ----------
units metal
atom_style atomic
dimension 3
boundary p p p
read_data /home/modeler/RemLabs/Project/arrhenius_4/T1700.0/n3_T1700.0_timestep3.000000e-03_eqsteps3200_time600_rseed3343/20201205-143406/lammps.data
  orthogonal box = (0 0 0) to (17.469 17.469 17.469)
  1 by 1 by 1 MPI processor grid
  reading atoms ...
  217 atoms
  read_data CPU = 0.000972589 secs

pair_style meam/c
pair_coeff * * library.meam Li Si LiSi.meam Li Si
Reading potential file library.meam with DATE: 2012-06-29
Reading potential file LiSi.meam with DATE: 2020-11-07

group Li type 1
1 atoms in group Li
group Si type 2
216 atoms in group Si

velocity all create 1700.0 3343 dist gaussian

# ---------- 2. Specify equilibration ensemble  ----------
fix 1 all npt temp 1700.0 1700.0 0.15 tchain 2 iso 1.0 1.0 1.0 pchain 2
# fix 1 all nvt temp 1700.0 1700.0 0.15

# ---------- 3. Run equilibration -------------
timestep 0.003
run 3200
Neighbor list info ...
  update every 1 steps, delay 10 steps, check yes
  max neighbors/atom: 2000, page size: 100000
  master list distance cutoff = 6
  ghost atom cutoff = 6
  binsize = 3, bins = 6 6 6
  2 neighbor lists, perpetual/occasional/extra = 2 0 0
  (1) pair meam/c, perpetual
      attributes: full, newton on
      pair build: full/bin/atomonly
      stencil: full/bin/3d
      bin: standard
  (2) pair meam/c, perpetual, half/full from (1)
      attributes: half, newton on
      pair build: halffull/newton
      stencil: none
      bin: none
Per MPI rank memory allocation (min/avg/max) = 8.895 | 8.895 | 8.895 Mbytes
Step Temp E_pair E_mol TotEng Press Volume 
       0         1700   -951.04357            0   -903.57924   -114721.17    5330.9442 
    3200    1523.1132   -943.50385            0   -900.97823    -7871.644    4689.9637 
Loop time of 2.24368 on 1 procs for 3200 steps with 217 atoms

Performance: 369.679 ns/day, 0.065 hours/ns, 1426.230 timesteps/s
100.0% CPU use with 1 MPI tasks x no OpenMP threads

MPI task timing breakdown:
Section |  min time  |  avg time  |  max time  |%varavg| %total
---------------------------------------------------------------
Pair    | 2.1796     | 2.1796     | 2.1796     |   0.0 | 97.14
Neigh   | 0.016487   | 0.016487   | 0.016487   |   0.0 |  0.73
Comm    | 0.013772   | 0.013772   | 0.013772   |   0.0 |  0.61
Output  | 2.477e-05  | 2.477e-05  | 2.477e-05  |   0.0 |  0.00
Modify  | 0.029092   | 0.029092   | 0.029092   |   0.0 |  1.30
Other   |            | 0.004692   |            |       |  0.21

Nlocal:    217 ave 217 max 217 min
Histogram: 1 0 0 0 0 0 0 0 0 0
Nghost:    957 ave 957 max 957 min
Histogram: 1 0 0 0 0 0 0 0 0 0
Neighs:    4136 ave 4136 max 4136 min
Histogram: 1 0 0 0 0 0 0 0 0 0
FullNghs:  8272 ave 8272 max 8272 min
Histogram: 1 0 0 0 0 0 0 0 0 0

Total # of neighbors = 8272
Ave neighs/atom = 38.1198
Neighbor list builds = 28
Dangerous builds = 0

# ---------- 4. Describe computed properties----------
compute msdli Li msd
compute msdsi Si msd
thermo_style custom step pe ke etotal temp press density c_msdli[4] c_msdsi[4]
thermo 100

# ---------- 3. Run production -------------
timestep 0.003
run 200000
Per MPI rank memory allocation (min/avg/max) = 9.663 | 9.663 | 9.663 Mbytes
Step PotEng KinEng TotEng Temp Press Density c_msdli[4] c_msdsi[4] 
    3200   -943.50385    42.525613   -900.97823    1523.1132    -7871.644    2.1504022            0 5.360505e-32 
    3300   -944.65045    47.216501   -897.43395    1691.1238    2763.9822    2.1784238   0.31486991   0.10591732 
    3400   -946.83514    55.329901   -891.50524    1981.7164    5329.3545    2.1873788  0.022210815   0.12366772 
    3500   -947.26424    48.505146   -898.75909    1737.2784   -7898.0211    2.1593743   0.18500314   0.11830815 
    3600   -946.04381    48.830058   -897.21376    1748.9156   -8322.8656    2.1540865   0.33501211   0.15287861 
    3700   -938.61918    49.774636   -888.84454     1782.747    7930.5986    2.1753241   0.37288171   0.11357465 
    3800   -943.03241    46.374449   -896.65796    1660.9646    5696.8377    2.1816796   0.13337991   0.10880085 
    3900   -943.78491    44.414794   -899.37011    1590.7769   -6785.7268    2.1530356   0.60820981   0.11775211 
    4000   -937.66011    46.988279   -890.67184    1682.9498   -3891.8791    2.1544793  0.033881491   0.12307152 
    4100   -945.78754    48.955237   -896.83231     1753.399    8796.1849    2.1932976   0.51604165   0.10421255 
    4200   -943.05409    43.540756   -899.51334     1559.472   -1274.3107    2.1616711  0.029243454   0.10082099 
    4300   -940.19301    46.090237   -894.10277    1650.7851   -5931.2699    2.1477234   0.31985918   0.11666618 
    4400   -937.76852    44.828084   -892.94044    1605.5794    8821.6591    2.1817072   0.20913269   0.15524877 
    4500   -943.06675    41.708849    -901.3579    1493.8597    8700.1199    2.1944691    0.3863089   0.13714504 
    4600   -942.29982    46.005813   -896.29401    1647.7614   -6413.0879    2.1508987   0.24963132   0.14431147 
    4700   -943.81546    49.491137   -894.32432     1772.593   -6357.2213    2.1554354   0.60204722   0.12007138 
    4800   -950.82759     48.00051   -902.82708    1719.2042    8578.3519    2.2086963   0.33356475   0.11013735 
    4900   -946.11462    49.591412   -896.52321    1776.1845   -1123.6598    2.1732366   0.18145524   0.11150766 
    5000   -939.40648    44.384601   -895.02188    1589.6954   -6378.3735    2.1482239   0.28137051    0.1466212 
    5100   -946.31921    47.122762   -899.19644    1687.7664    445.25396    2.1778034  0.061510981    0.1082104 
    5200   -948.88065    46.635657   -902.24499    1670.3201    5387.8791    2.1982615   0.13323115   0.12340672 
    5300   -940.55971    48.009205    -892.5505    1719.5156   -6711.7467    2.1459073   0.36729337   0.13285435 
    5400   -945.64615    48.018611   -897.62754    1719.8525   -5241.0186     2.160368   0.14038852   0.13341462 
    5500    -942.1364    43.836998    -898.2994    1570.0823    10646.094    2.1971872   0.12763943   0.18659315 
    5600    -935.7781    47.529283   -888.24882    1702.3265   -28.832951    2.1585322   0.21324978   0.15730514 
    5700   -945.66121     49.34849   -896.31272    1767.4839   -7414.6216    2.1584639   0.48758184   0.13167628 
    5800   -947.30682    49.132928   -898.17389    1759.7633     859.3541    2.1784219  0.095146837   0.12872404 
    5900   -943.32813     51.71408   -891.61405    1852.2108    4876.3544    2.1826793  0.036059264   0.12387432 
    6000   -940.73769     48.18188   -892.55581    1725.7002   -5438.0701    2.1518827  0.090699752   0.13739202 
    6100   -944.30631    44.510353   -899.79595    1594.1994   -4961.2089    2.1646934  0.042881997   0.13713413 
    6200   -943.92238    49.712371   -894.21001    1780.5168    9109.2255    2.1897194   0.75609849   0.13003519 
    6300   -942.35873    50.345895   -892.01284    1803.2074    1910.0435     2.167915    0.3670806   0.13578359 
    6400    -948.8034    46.586396     -902.217    1668.5558   -8612.8098    2.1607902   0.23160202   0.13454096 
    6500   -945.57658    47.411612   -898.16497     1698.112   -1943.3818    2.1712999    0.5477765   0.13704454 
    6600    -944.2105    51.324607    -892.8859    1838.2613    7487.0651    2.1875793  0.053855349   0.13282181 
    6700   -947.12153    47.176936   -899.94459    1689.7068   -6240.2998     2.163263   0.41310245   0.12499442 
    6800   -949.19233    47.895029    -901.2973    1715.4262   -12017.796     2.149049   0.27872079  0.096688924 
    6900   -945.56644    51.898611   -893.66783      1858.82    9525.6686    2.1920722    0.4112676   0.11980929 
    7000   -943.06084    46.684855   -896.37598    1672.0822    8422.7919     2.189673   0.16909036   0.12765346 
    7100   -947.99147    44.773739   -903.21773     1603.633   -17137.374    2.1388325   0.16711107   0.11383631 
    7200   -943.94492    48.312662   -895.63226    1730.3843   -3395.4047    2.1603403   0.20786516   0.13285375 
    7300   -943.02193     50.82974   -892.19219     1820.537    14886.913    2.2041081   0.64160819   0.13115182 
    7400   -946.36679    46.471328   -899.89546    1664.4344   -3328.8471     2.170216   0.29225912   0.12321889 
    7500   -942.89032    48.058893   -894.83143    1721.2953   -7016.1196    2.1556583   0.11646332   0.13524214 
    7600    -939.1786    48.436446   -890.74216    1734.8178    2703.9844     2.167306   0.52505543   0.13690901 
    7700   -947.63858    48.729779    -898.9088     1745.324    1440.5214    2.1868766   0.11478303   0.12104754 
    7800   -940.69734    44.609213   -896.08813    1597.7402     903.1363    2.1670019  0.089509873   0.13426026 
    7900    -939.4813    49.088277   -890.39302    1758.1641   -4774.3858     2.148746   0.82132282   0.13653867 
    8000   -944.63548    44.491852   -900.14363    1593.5368    7290.8629    2.1894663   0.51059163   0.12662893 
    8100   -941.44065    44.967893   -896.47276    1610.5868    3821.7123    2.1737706   0.23238057   0.12542434 
    8200    -938.6387    46.000668   -892.63803    1647.5771   -5064.1514    2.1443699   0.52221011   0.14654841 
    8300   -950.36137    47.541534   -902.81984    1702.7653   -567.68236     2.182833  0.016215807   0.13028209 
    8400   -942.30439    44.299334   -898.00506    1586.6415    6184.2351    2.1839871  0.014663731   0.13924255 
    8500   -939.98032     45.99189   -893.98844    1647.2627   -2381.9947    2.1585278   0.36320956   0.13893174 
    8600   -948.45807    47.813737   -900.64433    1712.5147   -6019.3915    2.1624474  0.079342225   0.11715727 
    8700   -944.90211    44.583293   -900.31882    1596.8119    6966.7345    2.1881813   0.26577351   0.11785264 
    8800   -941.16083    48.449944   -892.71089    1735.3013    5997.2494    2.1751061  0.081838687    0.1334645 
    8900   -947.44694    48.957662   -898.48928    1753.4859   -12214.796    2.1472286   0.24164662   0.12789446 
    9000   -947.57235    46.801124   -900.77122    1676.2465   -991.33708    2.1732401   0.22849956    0.1151285 
    9100   -942.89252     52.24214   -890.65038     1871.124    10810.267    2.1907999  0.026653494   0.13026595 
    9200   -941.68791    46.361519   -895.32639    1660.5015    108.51941    2.1661446  0.052637853    0.1339527 
    9300   -944.04168    43.515065   -900.52662    1558.5518   -10209.064     2.148864   0.13625344   0.13931977 
    9400   -942.22379    49.158781   -893.06501    1760.6893    6432.3579    2.1825244   0.11080524   0.14180886 
    9500    -941.5896    49.276229   -892.31337    1764.8958    9002.6591    2.1879278   0.44757934   0.14941598 
    9600   -945.48679    45.236188   -900.25061    1620.1962   -6380.5225    2.1566237   0.35499974   0.12718867 
    9700   -941.90191    46.253757   -895.64815    1656.6418   -2946.8133    2.1604982   0.43125221   0.14485297 
    9800   -937.32599    46.831411   -890.49458    1677.3313    8245.7189    2.1789798   0.14428142   0.14960575 
    9900    -946.8379    46.290009    -900.5479    1657.9402    2017.4215    2.1828049   0.33404271   0.13184529 
   10000   -942.85122    45.501787   -897.34943     1629.709   -4190.9531    2.1580596  0.028022015   0.12821672 
   10100   -940.51494    48.351411   -892.16352    1731.7722   -86.946201    2.1625475   0.12317769   0.12479789 
   10200   -944.50886    43.101364    -901.4075    1543.7345    6034.3187    2.1883566   0.18952423   0.14135906 
   10300   -945.39092    47.306102   -898.08482     1694.333   -2698.6767    2.1672826   0.15145051   0.13441557 
   10400   -945.32143    51.815529    -893.5059    1855.8443   -4723.7736    2.1579473   0.28350645   0.13903219 
   10500   -945.42061    44.219628   -901.20098    1583.7867    3320.0551     2.182928   0.32519753   0.13426513 
   10600   -949.06599    50.595092    -898.4709    1812.1327   -708.65364    2.1792559    0.3121326   0.12105636 
   10700   -940.37172    47.284509   -893.08721    1693.5596    -1469.998     2.156821   0.26453885   0.12211231 
   10800   -948.67972    48.389474   -900.29024    1733.1355   -4555.3533     2.167297    0.1538785   0.11912923 
   10900   -947.37818    48.825843   -898.55234    1748.7646    3110.6707    2.1815813   0.12189129   0.11863962 
   11000   -942.83485    51.315035   -891.51982    1837.9185   -682.87051    2.1605701    0.6648151   0.12832064 
   11100   -945.10365    45.741139   -899.36251    1638.2817   -6493.8187     2.153706   0.27481589   0.11907156 
   11200   -944.36845    47.033025   -897.33543    1684.5524    1539.0632    2.1718652   0.23517051   0.12146328 
   11300   -945.08722    56.091374   -888.99585    2008.9896    3359.6083    2.1723072   0.13295187    0.1363924 
   11400   -946.22923    48.512476   -897.71676     1737.541   -4251.5046    2.1613184  0.041055079   0.12941832 
   11500    -942.4549     44.13305   -898.32185    1580.6858   -6694.0403    2.1492477   0.16780898   0.13221144 
   11600   -939.81731    50.139549   -889.67776    1795.8168    6464.8613    2.1743377   0.18004988   0.13284931 
   11700     -944.397    47.291991   -897.10501    1693.8276    8159.9971    2.1880778  0.090266058   0.11231131 
   11800   -945.47822    45.392654   -900.08557    1625.8002   -9763.9267    2.1460039   0.31935738   0.12307557 
   11900   -943.19234    49.620001   -893.57234    1777.2085   -6172.6988    2.1520174   0.13813313    0.1390077 
   12000   -940.79201    43.604832   -897.18717     1561.767    14405.137     2.193265    8.9975567   0.15652757 
   12100   -946.32753    44.425844   -901.90169    1591.1726     729.5576    2.1747351    9.7254168   0.14708976 
   12200   -942.48858    48.175299   -894.31328    1725.4645   -8080.0405    2.1468438    7.0939149   0.15911027 
   12300   -937.79402    43.538362   -894.25566    1559.3862     4683.282    2.1736322    10.482463   0.15996159 
   12400   -942.77949    40.912718   -901.86677    1465.3452    8031.2912    2.1917405    5.4309629   0.16916286 
   12500    -940.6059    47.851532   -892.75437    1713.8684   -8875.4081    2.1443263    6.3670204   0.16414958 
   12600   -939.80983    46.061922   -893.74791     1649.771    749.38194    2.1616297    12.109418    0.1779854 
   12700   -939.75682    43.034749   -896.72207    1541.3486    9193.4167    2.1903048    11.328935   0.18382429 
   12800   -940.57847    53.321556   -887.25691    1909.7848   -2877.1881    2.1515768    23.650158   0.13974178 
   12900   -939.42049    47.595946   -891.82454    1704.7142   -8222.5211    2.1403674    16.961631   0.15751854 
   13000   -944.07477    47.647151   -896.42762    1706.5481    2557.2708    2.1763723    19.002064   0.16822438 
   13100   -941.60505    48.589783   -893.01527    1740.3098     18097.57    2.2120694    18.585787   0.14207457 
   13200   -940.47284    49.669083   -890.80376    1778.9664    -16815.26    2.1169918    22.786437   0.14448634 
   13300   -946.39893    44.217575   -902.18136    1583.7132   -10719.047    2.1558421    25.128407   0.13767323 
   13400   -944.64316    46.978678   -897.66448    1682.6059    14883.845    2.2089568    22.461906   0.16093377 
   13500   -945.80871    51.427861   -894.38085    1841.9595     1174.956    2.1736221    25.608939   0.13919078 
   13600   -942.54544    47.232486   -895.31295    1691.6963   -12146.188    2.1369653    26.167841   0.13993847 
   13700   -948.79131    45.754188   -903.03712    1638.7491    3243.2521    2.1900017    25.104307   0.13983758 
   13800   -943.53354    49.277622   -894.25592    1764.9457    8791.7927    2.1869056    22.480435   0.12664032 
   13900    -943.1786    46.949019   -896.22959    1681.5436   -6561.5591    2.1543431     26.78946   0.14188857 
   14000   -946.60019    43.385204   -903.21499    1553.9007   -3926.2815    2.1680208    25.261731   0.11523114 
   14100   -943.89486    46.649311   -897.24555    1670.8091    8569.9086    2.1934349    24.879493   0.13753419 
   14200   -941.78922    47.870348   -893.91887    1714.5423    3684.7493    2.1777574    27.443704   0.14198015 
   14300   -940.92046    41.189295   -899.73116    1475.2512   -5491.6493    2.1544263    23.670489   0.14603423 
   14400   -944.62469    48.296573   -896.32811    1729.8081    528.93603    2.1727694    25.265141   0.14609219 
   14500   -936.79935    46.529334   -890.27002     1666.512    9351.7455    2.1795679     22.97326   0.14021199 
   14600   -944.94276    47.048666    -897.8941    1685.1126   -1825.4092    2.1692103    25.553594   0.12996155 
   14700   -945.90626    48.111965    -897.7943    1723.1961   -5459.5435    2.1609443    23.705653   0.12866296 
   14800   -936.59111    48.067461   -888.52365    1721.6021    6779.5644    2.1681518    23.182573   0.14384292 
   14900   -943.01446    46.240212   -896.77424    1656.1567    10613.056    2.1921865    24.517608   0.14543271 
   15000   -941.79232    42.893627   -898.89869    1536.2942   -6561.6776    2.1463585    25.084645    0.1248036 
   15100   -941.74703    49.110647   -892.63639    1758.9653   -5821.8363    2.1467263    27.080446   0.11882578 
   15200    -944.9718     47.16812   -897.80368     1689.391    19814.345    2.2216082    24.329849   0.14245358 
   15300   -947.47197    46.598359   -900.87361    1668.9842   -2360.0368    2.1747097    24.309836   0.12996353 
   15400   -944.83604    47.967094   -896.86895    1718.0073   -19727.273    2.1250917     23.96367   0.13186893 
   15500   -944.22561    51.232669   -892.99294    1834.9684    5217.2942    2.1818073    20.529137   0.13595177 
   15600   -945.18913    44.489307   -900.69982    1593.4456    10359.203    2.2029564    25.362294   0.14020903 
   15700   -944.04936     45.51698   -898.53238    1630.2532   -5185.6616    2.1570339    24.478112   0.12779285 
   15800   -944.74181    51.227576   -893.51424     1834.786   -4879.3592    2.1549986    22.619249   0.12509455 
   15900    -949.6978    51.715634   -897.98217    1852.2665    1718.9639    2.1836452    25.745823   0.12584576 
   16000   -950.77182     49.36749   -901.40433    1768.1644   -263.06493    2.1820137    28.437112   0.12121199 
   16100   -938.39119    47.399005   -890.99218    1697.6605   -4617.5247    2.1425018    24.288802   0.13232162 
   16200   -947.36681    50.478548   -896.88826    1807.9585    1497.3843      2.17551    24.682993   0.13048926 
   16300   -948.58808    49.674631   -898.91345    1779.1651    5074.6302    2.1899549     23.40401   0.13551256 
   16400   -941.71194    51.553976   -890.15796    1846.4764   -6217.3744    2.1464612    25.131273   0.13586486 
   16500   -943.85033    47.763495   -896.08683    1710.7152    -4912.778    2.1569063    23.438393   0.13471799 
   16600   -947.64311    49.359452   -898.28366    1767.8766    4434.1292    2.1877172    25.748805   0.11845884 
   16700   -943.96836    51.601409   -892.36695    1848.1753    2141.3692    2.1701163    27.210139   0.12681313 
   16800    -941.6977    48.016497   -893.68121    1719.7768   -9068.0318    2.1390048    24.765249   0.12828513 
   16900    -948.7746    48.055002    -900.7196    1721.1559   -544.01436    2.1757141     25.46472   0.12715996 
   17000   -944.31399    50.913504   -893.40048    1823.5371    11956.591    2.1982975     23.53984   0.12791127 
   17100   -942.61497    46.919041   -895.69593    1680.4699   -6235.7384     2.151413    23.019616   0.12639174 
   17200   -946.38324    42.079951   -904.30329    1507.1512   -11202.005    2.1503518    23.182075   0.12198173 
   17300   -946.18836    49.436617   -896.75174    1770.6403       7985.4    2.1908035    21.969389   0.12360525 
   17400   -945.79199    51.690328   -894.10166    1851.3601    5530.6162    2.1836888    26.103927   0.13331223 
   17500   -946.81157    45.298094   -901.51348    1622.4135   -9857.6751    2.1502665    26.829773   0.12325851 
   17600   -946.96127    47.450113   -899.51116     1699.491   -1595.5693    2.1679829    25.154488   0.11180892 
   17700   -943.50721    50.697425   -892.80978    1815.7979    4662.1186    2.1733304    25.513134   0.12046997 
   17800   -947.00595    47.852132   -899.15382    1713.8898   -2790.1318    2.1669075    24.653095   0.10461276 
   17900   -948.76623      49.4365   -899.32973    1770.6361   -3305.1726    2.1652711    25.334526   0.10623859 
   18000   -942.29461     51.37635   -890.91826    1840.1145   -3107.0886     2.155061    25.146227   0.12479395 
   18100   -944.85893    47.149168   -897.70976    1688.7122    1076.4035    2.1736625    24.099462   0.12778666 
   18200   -944.98167      45.8048   -899.17687    1640.5618   -807.56541    2.1696091    27.201118   0.13680464 
   18300   -936.09171    46.212521   -889.87919    1655.1649    263.15138    2.1497229    23.763188   0.12976254 
   18400   -944.78118    46.799997   -897.98119    1676.2062    3771.6433    2.1774328    22.352776   0.12266749 
   18500   -943.95489     45.18036   -898.77453    1618.1966    1571.8374    2.1698945    23.844156    0.1178076 
   18600   -937.23788    46.041947   -891.19593    1649.0556    583.78655      2.14986    26.213642   0.12999559 
   18700   -942.85357    44.245888   -898.60768    1584.7273    3482.5873    2.1751406    23.146074   0.11974202 
   18800   -943.66255    44.532821   -899.12973    1595.0042    3481.9731    2.1762719    21.652354   0.11999863 
   18900   -943.46027    50.053166    -893.4071    1792.7229   -3885.6482    2.1562037    27.290797   0.11984594 
   19000   -943.63065    47.572151    -896.0585    1703.8619   -2919.1902    2.1629662    23.766445   0.12277742 
   19100   -947.81244    46.804724   -901.00771    1676.3755    5106.0578    2.1891276    21.492422   0.13309608 
   19200   -939.26732    45.460994   -893.80632    1628.2479    3253.1107    2.1700043    26.293423   0.14949281 
   19300   -943.22499    46.427437   -896.79756    1662.8624   -8377.2085    2.1497745    24.086975   0.14150415 
   19400   -949.39446    46.540327   -902.85413    1666.9057    1295.0929    2.1831278    24.346703   0.14199705 
   19500   -939.51676    46.416704   -893.10006     1662.478     8709.063    2.1849778    24.160296   0.11311531 
   19600   -942.40766    46.712768   -895.69489     1673.082   -3551.9425    2.1586937    22.402742   0.13318515 
   19700   -943.75764    42.111644     -901.646    1508.2864   -4673.4328    2.1589533    23.126028   0.13066017 
   19800   -942.50262    46.856363   -895.64626     1678.225    10000.415     2.191256    25.822356   0.13035124 
   19900   -941.41505    48.896377   -892.51867    1751.2909    7132.6956    2.1826132     21.82031   0.15027417 
   20000   -945.39685    45.403615   -899.99324    1626.1928   -11262.663    2.1469394    24.641253   0.12298732 
   20100    -947.6124    52.063584   -895.54881    1864.7288   -4096.1653    2.1640595    23.337079   0.13673841 
   20200   -946.74651    58.007702   -888.73881    2077.6255    4495.6103    2.1835515    22.374845   0.14837815 
   20300   -947.17329    48.930113   -898.24317    1752.4992   -2400.1233    2.1723641    21.757932   0.13521448 
   20400   -945.46299    47.941627   -897.52137    1717.0952   -6871.0614    2.1577327    24.799275   0.12601428 
   20500   -938.76646    49.256183   -889.51027    1764.1779    2643.8108    2.1641312    22.991271   0.12358568 
   20600    -945.5023    47.149264   -898.35303    1688.7156    3281.7053    2.1835914     24.24567   0.12283122 
   20700   -944.84389    46.108993    -898.7349    1651.4569   -3960.3087    2.1620539    28.249765   0.12920513 
   20800   -940.38854    48.043344   -892.34519    1720.7383   -646.62179    2.1602221    23.985446   0.12438152 
   20900   -946.48013    47.330005   -899.15012    1695.1891    477.24568    2.1814131    25.168788   0.15175388 
   21000    -946.5077    46.174595   -900.33311    1653.8065    -621.2006    2.1741661     24.09235   0.12235202 
   21100   -939.85871    46.333608    -893.5251    1659.5018    226.43758    2.1615505    25.818784   0.13559804 
   21200   -942.53313    44.356464   -898.17667    1588.6877    3442.8137    2.1757476    23.803352   0.13647744 
   21300   -949.22093     47.59519   -901.62574    1704.6871   -81.045509    2.1834237    25.926803    0.1367993 
   21400   -943.39567    50.037277   -893.35839    1792.1538   -1697.8819    2.1618734    26.797653   0.13170006 
   21500   -943.84179    46.054755   -897.78704    1649.5143   -640.51161    2.1684559    24.921432   0.13145327 
   21600   -948.93639    47.585992    -901.3504    1704.3577    1501.3157    2.1853064    23.438807   0.13996888 
   21700   -936.44416    44.459105   -891.98505    1592.3639    1902.4884    2.1617397    24.273297   0.14369499 
   21800   -943.86469    46.405039   -897.45965    1662.0602   -4627.6696    2.1597605     28.34877   0.13855909 
   21900   -947.87625    48.640061   -899.23619    1742.1106     538.1585    2.1800486    23.092135   0.14432253 
   22000   -941.63042    52.390208   -889.24021    1876.4273    1435.1766    2.1625669    25.185448   0.13903619 
   22100   -946.55975    50.224175   -896.33557    1798.8478   -2319.7622    2.1672715    27.742157   0.13792432 
   22200   -943.67156    44.566566   -899.10499    1596.2128   -2773.7626    2.1691273    24.929292   0.15358318 
   22300    -944.1612    53.687382   -890.47381    1922.8873    139.60028    2.1668498    27.284401   0.14753511 
   22400   -948.72852    53.043201   -895.68532    1899.8151   -874.85351    2.1738995     25.79084   0.12765742 
   22500   -943.71836    44.121167   -899.59719    1580.2602   -3381.6023    2.1603064    24.785033    0.1443143 
   22600   -943.44004      49.9475   -893.49254    1788.9383    -505.0179    2.1655841    24.282849   0.13827967 
   22700    -942.8247    47.786375   -895.03832    1711.5347    6050.8981    2.1844408    26.156092   0.12884335 
   22800   -945.16091    43.956326   -901.20458    1574.3562    952.17979    2.1737603     25.65606   0.14096253 
   22900   -944.43171    48.560727   -895.87099    1739.2691   -4515.3687     2.157366    21.945825   0.12640813 
   23000   -939.47876    46.687972   -892.79079    1672.1938    4186.7705    2.1694876    23.835627     0.149898 
   23100   -948.36753    45.722814   -902.64471    1637.6254    5914.5678    2.1940293    22.020554   0.14651161 
   23200   -946.96218    50.145527   -896.81665    1796.0309    -10566.24     2.149167     23.50561   0.12925051 
   23300   -944.19806    49.436074   -894.76199    1770.6209    -4419.208    2.1565757     23.65163   0.13860101 
   23400   -950.52644     49.66778   -900.85866    1778.9198    7309.2358    2.2035577    21.160808   0.12030812 
   23500   -945.66271    44.276402   -901.38631    1585.8201    2635.8977    2.1799039    23.294355   0.13693431 
   23600   -941.88032    47.382154   -894.49817    1697.0569   -14655.906    2.1275321    23.838778   0.12917991 
   23700   -943.73457    46.377416   -897.35716    1661.0709    2525.5704    2.1758432    22.525073   0.13446319 
   23800   -944.54507     44.71118   -899.83389    1601.3923    14343.186    2.2095784    21.572928    0.1485498 
   23900   -938.29875    48.251099   -890.04765    1728.1794   -9019.9504    2.1338563    27.377332    0.1356385 
   24000   -948.04634    51.184211   -896.86213    1833.2328   -7624.6014    2.1533399    24.118746   0.13315282 
   24100    -941.2361    43.346264   -897.88984     1552.506    10466.066    2.1874078    24.803656   0.14019848 
   24200   -939.54296    48.646054   -890.89691    1742.3253    2827.3186    2.1643928    23.496054   0.14002731 
   24300   -937.02615    43.961646    -893.0645    1574.5467   -3938.8137    2.1438547    33.564869   0.14594507 
   24400   -942.12496    43.937153   -898.18781    1573.6695     1525.697    2.1694477    34.832133   0.15062087 
   24500    -947.0822    55.020691   -892.06151    1970.6416    4344.3638    2.1790202    33.008261   0.14418568 
   24600     -943.372    50.567743   -892.80426    1811.1532   -3368.6471    2.1537459    31.554506   0.15567369 
   24700   -944.23731    43.933281   -900.30403    1573.5308    -3590.363    2.1646753    32.201233   0.15899876 
   24800   -945.32885    51.925519   -893.40333    1859.7838   -1986.6655    2.1670864    29.859185   0.16414381 
   24900   -944.53175    51.741036   -892.79071    1853.1763   -2566.7502    2.1584702     25.97776   0.12417314 
   25000   -948.92801    47.185029   -901.74298    1689.9966    672.09759    2.1815643    25.584653   0.13691965 
   25100   -942.74648    47.110836   -895.63564    1687.3393   -1074.1538    2.1660072    23.341731   0.12420009 
   25200   -941.67045    47.785887   -893.88456    1711.5172   -3530.7659    2.1582269     24.27195   0.13633033 
   25300   -947.65267    44.909408   -902.74326    1608.4921    3160.7468    2.1851052    22.105137   0.14484242 
   25400   -940.69439    45.654694   -895.03969    1635.1856     6374.379    2.1771041     26.71802   0.12120277 
   25500    -943.1421     48.23294   -894.90916     1727.529   -6687.3337    2.1555915    23.253538   0.14435163 
   25600   -947.32719    43.820429   -903.50676    1569.4889   -2309.1267    2.1696079    20.585004   0.11529559 
   25700   -945.75908    48.980677    -896.7784    1754.3102    5105.2152    2.1861128    22.406405   0.13016569 
   25800   -941.95467    48.216066    -893.7386    1726.9246    3572.7881    2.1712386    25.273287   0.12494266 
   25900   -947.73956     46.13147   -901.60809     1652.262    -10866.32    2.1498826    23.660007   0.11839167 
   26000   -945.25278    47.430341   -897.82244    1698.7828   -1352.0676     2.166987    24.141349    0.1273977 
   26100   -941.70151    49.865263   -891.83625    1785.9929    10728.822    2.1867576    25.262888   0.13365704 
   26200   -944.40539    45.214597    -899.1908    1619.4229    -2348.648    2.1649104    24.236927   0.12042962 
   26300   -946.04147    48.746614   -897.29486    1745.9269   -9563.3775    2.1467985    24.484522   0.12277067 
   26400    -941.7506    51.663974   -890.08663    1850.4162    2155.9027    2.1666177    21.966648   0.13076435 
   26500   -942.89345     45.66697   -897.22648    1635.6253    6360.7731    2.1846991    22.567834   0.13093708 
   26600    -943.6081    44.306784   -899.30132    1586.9083   -4578.5888    2.1576884    25.130183   0.12759283 
   26700   -940.85371    50.601849   -890.25186    1812.3747   -5797.4574    2.1438758    25.769034    0.1233168 
   26800   -946.98501    49.117824   -897.86719    1759.2223    7756.1092    2.1959804    24.837709     0.128674 
   26900   -942.13507    43.202863   -898.93221    1547.3699    1486.6298    2.1712341    23.835904   0.12265258 
   27000   -940.06435    46.101492   -893.96286    1651.1883   -7479.0042    2.1386939    24.673444   0.12690145 
   27100   -939.65936     47.29343   -892.36593    1693.8791    6240.6516    2.1741137    24.780918   0.13276467 
   27200   -947.21347    46.325525   -900.88795    1659.2123    15373.553     2.211404    22.586026   0.13676016 
   27300   -941.88865    45.805578   -896.08307    1640.5897   -9329.5601    2.1428786    23.449179    0.1316835 
   27400   -940.90816    45.876346   -895.03182    1643.1243   -12488.072    2.1339554    24.041591    0.1404207 
   27500   -944.61081    43.407227   -901.20358    1554.6895    17207.938    2.2202432    25.201694   0.14009339 
   27600   -944.07267    43.478326   -900.59435     1557.236    8688.4526    2.1951574    24.910839   0.13634987 
   27700   -942.12421    46.764848   -895.35936    1674.9473   -10376.367    2.1374234     26.69422   0.12470689 
   27800   -943.91621    47.465675   -896.45053    1700.0484   -685.21197    2.1697299    27.675579   0.12393867 
   27900   -943.98499     40.22153   -903.76346    1440.5893    8351.3957    2.1988666    25.162457   0.14758619 
   28000   -941.67906    47.331531   -894.34753    1695.2438   -1610.4881    2.1642719    26.707373   0.13038558 
   28100   -944.94326    49.731558    -895.2117     1781.204   -3311.9589    2.1661716    25.046283   0.12314017 
   28200   -944.06143    44.482665   -899.57876    1593.2077    1375.4208    2.1764718    21.889179   0.12691746 
   28300   -947.39483    48.278632    -899.1162    1729.1655    2230.5383    2.1840346    27.519374   0.12588942 
   28400    -939.7872    48.333203     -891.454      1731.12   -4990.1661    2.1501001    28.801855   0.15079217 
   28500   -942.64671     44.98833   -897.65838    1611.3188   -1464.3183    2.1657862    25.036964   0.12932481 
   28600   -942.79791    44.938178   -897.85973    1609.5226    8808.3214    2.1916703    24.454863   0.11664725 
   28700   -938.29203    50.141315   -888.15072    1795.8801   -496.30633     2.157076    23.655119   0.13482085 
   28800   -943.27485    47.070037   -896.20481     1685.878    -6058.534    2.1541073      24.7091   0.11735762 
   28900   -941.66223     43.61162   -898.05061    1562.0101    4613.6241     2.175674    24.740821    0.1362631 
   29000   -939.61118    48.182544   -891.42864     1725.724    8244.1278    2.1820009    24.527475   0.14387576 
   29100   -941.00352    47.257331   -893.74619    1692.5862   -7185.8599    2.1472516    22.884828   0.13356189 
   29200   -944.12934    43.682372   -900.44697    1564.5442   -3895.7788    2.1611024     22.53848   0.13225683 
   29300   -942.95783    49.150682   -893.80715    1760.3992    8654.0211      2.19158    23.481024   0.14718043 
   29400   -942.00004    48.049544   -893.95049    1720.9604    2802.7463    2.1715554    24.141891   0.13690462 
   29500   -947.69716    45.309084   -902.38808    1622.8071   -8094.8089    2.1551105    26.755855   0.11347127 
   29600   -944.26995    47.856066   -896.41388    1714.0307    1772.5207    2.1719628    22.915618   0.11405143 
   29700   -942.96697    50.559458   -892.40751    1810.8564    8217.5513    2.1860744    21.631925   0.12999428 
   29800   -950.44928    48.889021   -901.56026    1751.0274   -9209.7816    2.1599507    23.646748   0.11713718 
   29900   -943.69343     45.65666   -898.03677     1635.256   -9444.4107    2.1428115    23.478206   0.13178934 
   30000   -940.10414    48.016301   -892.08784    1719.7698    14700.823    2.1961459    23.445952   0.13424292 
   30100   -947.17237    49.225585   -897.94678    1763.0819    6538.7117     2.195412    24.739947    0.1351258 
   30200   -945.83645    43.875384   -901.96106    1571.4571   -17442.835    2.1325767    23.315493   0.12814722 
   30300   -945.50165    52.356929   -893.14472    1875.2353   -4609.0949    2.1611705    22.481617   0.13589397 
   30400   -940.27922    46.151958   -894.12726    1652.9958    13785.953    2.1955363    24.018685   0.13593376 
   30500   -945.85611    45.247842   -900.60827    1620.6136   -2236.0513    2.1723999     24.14309   0.12716463 
   30600   -940.49868    48.003748   -892.49493    1719.3202   -4698.8448    2.1526582    24.073435   0.11956436 
   30700   -940.47074    46.464935    -894.0058    1664.2055    3680.9581    2.1759792    26.145339   0.12136564 
   30800   -946.40051    46.918836   -899.48167    1680.4625    2229.7858    2.1802915    26.427525   0.12799967 
   30900   -942.37604    48.902935    -893.4731    1751.5258   -3856.2927    2.1574941    27.627555   0.13906986 
   31000    -942.3825     49.48375   -892.89875    1772.3285    -3773.214    2.1608303    28.081228   0.14299429 
   31100   -945.04743    44.909368   -900.13806    1608.4907    5948.1281    2.1906934    27.372816   0.13278792 
   31200   -942.60679    48.296346   -894.31045       1729.8      1239.02    2.1691345    26.577992   0.12727968 
   31300   -946.09861    52.076957   -894.02165    1865.2077   -9430.6453    2.1507092     24.24064   0.12730928 
   31400   -948.87825    46.882016   -901.99623    1679.1438    3307.3653    2.1907779      22.4288   0.12306153 
   31500   -945.68213    51.590562   -894.09157    1847.7868    4581.1329    2.1831638    24.453508   0.11942286 
   31600   -942.25114    47.037669   -895.21347    1684.7187   -4780.1042    2.1530533    24.036896   0.12291629 
   31700   -943.81537    40.306494   -903.50888    1443.6324   -3924.6811    2.1683428    23.165961    0.1239534 
   31800   -943.80259    47.785652   -896.01693    1711.5088    7789.8793    2.1889605    24.221026    0.1392668 
   31900   -945.30713    51.364297   -893.94283    1839.6828    1588.8192    2.1773201      26.0899   0.14768483 
   32000   -949.78024    48.121663   -901.65857    1723.5434   -13353.916     2.149725     23.86286   0.12124816 
   32100   -942.45322    46.008912    -896.4443    1647.8724   -312.24987    2.1650358    23.809545   0.13886323 
   32200    -940.9442    50.144909   -890.79929    1796.0088    12180.465    2.1932341    22.986901   0.13759006 
   32300   -943.48293    44.767512   -898.71542    1603.4099   -3014.2221    2.1629318    27.452024   0.12111152 
   32400   -946.72238    49.482151   -897.24023    1772.2712   -10851.427    2.1450231    24.649918   0.10507633 
   32500   -942.21328    53.505498   -888.70778    1916.3729    3364.3952    2.1715505    27.249455   0.13354075 
   32600   -940.37184    43.123814   -897.24802    1544.5386    9758.3633    2.1898536    26.147275   0.13117411 
   32700    -944.6756    45.619921   -899.05568    1633.9401   -5720.2783    2.1600613    25.362189   0.13284144 
   32800    -940.1375    49.294105    -890.8434    1765.5361   -2335.8844    2.1557587    24.958122   0.13563192 
   32900     -948.976    50.436952   -898.53904    1806.4687    641.29473    2.1841266    24.053386   0.12765801 
   33000   -948.93631    49.533995   -899.40232     1774.128   -2019.3819    2.1751176    22.960394   0.13332819 
   33100   -941.91917    49.298571    -892.6206     1765.696   -2980.3406    2.1585266    21.603694   0.15342313 
   33200   -946.26634    47.844214   -898.42213    1713.6062   -1517.2695    2.1720481    25.162629   0.11834777 
   33300     -946.544    46.288019   -900.25598     1657.869     2113.475     2.179689    22.704339   0.11623047 
   33400   -942.74692     49.89581   -892.85111    1787.0869   -1254.8781     2.164238    23.878014   0.13544622 
   33500   -947.03535    48.907688   -898.12766     1751.696   -4872.4323    2.1650491    25.593824   0.13380696 
   33600   -945.67543    44.598871   -901.07656    1597.3698    1524.5718    2.1784847    23.529345   0.14133668 
   33700   -941.22867    49.228535   -892.00013    1763.1876    3395.8331    2.1703617    24.950379   0.13438916 
   33800   -943.48505    45.966094   -897.51895    1646.3388   -1229.3322    2.1677884    22.212145   0.13638122 
   33900   -943.90684      42.5548   -901.35204    1524.1586   -1070.2516    2.1701885    26.378631   0.12584079 
   34000   -938.83362    47.167969   -891.66565    1689.3856    3406.3529    2.1667471    23.418637   0.13976482 
   34100   -946.69583    50.323562   -896.37227    1802.4075    3227.4396    2.1841666    24.641034   0.13451803 
   34200   -944.62695    43.390362   -901.23658    1554.0854   -4625.2891    2.1657566    24.972185   0.13075765 
   34300   -939.54924    47.305602   -892.24364    1694.3151   -4265.8153    2.1476095     25.99835   0.14486132 
   34400   -943.04696    47.309802   -895.73716    1694.4655    9214.2837    2.1914901    24.873656   0.13862623 
   34500   -945.37247    45.496101   -899.87637    1629.5053    3237.0226    2.1812781    24.827167   0.13642422 
   34600   -943.50203     50.04589   -893.45614    1792.4623   -11951.341    2.1362052    25.073253   0.13576287 
   34700   -942.68323    49.935739   -892.74749    1788.5171    277.01215    2.1644832    24.769722   0.14444676 
   34800   -947.57253    48.204127    -899.3684     1726.497    11764.195    2.2050879     23.25732   0.12933547 
   34900   -941.35226    46.747875   -894.60439    1674.3393   -3109.3439    2.1544922    29.015271   0.13502486 
   35000   -939.85807    46.090811   -893.76726    1650.8057   -10104.206    2.1363828    23.547208   0.14232794 
   35100   -946.97942    46.102814   -900.87661    1651.2356    6985.8019    2.1926025    25.272826   0.11892384 
   35200   -941.06321    46.902083   -894.16113    1679.8625     7113.067    2.1819655    28.831235   0.15501288 
   35300   -941.92836    47.685573   -894.24278    1707.9243   -5342.4763    2.1499872    25.960108   0.12914781 
   35400   -946.80169    45.258952   -901.54273    1621.0115    -1676.585    2.1732009    27.842547   0.12182244 
   35500   -944.08914    48.773351   -895.31579    1746.8846    4206.5156    2.1803284    23.515529   0.14482315 
   35600   -943.98578     50.51689   -893.46889    1809.3318   -417.02709     2.164944    23.571459   0.11817294 
   35700   -944.64484    43.370914   -901.27393    1553.3889   -902.72085    2.1680448    28.457792   0.11743526 
   35800   -942.10915    46.798288   -895.31087     1676.145    2342.8794     2.169477    22.868522   0.13780808 
   35900   -943.81428    51.213441   -892.60084    1834.2797   -673.10371    2.1648497     27.33892   0.12871267 
   36000   -947.68992    46.827284   -900.86264    1677.1835    -1413.646    2.1716297    22.842144   0.12542065 
   36100   -943.23753    48.159236   -895.07829    1724.8892   -1568.6599    2.1605166        25.51    0.1189233 
   36200   -940.02344    47.736744    -892.2867     1709.757     2240.677    2.1699219    25.630354   0.12578483 
   36300   -946.17287    45.530698   -900.64217    1630.7445   -861.27635     2.178945    24.943591   0.12234181 
   36400   -938.64265    43.744631   -894.89802     1566.774   -1543.6171    2.1599181    25.332623    0.1487361 
   36500   -941.41521    49.012907    -892.4023    1755.4646     1940.736    2.1683143    23.101704   0.12506229 
   36600   -945.47827    45.299315   -900.17896    1622.4572    8324.0179    2.1966006    21.882518   0.13157939 
   36700   -938.58609    44.137948   -894.44814    1580.8612   -1294.7729    2.1603803    27.839925   0.14667266 
   36800   -942.51115    48.917213   -893.59394    1752.0372   -7494.7665    2.1486545     24.08073   0.13567591 
   36900    -945.1426    44.674897    -900.4677    1600.0928     8502.113    2.1965558    23.289161   0.14264972 
   37000   -945.63546    50.548516   -895.08695    1810.4645    7360.8492    2.1896836    23.842468    0.1369282 
   37100   -943.61728     50.24546   -893.37182    1799.6101   -12565.495    2.1385875    24.307591   0.11991092 
   37200   -944.51383    42.966155   -901.54767    1538.8919     -2790.73     2.166596    23.178368   0.12337169 
   37300   -943.79194    47.159205   -896.63274    1689.0717    11502.983    2.1969295    21.720815   0.12064821 
   37400   -938.29103    45.868748   -892.42228    1642.8522    1415.2596    2.1635848    25.345148   0.13204733 
   37500   -943.50495    42.512138   -900.99281    1522.6306   -7943.6406    2.1521753    25.559102   0.12561839 
   37600   -945.41022    47.306147   -898.10408    1694.3346    1175.6321    2.1757451    25.591367   0.11701488 
   37700   -942.36111    51.261098   -891.10001    1835.9866    6431.6072    2.1802144    24.511478   0.13516097 
   37800   -943.91843    44.515896   -899.40254     1594.398   -3916.9114    2.1643901     23.43294   0.13867684 
   37900   -944.00255    45.251616   -898.75093    1620.7488   -4635.8423    2.1585168     24.36189   0.11942543 
   38000   -942.15404    51.223355   -890.93068    1834.6348     4232.811    2.1739984    25.541476   0.14564785 
   38100   -947.97485     49.63792   -898.33693    1777.8503       1355.2     2.178943    26.454453   0.12453213 
   38200     -944.346    44.776957   -899.56904    1603.7482   -4677.4796    2.1592123    24.445448   0.12323582 
   38300   -940.17392    49.287929   -890.88599    1765.3149   -1730.9748    2.1525649    25.148447   0.13880091 
   38400   -947.43396    49.239303   -898.19465    1763.5733    6004.9398     2.187527     26.78966   0.11695164 
   38500   -944.15412    44.785586   -899.36853    1604.0573    928.45491    2.1748657    24.045534   0.14104345 
   38600   -939.98631    48.511368   -891.47494    1737.5013   -1983.0585    2.1526468    26.539253    0.1399994 
   38700   -944.01814     44.87434    -899.1438    1607.2361    1605.4208    2.1719576    23.350155   0.13274826 
   38800   -945.09602    45.910118    -899.1859    1644.3339    1925.4247     2.176032    24.855886    0.1304691 
   38900   -941.71374    49.839347   -891.87439    1785.0647   -2026.0921    2.1601212    24.642112   0.12794927 
   39000   -944.94905    45.386615   -899.56244    1625.5839   -1278.0167    2.1700068    22.214448   0.12609373 
   39100    -944.5985    45.459576   -899.13892    1628.1972    1258.6916    2.1765169    23.127831   0.13152856 
   39200   -939.47585    47.726297   -891.74956    1709.3829    2142.3319    2.1660344    25.923962   0.14207587 
   39300    -945.0215    45.418763   -899.60274    1626.7354   -1403.2133    2.1726061    27.324407   0.14324813 
   39400   -946.87482     47.92753   -898.94729    1716.5903   -2188.9722    2.1707508    25.494885   0.13505877 
   39500   -942.46874    51.019123   -891.44962      1827.32   -371.17811     2.164447    23.607454   0.11816616 
   39600   -946.26986    46.720838   -899.54903     1673.371    726.94573    2.1783072    24.879622   0.13972463 
   39700   -945.30369    46.869274   -898.43441    1678.6874   -2996.7191    2.1680068    24.329303   0.12384659 
   39800    -940.5347    48.915135   -891.61956    1751.9627   -1305.6006    2.1581887    23.552752   0.13742508 
   39900   -947.30402    47.563519    -899.7405    1703.5528    4610.3989     2.188161    23.067153   0.12400432 
   40000   -946.40778    47.949343   -898.45844    1717.3716   -2476.5201    2.1679658     26.70334   0.13076949 
   40100   -941.64108    48.914424   -892.72665    1751.9373   -6934.8471    2.1455394     25.64328   0.13649634 
   40200    -946.0958    45.544192    -900.5516    1631.2278    4562.0281    2.1867804    25.323198   0.12252315 
   40300   -946.43691    47.627072   -898.80984     1705.829    3648.0296    2.1851261    25.307389   0.14168455 
   40400   -944.17499    50.908362   -893.26663    1823.3529   -9490.1686     2.142503    26.325023   0.12625386 
   40500   -946.87651    46.366442   -900.51007    1660.6778   -4460.8792    2.1641273    24.064715   0.11265309 
   40600   -943.54504    44.526145    -899.0189     1594.765    10403.372    2.1942318    27.629572   0.12057843 
   40700   -943.92514    51.856527   -892.06862    1857.3127   -946.42246    2.1653331    25.692227   0.12573031 
   40800    -944.3946    45.220426   -899.17417    1619.6317   -9435.7205    2.1456382    25.999604   0.11772585 
   40900   -947.44822    48.480415   -898.96781    1736.3927   -1701.1828    2.1759557    23.916533    0.1437507 
   41000   -939.30897    49.297166    -890.0118    1765.6457    10429.431    2.1850321    25.928818   0.13845418 
   41100   -944.00753    46.307258   -897.70027    1658.5581   -1970.5446    2.1583314    29.532419   0.12026258 
   41200   -944.28484    45.261729   -899.02311     1621.111    -8207.136    2.1507216    23.281157   0.10972695 
   41300   -939.30678    49.528746   -889.77803    1773.9401    7089.6964    2.1760837    24.118783   0.13190733 
   41400   -944.54924    48.245228   -896.30401    1727.9691    10740.668    2.1946333    22.867724   0.13230349 
   41500   -946.57163     46.10417   -900.46746    1651.2842   -10250.835    2.1510802    24.830994   0.12599669 
   41600   -938.60601    45.793662   -892.81235    1640.1629   -4541.9526    2.1471345    25.585119   0.13303541 
   41700   -943.53139    47.845592   -895.68579    1713.6556    11796.978    2.1951617    25.072548    0.1321737 
   41800    -946.2517    45.476023   -900.77567    1628.7862    847.16111    2.1808387    26.018161   0.14046599 
   41900    -944.2579     49.14963   -895.10827    1760.3615    -6547.268    2.1563701    23.406766   0.14279863 
   42000   -940.84845    47.187165   -893.66128    1690.0731   -860.03057    2.1667833    22.787857   0.14190778 
   42100   -948.68029    46.039208   -902.64108    1648.9575    4700.3804    2.1946987     23.39244   0.14480948 
   42200   -943.67122     48.11867   -895.55255    1723.4362   -1781.8196    2.1641853    24.818177     0.115772 
   42300   -940.55353    45.941046   -894.61248    1645.4416   -1085.4489    2.1592098    26.356777   0.12935877 
   42400   -947.25191    44.371654   -902.88025    1589.2317    5227.5821    2.1919596    23.378116   0.14571743 
   42500   -940.64875     44.74484    -895.9039    1602.5979    4102.3398    2.1716265    26.278058   0.13523982 
   42600   -940.66775    45.965591   -894.70216    1646.3208   -205.10212    2.1605862    26.549315   0.14478806 
   42700    -947.1507    46.822485   -900.32822    1677.0116    -4336.043    2.1653532    25.853313   0.13645521 
   42800   -949.27486    49.107913   -900.16694    1758.8674    1240.7877     2.183977    25.307537   0.12524348 
   42900   -942.52669    50.545539   -891.98115    1810.3579   -2019.1817    2.1587539    24.369393   0.14708946 
   43000   -944.75305    47.107479   -897.64557    1687.2191   -6817.2363      2.15335    26.631564    0.1241695 
   43100   -944.92166    46.989588   -897.93207    1682.9966    3446.1659    2.1821021    24.235933   0.13516342 
   43200   -940.59127    53.089907   -887.50137    1901.4879    6727.3262    2.1756175    25.428917   0.14162589 
   43300   -942.87514    48.136849   -894.73829    1724.0873    -3992.999    2.1563299    24.365904   0.13425501 
   43400   -943.89027    44.896452   -898.99382    1608.0281   -6065.0543    2.1541417    24.893416   0.13067903 
   43500   -942.81736    50.238211   -892.57915    1799.3505    11939.905    2.1946628    24.323405   0.13382273 
   43600   -941.38103    49.823394   -891.55763    1784.4933    3614.1283    2.1738817    23.165626   0.16002787 
   43700   -944.90922    44.606026   -900.30319    1597.6261   -10818.988    2.1486492    24.332587   0.12186265 
   43800   -943.72838    47.020986   -896.70739    1684.1212    2940.5348    2.1780319    21.332349   0.13649633 
   43900   -940.75557    49.296059   -891.45952    1765.6061    11415.666     2.193229    22.141755   0.13892723 
   44000   -946.66965    49.198791   -897.47086    1762.1223   -10503.283    2.1493574    23.828099   0.11279519 
   44100   -942.64875    41.987591   -900.66116    1503.8432   -2293.0469    2.1603736    24.682973   0.12156632 
   44200   -939.35568      45.8315   -893.52418    1641.5181    10449.874    2.1884708    23.999062   0.13067766 
   44300   -945.21635    47.776209   -897.44014    1711.1705    1512.5834    2.1760628    24.394895    0.1220722 
   44400   -950.68156    46.963809   -903.71775    1682.0733   -4328.0943    2.1729416    25.128108   0.11570845 
   44500   -944.29411    49.788758   -894.50535    1783.2528    -2758.476    2.1624006    25.576792   0.12511383 
   44600    -946.7594    50.822676   -895.93672    1820.2839    1512.6076    2.1792523    23.946411   0.13644597 
   44700   -946.20666    43.575182   -902.63148     1560.705    1574.7319    2.1813924    22.647966    0.1339794 
   44800    -939.0291    45.790482   -893.23862     1640.049   -1320.3662    2.1543516    25.467283   0.12253975 
   44900   -941.87261    47.306998   -894.56561    1694.3651    4263.3257    2.1766418    22.698994   0.13671709 
   45000   -945.02786     45.25879   -899.76907    1621.0057    4204.3692    2.1812029       23.854   0.12288529 
   45100   -943.11276    50.948769   -892.16399    1824.8001   -4856.8525     2.152198    27.128131   0.14119348 
   45200   -942.19531    49.327578   -892.86773     1766.735    716.33369    2.1650692    27.456477   0.14073229 
   45300   -942.70524    44.264455   -898.44078    1585.3923    5877.4259     2.183853    22.727531   0.13093639 
   45400   -941.18263     46.22845   -894.95418    1655.7354   -38.677569    2.1612214    24.771472   0.12782235 
   45500   -943.57167    52.513877   -891.05779    1880.8566   -9184.1086    2.1425131    20.911572   0.14186029 
   45600    -944.3123    44.752231   -899.56006    1602.8626    8859.1971    2.1922796    25.765521    0.1282039 
   45700   -943.05314    47.479675   -895.57347    1700.5498    6164.2646    2.1876501    24.987116   0.15485491 
   45800   -944.34585     51.44093   -892.90492    1842.4275   -12370.184    2.1343611     27.88499   0.12199016 
   45900   -949.32908    46.151423   -903.17766    1652.9766   -4248.2359    2.1728606    24.926133    0.1271431 
   46000   -946.23172    48.793757   -897.43796    1747.6154    8817.8511    2.1972303    22.153342   0.13795731 
   46100    -942.0316    48.125566   -893.90604    1723.6832   -1585.3536    2.1632338    25.977635   0.13021611 
   46200   -944.11033    45.423882   -898.68645    1626.9187   -9577.1097    2.1431348    25.511659   0.13390377 
   46300   -947.02463    45.765558   -901.25907    1639.1563    4656.0594    2.1930193    25.513022   0.14168123 
   46400   -940.22028     47.57442   -892.64586    1703.9432    7867.9656    2.1826994    26.383142   0.13531432 
   46500   -946.08845    48.518182   -897.57027    1737.7453   -8056.3658    2.1540728    24.539251   0.12178319 
   46600   -946.78938    45.201423   -901.58796    1618.9511   -3442.8533    2.1704424    24.897017   0.12707382 
   46700   -940.05072    48.391901   -891.65882    1733.2224    6370.6096    2.1746527    22.995835    0.1443561 
   46800   -943.12447    48.325188   -894.79928     1730.833    4378.8002    2.1749999    25.790388   0.13453589 
   46900   -944.29346    43.932023   -900.36143    1573.4857   -2343.5852    2.1659286    26.701396   0.12027298 
   47000    -941.5677    48.811135   -892.75656    1748.2379       357.19    2.1636112    24.725828   0.13312478 
   47100   -944.20687    51.513659   -892.69321    1845.0325    2921.2831    2.1725059    23.764535   0.11955591 
   47200   -948.22621     48.56801    -899.6582      1739.53   -2420.2954    2.1711568    24.857098   0.13218261 
   47300   -943.19698    49.026778   -894.17021    1755.9614   -2211.0778    2.1613717    25.151202   0.14036762 
   47400   -940.82888    50.060393   -890.76849    1792.9817    1344.3845     2.163738    22.801526     0.120047 
   47500    -949.9079    50.233573   -899.67433    1799.1844    1453.0314    2.1822481    23.190693   0.12118231 
   47600   -945.35946    49.823809   -895.53565    1784.5082   -1227.1584    2.1627359    25.148392   0.12339538 
   47700   -942.96792    50.802497   -892.16542    1819.5612   -6330.5112    2.1518774    26.268136   0.13531899 
   47800     -947.907     45.98179   -901.92521     1646.901    6251.6618    2.1934102    25.018472   0.13103055 
   47900   -946.42127    50.211977    -896.2093    1798.4109   -622.44101    2.1728282    25.193822   0.12380824 
   48000   -940.72957    46.041875   -894.68769     1649.053   -8103.2056    2.1401417    28.901588   0.13054366 
   48100   -946.72142    43.265403   -903.45602    1549.6098    4677.5884    2.1881732    24.439482   0.12341641 
   48200   -946.20506    47.227327   -898.97773    1691.5116    9669.0593    2.2012052    22.846498   0.12834094 
   48300    -944.7212    50.043366   -894.67783    1792.3719   -5774.8755    2.1510212    25.196172   0.12159973 
   48400   -943.77021    46.149445   -897.62077    1652.9058   -9326.7598    2.1430459    26.902677   0.12790482 
   48500   -947.77672    45.800187   -901.97653    1640.3966    13400.847    2.2078977    23.666214    0.1302093 
   48600   -937.95497    45.922523   -892.03245    1644.7782    5321.1335    2.1699226    26.755944   0.15257465 
   48700   -943.76347    47.623718   -896.13975    1705.7089   -9526.8988    2.1435976    23.478712   0.12643852 
   48800   -947.50368    47.669567   -899.83411     1707.351    -547.3077    2.1744813    22.548997     0.122945 
   48900   -945.40699    46.815207   -898.59178    1676.7509    9580.8431     2.197913    24.737783   0.13627044 
   49000   -939.89756    48.193366   -891.70419    1726.1116   -5994.1739    2.1456194    24.805369   0.12604368 
   49100   -945.73541    47.479076   -898.25634    1700.5283   -8412.0646    2.1538499    23.909264   0.12272692 
   49200   -944.40154    47.443114   -896.95842    1699.2403    7442.3505     2.187839    24.092031   0.13074085 
   49300   -938.76055    51.081294   -887.67926    1829.5467     2725.138    2.1628827    24.188067   0.13005981 
   49400   -943.10149    46.434023   -896.66747    1663.0983   -3455.8338     2.157504    25.215065   0.12637632 
   49500   -941.72913    43.753414   -897.97572    1567.0886    614.24396    2.1639365    27.502842   0.12975165 
   49600   -940.57503     48.62693    -891.9481    1741.6403    5466.4097    2.1748924    24.538543   0.13115648 
   49700   -941.57047    49.320475   -892.24999    1766.4805   -1268.4303    2.1574333    24.858944   0.13101686 
   49800   -948.83669    49.049703   -899.78698    1756.7825   -3871.7547    2.1688327    25.111356   0.11978095 
   49900   -943.92571    48.401217   -895.52449    1733.5561    3564.5001    2.1776594    22.857333   0.13902788 
   50000   -943.05581     49.67018   -893.38563    1779.0057   -1366.9387     2.163041    25.435493   0.13114193 
   50100   -950.71048    47.007751   -903.70273    1683.6472   -3154.9453    2.1775791    24.122367   0.11347416 
   50200    -947.9705    49.332608   -898.63789    1766.9151   -3196.0697     2.166564    25.733605   0.11760548 
   50300    -940.7555    46.568091   -894.18741    1667.9001    2591.8997    2.1674484    24.278606   0.12137468 
   50400   -945.64547    45.687481   -899.95799    1636.3599    976.67664    2.1737088    25.591436   0.12990049 
   50500   -948.31714    45.866618   -902.45052    1642.7759   -1915.0012    2.1742609    26.296404   0.13189396 
   50600   -944.41822    49.554933   -894.86329     1774.878   -546.04841    2.1652798    19.811638   0.13137879 
   50700   -944.88846    48.220311   -896.66815    1727.0767    -2391.523     2.167443    24.762561   0.12619444 
   50800   -948.86491    44.553324   -904.31158    1595.7385   -59.444531    2.1831727    25.341426   0.12696998 
   50900   -943.13603    48.079434   -895.05659     1722.031    -1132.843    2.1644911     24.65792   0.12872337 
   51000   -942.10797    46.847776   -895.26019    1677.9174    2572.5827    2.1726185     25.03725   0.14403282 
   51100   -946.38597    45.811702   -900.57427     1640.809    168.68301    2.1784383    26.265011   0.13664262 
   51200   -943.02694    43.902872   -899.12407    1572.4417    1045.4526    2.1736132    25.695037   0.11983186 
   51300   -942.80368    50.229438   -892.57424    1799.0363   -3796.1839    2.1584084    21.656159   0.13591076 
   51400   -944.38975    47.008819   -897.38093    1683.6854    141.10107    2.1709491    23.934773   0.13998881 
   51500   -946.97792    50.285434   -896.69249    1801.0419    1415.6381    2.1747828    24.710664   0.14498419 
   51600   -937.49844    48.909752   -888.58869    1751.7699   -1675.5001    2.1536432    23.043439    0.1646824 
   51700   -945.18974    48.159575   -897.03016    1724.9013    151.51673      2.17157    26.777468   0.14107129 
   51800   -943.77746    47.220604   -896.55686    1691.2708   -2041.3851    2.1649638    26.846411   0.15337654 
   51900   -943.14736    53.765821   -889.38153    1925.6967   -2389.6632    2.1583358    24.591725   0.13641056 
   52000   -946.54409     47.29435   -899.24974    1693.9121    4292.0477    2.1843943    22.705863   0.12526678 
   52100   -943.00906    45.336497   -897.67256    1623.7889   -1650.2059    2.1642555     27.63558   0.12962457 
   52200   -945.62882    53.425334   -892.20349    1913.5017   -5116.0221    2.1564547    25.034567   0.12528874 
   52300    -950.9636    49.526684   -901.43691    1773.8662    5080.2362    2.1917384    24.648712   0.11683242 
   52400    -947.0489    48.187413   -898.86149    1725.8984   -4418.2245    2.1628055     23.90522   0.12850321 
   52500   -940.96637    46.632058   -894.33431    1670.1912   -5094.4279    2.1503329    24.957184   0.14050433 
   52600   -945.40897    46.292487   -899.11649     1658.029    11583.296    2.2029931    23.168721   0.13420428 
   52700   -948.76987    46.829702   -901.94017    1677.2701    3222.7683    2.1896295    25.487187   0.13653181 
   52800   -941.97456    46.442844   -895.53172    1663.4142     -11154.5    2.1351601    25.005536   0.13418067 
   52900   -943.92972    49.105492   -894.82423    1758.7806    23.213396    2.1653452    25.468618   0.12125574 
   53000   -946.70795    44.998217   -901.70974     1611.673    13787.954    2.2131064    23.399383   0.12960213 
   53100     -942.145    49.092047   -893.05295    1758.2991   -5348.9159    2.1519298    22.855518    0.1226566 
   53200   -942.48075    47.540342    -894.9404    1702.7226   -8184.0858    2.1484934    25.878028   0.14078256 
   53300   -944.42058    45.738011   -898.68257    1638.1697    6551.6793    2.1923058    25.260595   0.14134916 
   53400   -945.74683    45.398893   -900.34794    1626.0237    6221.4351    2.1906826    24.995165   0.13518837 
   53500   -938.47539     47.77208   -890.70331    1711.0227   -11785.142    2.1267754    27.072187   0.14045127 
   53600   -947.12059    49.247757   -897.87284    1763.8761   -2125.0464    2.1725439    22.826124   0.13785008 
   53700   -946.10081    48.609556   -897.49125     1741.018    11560.953    2.2014737    24.289005   0.13179698 
   53800   -937.89182    48.010556   -889.88126     1719.564   -3743.4293    2.1497164    26.512102   0.14095524 
   53900   -944.53038    49.094156   -895.43622    1758.3746   -8826.9745    2.1499887    27.055196   0.12404029 
   54000   -945.46684    47.306638    -898.1602    1694.3522    5235.3576    2.1847092    22.717029   0.12542973 
   54100   -945.55007    51.899318   -893.65075    1858.8454    3663.2986    2.1785592    22.943658   0.12009403 
   54200   -940.05961    48.532729   -891.52688    1738.2663   -6191.5012    2.1457136    21.997979   0.14546435 
   54300   -945.90867    44.856632   -901.05204    1606.6019    943.55938    2.1776331    25.775356   0.12528379 
   54400   -942.04267      46.2689   -895.77377    1657.1842    6714.3538    2.1827345    23.721342   0.13021896 
   54500   -945.14667    51.238655   -893.90802    1835.1828   -2074.1194    2.1617345    24.285218   0.12441498 
   54600   -948.90814    44.991409   -903.91673    1611.4291   -4507.3321    2.1731052    26.358211   0.13108362 
   54700   -942.65654    44.242349   -898.41419    1584.6005    434.81251    2.1715971    27.006627   0.13992499 
   54800   -942.83392    48.758509   -894.07541     1746.353    4377.6872    2.1753848      22.8278   0.13006949 
   54900   -948.60231    47.862535   -900.73977    1714.2624   -1918.4348    2.1769319    23.806122    0.1256193 
   55000   -946.57099    45.413755   -901.15723     1626.556   -1091.9041    2.1736935      26.3226   0.12438552 
   55100   -942.85285    48.700089   -894.15276    1744.2606    357.60697    2.1686315    23.891465   0.14164563 
   55200   -946.28072    48.320174   -897.96054    1730.6534   -664.08004    2.1764981    25.525571   0.14687053 
   55300   -946.46886    42.937914   -903.53094    1537.8804   -581.56121     2.180781    25.220793   0.13223068 
   55400   -940.01432    46.825728   -893.18859    1677.1278    -1586.367    2.1620933    26.492296   0.14035221 
   55500   -940.67008    45.319701   -895.35038    1623.1873    5711.4037    2.1779462    25.531873   0.14503328 
   55600   -947.04127    46.788066    -900.2532    1675.7789    -2312.292     2.175221    23.850238   0.13945943 
   55700   -939.32395    46.380553   -892.94339    1661.1832   -137.47647    2.1608411    24.876692   0.14219812 
   55800   -938.31502    45.886021   -892.42899    1643.4709    5114.7942    2.1691819    27.486583    0.1325317 
   55900   -945.95778    47.584292   -898.37349    1704.2968     229.5001    2.1719114    24.073565   0.12578489 
   56000   -944.16199    48.152509   -896.00948    1724.6483   -3322.5241    2.1648801    25.865833   0.13726941 
   56100   -938.39637    49.589799   -888.80657    1776.1267    1055.2437    2.1581967    24.706526   0.14838987 
   56200   -948.67225     50.42776   -898.24449    1806.1395     3818.158    2.1902047     26.55802   0.13297724 
   56300   -944.50093    47.201791   -897.29914     1690.597    261.26879     2.170768    24.257334   0.14069279 
   56400   -938.10334    47.321637    -890.7817    1694.8894   -8955.8549    2.1354743    26.918246   0.13476678 
   56500   -946.39098    46.298623   -900.09236    1658.2488    6545.3823     2.192186    24.781705   0.12827523 
   56600   -945.85621    46.718805    -899.1374    1673.2982    5754.0311    2.1914671    25.229068   0.13351048 
   56700   -942.31448    46.753311   -895.56117    1674.5341   -8776.5227    2.1452988    22.710041   0.13310542 
   56800   -938.35755    45.277434   -893.08011    1621.6735   -2885.0368    2.1527309    23.872675   0.13536943 
   56900   -947.79281    45.757921   -902.03489    1638.8828    14997.817    2.2161967    21.709851   0.13448564 
   57000   -941.78285    46.299166   -895.48369    1658.2682   -1508.1416    2.1602667      25.0995   0.13205789 
   57100   -941.12721    45.729734   -895.39747    1637.8732    -9208.813    2.1399933    25.706625   0.13886323 
   57200   -947.19913    46.422253   -900.77687    1662.6767    4784.2693    2.1860549    24.908849   0.14382242 
   57300   -947.61767    47.143665   -900.47401    1688.5151    7834.9019     2.195054    27.740423   0.13319287 
   57400   -946.18986    52.469426   -893.72044    1879.2646   -8720.1586    2.1446314    24.855371   0.11953838 
   57500   -946.15783    47.633422   -898.52441    1706.0564   -5537.9698    2.1600319    23.643168   0.12249946 
   57600    -947.9924    48.494139   -899.49826    1736.8842    3917.3673    2.1898325    23.467772   0.13459836 
   57700   -940.08458    50.027172   -890.05741    1791.7919   -3374.7919    2.1518256    24.293247   0.13494317 
   57800   -942.86639    45.204459   -897.66193    1619.0598   -1387.8195    2.1610629      24.2817   0.11503958 
   57900   -944.42561    46.249962   -898.17565    1656.5059    3772.8289    2.1766603    23.710443   0.13319467 
   58000   -942.02552    52.968794   -889.05672    1897.1501   -277.42069    2.1620033    25.623065   0.11766754 
   58100   -942.25187    45.157513   -897.09436    1617.3784   -178.61795    2.1664933    24.118155   0.13357718 
   58200   -946.28896    47.463155    -898.8258    1699.9581   -3353.1508    2.1645369    26.669384   0.12359702 
   58300   -945.65527    54.631091   -891.02418    1956.6875   -1041.1755    2.1645738    24.059722   0.10762718 
   58400   -944.90674     47.99019   -896.91655    1718.8346    37.377154    2.1730609    23.884401   0.13670219 
   58500   -946.16973    46.242405   -899.92733    1656.2353   -5293.3011    2.1609946    24.459982   0.12789424 
   58600    -945.7805    52.313158   -893.46735    1873.6676    457.62718    2.1691846    25.995604   0.11490514 
   58700   -946.51047    50.122902   -896.38757    1795.2206    4440.0991    2.1819047    23.713979   0.12346581 
   58800   -948.49168    46.640476   -901.85121    1670.4927    -4791.158    2.1665201    24.092406   0.11140029 
   58900    -942.6463     46.91988   -895.72642       1680.5   -4449.6854    2.1555121    26.796892   0.12219544 
   59000      -942.28     49.44465   -892.83535    1770.9281    8252.0184    2.1871054    24.635973   0.15535586 
   59100   -948.42272    46.291481   -902.13124     1657.993    4086.0895     2.187432     23.45312   0.11577763 
   59200   -941.69777    45.546411   -896.15136    1631.3073   -10794.014    2.1351577    25.610828   0.12966393 
   59300   -939.70343    46.033904   -893.66953    1648.7675    4478.8576    2.1692001    23.118388   0.13883814 
   59400   -946.19919    46.801242   -899.39795    1676.2507     11449.22    2.2026686    22.205471   0.12772821 
   59500    -944.4126    45.415372   -898.99722    1626.6139   -4434.1051    2.1592401    27.023141   0.13147971 
   59600   -937.11824    44.591005   -892.52723    1597.0881   -6411.0618    2.1350003    24.831267   0.12832167 
   59700   -945.63819    47.578755   -898.05944    1704.0985    4466.3649    2.1870886    21.816698   0.12872452 
   59800   -945.81716    47.096077   -898.72108    1686.8107    7654.8083    2.1898329    22.275235   0.12441271 
   59900    -941.3711    50.845947   -890.52515    1821.1174   -7923.0951    2.1361635    26.368241   0.12582186 
   60000   -943.66894     44.65949   -899.00945     1599.541    379.82012    2.1646214    23.888324   0.13391083 
   60100   -944.57494    46.477572   -898.09736    1664.6581    6183.4671    2.1862382    21.709798   0.12706482 
   60200   -944.53871    52.846955   -891.69175    1892.7863   -1140.9469    2.1626104    25.146696   0.12955649 
   60300   -943.32135    45.810034   -897.51132    1640.7493   -5180.7648    2.1542398    25.766647   0.12145194 
   60400   -945.29434    45.488417   -899.80592    1629.2301    502.76148    2.1735724    22.282318    0.1344621 
   60500   -941.06359    48.535606   -892.52799    1738.3694     5797.859    2.1785056    27.582178   0.13406158 
   60600   -943.88103    45.893071   -897.98796    1643.7234    -2658.573    2.1623982     24.25626   0.12802787 
   60700   -946.10836    44.384515   -901.72385    1589.6924   -3884.5441    2.1634464    22.657724   0.13151715 
   60800   -943.00224    49.904932   -893.09731    1787.4137    1241.9328     2.172467    21.283354     0.137385 
   60900    -947.0987    49.876772   -897.22193    1786.4051    2944.5946    2.1789551    26.354331   0.11751504 
   61000   -944.92226    42.449783   -902.47248    1520.3973   -2118.1083    2.1664485    26.785276   0.13953613 
   61100   -940.23457    47.015435   -893.21913    1683.9224   -5814.7548    2.1497214    25.953767   0.14031332 
   61200   -946.17396    50.703097   -895.47086    1816.0011    17338.641    2.2167943    22.772317   0.13541426 
   61300   -948.11746    48.546698   -899.57076    1738.7667    770.15489    2.1802738    24.104132   0.12717646 
   61400   -937.02876    42.872256    -894.1565    1535.5287   -17613.075    2.1109056    25.666269   0.13147392 
   61500   -941.46806    51.361239   -890.10682    1839.5733    4729.1464    2.1770122    28.081265   0.15219844 
   61600   -944.63845    46.656674   -897.98178    1671.0729    15418.104    2.2146656    26.344191   0.15303094 
   61700   -942.86207    45.496212   -897.36586    1629.5093   -8113.6582    2.1496014    26.568788   0.13105198 
   61800   -940.00223    48.258469   -891.74376    1728.4433   -10701.122     2.138755    23.536174   0.13056729 
   61900   -949.99186    49.482488   -900.50937    1772.2833    7990.8368    2.2064186    22.622066   0.14389747 
   62000   -944.44687    46.418158   -898.02871    1662.5301    4885.3373    2.1834911    23.488075    0.1376541 
   62100   -943.09074    49.225101   -893.86564    1763.0646   -12053.757    2.1386971    24.798775   0.15145061 
   62200   -946.97386    45.970154   -901.00371    1646.4842   -1142.5532    2.1738477    25.528811   0.12105438 
   62300   -947.55358    48.082496   -899.47108    1722.1406     7697.081    2.1989066    21.243391   0.12711162 
   62400   -937.23332    44.057994   -893.17532    1577.9976    750.15574    2.1599701       24.003   0.12524878 
   62500    -942.7772    43.402675   -899.37453    1554.5264   -5760.4054    2.1525306    24.915958   0.11919294 
   62600   -946.48464    46.819454   -899.66519     1676.903    4889.7963    2.1853846     22.95205   0.13126424 
   62700   -943.81334    52.597132   -891.21621    1883.8385    2520.7105     2.172451    24.175081   0.14394645 
   62800   -943.58812    45.338371   -898.24975     1623.856   -4893.3335    2.1535687    23.766754   0.11702764 
   62900    -944.0836    44.947375   -899.13623     1609.852   -1836.1761    2.1635181    20.414536   0.13201201 
   63000   -942.42422    52.752162   -889.67206    1889.3912    4876.0898     2.175472    24.331998   0.13219507 
   63100   -946.78461    50.120389   -896.66422    1795.1306   -55.071645    2.1709183    23.397757   0.13502589 
   63200   -944.39978    44.088955   -900.31082    1579.1065   -8295.0832    2.1504479    23.980977   0.12776247 
   63300   -942.32704    50.873993   -891.45305    1822.1219    1072.1044    2.1654033    24.694754    0.1182784 
   63400   -943.38663    47.972088   -895.41454    1718.1862     14571.51    2.2049795    24.204206   0.13610043 
   63500   -944.33714    44.076329   -900.26082    1578.6543   -8928.9347    2.1515114    23.850805   0.13512748 
   63600   -941.35181    45.938491   -895.41332    1645.3502   -11416.138    2.1350422    24.443534   0.13396208 
   63700   -942.00248    52.289569   -889.71291    1872.8227    14416.499    2.1998632    22.895734    0.1342827 
   63800   -945.94299     46.41842   -899.52457    1662.5395    7785.2209     2.193451    25.258239   0.13533575 
   63900    -942.4284     44.30063   -898.12777    1586.6879   -10897.194    2.1419878    24.718761   0.13804098 
   64000   -939.07249    47.061589    -892.0109    1685.5755    1391.2163    2.1608183    25.517793   0.14602918 
   64100   -950.74135    51.250704   -899.49064    1835.6144    5519.2142    2.1945408    23.382884   0.13575418 
   64200   -946.39254    46.519624   -899.87291    1666.1642   -1134.9695    2.1716317    26.259866   0.12515069 
   64300   -938.29859    45.339821   -892.95877    1623.9079   -5561.6577    2.1512414    27.827681   0.13394738 
   64400   -942.75713    43.471875   -899.28525    1557.0049    3999.9154    2.1856098    23.150569   0.15669066 
   64500   -946.85203    47.225588   -899.62644    1691.4493    4269.7513    2.1909351     24.82599   0.13669411 
   64600   -940.19346    48.067083   -892.12637    1721.5886   -6760.3847    2.1516701     26.01791   0.14999068 
   64700   -945.58109    46.334217   -899.24688    1659.5236   -5123.6546    2.1680136    25.919604   0.14545613 
   64800   -941.95256    42.967331   -898.98523     1538.934    7873.3314    2.1926843    25.916026   0.16019727 
   64900   -941.81457    51.202972   -890.61159    1833.9048   -1864.6724    2.1614853    22.902386   0.15971182 
   65000   -944.91308    47.432468   -897.48061     1698.859   -5288.8618    2.1619291    26.044291   0.13921941 
   65100   -945.23741    46.250643   -898.98677    1656.5303    698.49113    2.1815007    25.784643   0.12980003 
   65200   -939.95004    49.308969   -890.64107    1766.0685     7358.323    2.1812312    25.418012   0.15701192 
   65300    -942.6427    45.115792   -897.52691    1615.8841   -3891.5418    2.1638408    25.977743   0.13898427 
   65400   -943.60811    44.285992   -899.32212    1586.1636   -8088.6971    2.1539584    25.362472   0.16967779 
   65500   -942.90845     51.96556   -890.94289    1861.2179    9540.5931    2.1896891    39.449412   0.15295802 
   65600   -944.59364    47.999811   -896.59383    1719.1791    6259.7955    2.1874217    36.043053   0.17236459 
   65700    -943.5446    42.021225   -901.52338    1505.0479   -12221.233    2.1435386    44.108469   0.14495718 
   65800   -941.29672    48.734417    -892.5623    1745.4901   -1473.8626    2.1555799    25.249094   0.15577855 
   65900   -943.98585     49.93755    -894.0483     1788.582    12431.939    2.1995098    29.803082   0.15492267 
   66000   -947.25636    47.018395   -900.23797    1684.0284   -3357.3358    2.1712984    32.799309   0.14939681 
   66100   -941.14452    48.951173   -892.19335    1753.2535   -9861.0301    2.1420432    32.285231   0.14118846 
   66200   -942.40174    48.728358   -893.67338    1745.2731    2217.5478    2.1759331    30.958067   0.15746014 
   66300   -945.64696    46.626401   -899.02056    1669.9886    6305.8643    2.1924536    24.038809   0.15332846 
   66400   -939.17944    47.469757   -891.70968    1700.1945   -3405.2177    2.1510769    24.853375   0.14984642 
   66500    -940.1063    46.635752   -893.47054    1670.3235   -2367.3812    2.1543756    24.513991   0.15249861 
   66600   -941.69112    43.238501   -898.45261    1548.6463    9202.1008    2.1877044    25.110489   0.15539252 
   66700   -941.37453    50.555808   -890.81872    1810.7257    3760.8913    2.1688454    24.369759   0.14620404 
   66800   -942.86675    49.943704   -892.92305    1788.8024   -4909.6012    2.1497936    23.756552   0.13025325 
   66900   -943.72422    44.421154   -899.30307    1591.0047   -802.26103    2.1687382    24.447553   0.12322601 
   67000   -940.12263    47.516459   -892.60617    1701.8672    5544.8677    2.1769286    25.775459   0.13081878 
   67100   -944.58297    51.582638   -893.00033     1847.503   -3423.3188    2.1610797    26.828778    0.1332641 
   67200   -947.20125    46.799416   -900.40184    1676.1854    -3645.206    2.1638909    23.351539   0.13319439 
   67300   -943.41495    48.475466   -894.93949    1736.2154     4692.054    2.1790311    23.824702   0.14450675 
   67400   -941.15494    49.146993   -892.00795     1760.267    5402.8172    2.1754952    23.676403   0.14045283 
   67500   -945.07073    43.102499   -901.96823    1543.7752    -5652.081    2.1613533    26.041794   0.12298278 
   67600   -944.30947    46.109062   -898.20041    1651.4594   -8441.0484    2.1524161      24.6104   0.11551146 
   67700   -945.25516    52.524179   -892.73098    1881.2256    10470.923    2.1990313     24.53115   0.14238686 
   67800   -946.96539    47.049017   -899.91637    1685.1252    3579.7922    2.1883857    22.779083   0.12467867 
   67900   -948.44482    45.570471   -902.87434     1632.169    -19788.25    2.1322687    24.807083   0.12118452 
   68000   -940.65841     45.96663   -894.69178     1646.358    347.30784    2.1633482    25.384158   0.15014348 
   68100   -941.66707    46.688013   -894.97906    1672.1953     16742.74    2.2042723    24.589424    0.1328937 
   68200   -947.47174    46.141782   -901.32996    1652.6313   -4065.0557    2.1653925    24.289376   0.13470295 
   68300   -939.43496    47.337491   -892.09747    1695.4573   -6097.3346    2.1427307    26.942729   0.13198497 
   68400   -943.05566      49.6301   -893.42556    1777.5702    5540.2928    2.1826032    21.229198    0.1305529 
   68500   -943.43362    44.690418    -898.7432    1600.6487    4685.1816    2.1828486    23.847577   0.13439462 
   68600   -941.36045    47.607295   -893.75316    1705.1207   -5007.7979    2.1489484    23.709874   0.11381259 
   68700    -942.2747     51.30493   -890.96977    1837.5565   -1389.4509    2.1571389    25.018373   0.13590615 
   68800   -943.18024    44.867051   -898.31319    1606.9751    7084.6553    2.1862287     27.43037   0.14864086 
   68900   -943.51603    47.449039   -896.06699    1699.4525   -1146.0397    2.1671741    19.559364   0.14562228 
   69000   -942.02414    51.252664   -890.77147    1835.6846   -6137.0762    2.1463064     26.67649   0.15416059 
   69100   -944.51563    44.440901   -900.07473    1591.7119    4035.8236     2.183182    27.296853   0.13141132 
   69200   -946.02736    50.405205   -895.62216    1805.3316    4865.4375    2.1832489    23.868402   0.12332195 
   69300   -938.93556    45.613097   -893.32247    1633.6957   -7533.7208    2.1440828    26.591449   0.13323797 
   69400   -946.24258    42.694257   -903.54832    1529.1535     585.7182    2.1778912    21.529007   0.13681449 
   69500   -948.15104     50.98531   -897.16573    1826.1089    8209.1639    2.1995381    22.953918   0.13676177 
   69600   -942.41699    48.384916   -894.03207    1732.9722    -3162.555    2.1583274    25.949339   0.13343314 
   69700   -943.15071    44.451003   -898.69971    1592.0737   -13152.786    2.1355212    28.210319   0.13874261 
   69800   -946.62274    45.907492   -900.71525    1644.2399    8639.7348    2.1985113    25.628575   0.13677366 
   69900   -944.58737    52.920782   -891.66659    1895.4305    7771.4989    2.1912955    21.207634   0.14365464 
   70000     -944.297    47.349245   -896.94775    1695.8782   -9654.4785    2.1442542    23.501376   0.13634809 
   70100   -944.59109    44.286584   -900.30451    1586.1848   -1931.6057    2.1647392     25.62641   0.11170975 
   70200   -945.53576    50.843738   -894.69202    1821.0383    8921.2215    2.1925899    28.803675   0.13844815 
   70300   -939.87196    47.668037   -892.20392    1707.2962    2609.5992     2.167178    27.256697   0.13978475 
[...]
  186800   -941.74038    44.366666   -897.37371    1589.0531   -6636.1244    2.1529666    67.645475   0.12588267 
  186900   -942.46324    51.008872   -891.45436    1826.9528   -6382.2887    2.1507581    67.974565   0.12776305 
  187000   -946.66211    46.673338   -899.98877    1671.6697    7683.5164    2.1935113    65.004671   0.13004716 
  187100    -946.3789    46.546055   -899.83284    1667.1109   -3391.7857    2.1657151    67.183465   0.12890634 
  187200   -942.36971    46.693892   -895.67582    1672.4059   -3090.1934    2.1559854    70.520261   0.13156786 
  187300   -937.17699    43.963827   -893.21316    1574.6249     8852.915    2.1769236    64.325472   0.13517889 
  187400   -949.04888    45.574105   -903.47477    1632.2992    4199.1219    2.1906065    67.644629   0.12452789 
  187500   -942.90597    44.899794   -898.00618    1608.1478   -8840.8347    2.1421206    65.586532   0.12452721 
  187600   -941.94244    47.217953   -894.72449    1691.1759    1477.3451    2.1686174    66.500683   0.12729565 
  187700   -947.33104    47.461863   -899.86917    1699.9118    9917.3632    2.1977185    65.877652   0.11209243 
  187800    -947.8689    43.702818   -904.16609    1565.2764   -3546.0222    2.1702744    67.694625   0.11037937 
  187900   -940.21446    44.676417   -895.53804    1600.1472   -7767.0903    2.1443441    71.450797   0.14133664 
  188000   -944.24364    48.768609   -895.47503    1746.7147    5995.0521    2.1870037    72.400962    0.1291126 
  188100   -949.37463    47.288249   -902.08638    1693.6936    4690.6682    2.1940039    65.686293   0.12032435 
  188200   -942.94788    47.728711   -895.21917    1709.4693   -9704.1803    2.1434547    66.194503   0.12109813 
  188300   -943.33803     49.10994    -894.2281    1758.9399   -3209.4402    2.1633992    65.601251   0.13118504 
  188400   -944.60026    48.647485   -895.95277    1742.3765    17431.938    2.2157202    65.663646   0.14229088 
  188500   -948.23602    47.098528    -901.1375    1686.8985   -8327.7085    2.1609248    67.236078   0.12431701 
  188600    -939.4375    47.847748   -891.58976    1713.7328   -22566.048    2.1038155    65.720307   0.14339675 
  188700   -942.82814    50.898158   -891.92998    1822.9874    11999.337    2.2009466    66.024932    0.1363333 
  188800   -947.33973    49.930898   -897.40883    1788.3437    9319.4697    2.1983539     73.65851   0.12384697 
  188900   -942.00713    44.961011   -897.04612    1610.3404    -9279.419    2.1406353    68.101508   0.14322938 
  189000   -938.57158    48.804057   -889.76752    1747.9843   -3616.2436    2.1507792    61.975003   0.12778261 
  189100   -950.81825    51.068007   -899.75024    1829.0708    9548.8255    2.2086195    65.872904   0.13411466 
  189200   -945.73178    47.694597   -898.03718    1708.2475   -2457.5938    2.1671387    67.571054   0.13144271 
  189300   -940.32251    46.370534   -893.95197    1660.8243   -8796.6341    2.1398277    65.757687   0.13452678 
  189400   -947.97278    46.835627   -901.13715    1677.4823    2884.3589    2.1894805    68.164265   0.14937821 
  189500   -948.09777    47.563748   -900.53402     1703.561    5795.6567    2.1928949    70.784253   0.12042302 
  189600   -942.23767    47.192153   -895.04552    1690.2518   -6691.5339    2.1502988    70.728476   0.12846632 
  189700   -947.30487    51.663534   -895.64133    1850.4004   -7329.7434    2.1561503     67.93055   0.13144628 
  189800   -949.16069    46.093853   -903.06684    1650.9146    9331.5589    2.2063732    64.057346   0.12179495 
  189900   -939.88193    46.016486   -893.86544    1648.1436    2284.6613    2.1642616    66.564774   0.13533126 
  190000   -942.12938    46.479544   -895.64984    1664.7287   -5288.3087    2.1514693    69.040454   0.13627474 
  190100   -946.23009    45.389413   -900.84067    1625.6842     2687.032    2.1827501    69.740393   0.13603051 
  190200   -946.25568    46.264119   -899.99156     1657.013    7589.1883    2.1946817    65.371457   0.12336361 
  190300   -943.91075    50.782083   -893.12866    1818.8301   -8863.5236    2.1416155    69.282312   0.12511135 
  190400   -946.03192    47.556405   -898.47551     1703.298   -6367.0613    2.1554406    67.483803   0.12652262 
  190500   -947.19141     50.36928   -896.82213     1804.045     11081.95    2.2031962    72.578163   0.12903898 
  190600   -937.63161    49.930805   -887.70081    1788.3404    286.55165    2.1562322    66.288648   0.12539107 
  190700   -939.89857    43.471039   -896.42754     1556.975   -6579.2756    2.1418526    69.884218   0.12826903 
  190800   -946.88673    49.131663   -897.75507     1759.718     915.1052    2.1757554    63.848063   0.12327118 
  190900   -943.06953    49.167739   -893.90179    1761.0101    5841.0228    2.1821949    70.093498   0.13646876 
  191000   -937.64887    48.232657   -889.41622    1727.5188   -4145.9062     2.141482    67.473711   0.14674991 
  191100   -945.71951    46.476886   -899.24263    1664.6335    2327.2351    2.1758905    65.878664   0.11188044 
  191200   -944.53232    48.224337   -896.30798    1727.2209    3032.3687    2.1754825      67.8918   0.13649226 
  191300   -939.87318    48.523539   -891.34964    1737.9372   -1897.7857    2.1561066    70.912032   0.13853979 
  191400   -945.82627    45.031136   -900.79514     1612.852   -3581.6899    2.1665639    74.901048   0.12217842 
  191500   -946.79032    47.436988   -899.35333    1699.0209    -934.0449    2.1697572    67.258205    0.1263257 
  191600    -942.9282     48.67768   -894.25052     1743.458    4223.4592    2.1748022     67.45165   0.12129034 
  191700   -941.25829    44.139491    -897.1188    1580.9165    -1695.378    2.1635064    68.113685    0.1453836 
  191800   -946.28359     42.88051   -903.40308    1535.8244   -1031.5092     2.175779    68.873013   0.13068934 
  191900   -946.48202    51.092789   -895.38924    1829.9584   -425.23237    2.1726619    68.894021   0.12491569 
  192000   -945.02813    49.294049   -895.73408    1765.5341   -1160.2028    2.1678492    64.172948    0.1384764 
  192100   -947.73539    43.356509   -904.37888    1552.8729   -1965.5481    2.1760269    74.809396   0.13153215 
  192200   -944.43812    47.462651   -896.97547      1699.94    -1257.706    2.1677949    68.191317   0.13757095 
  192300   -945.41786    51.026163    -894.3917    1827.5721    3490.7432    2.1788506    69.557342   0.12745228 
  192400   -946.37635    45.644298   -900.73205    1634.8132   -4349.3128    2.1650075    67.947949   0.12043574 
  192500   -945.89721    46.704895   -899.19232       1672.8   -6530.9634    2.1580382    70.453783   0.12532151 
  192600   -942.47687    50.076618   -892.40025    1793.5628    4182.5036     2.168685      68.2793   0.13295146 
  192700   -945.62897    48.745631   -896.88333    1745.8917    848.87258    2.1692052    72.598182   0.13476417 
  192800    -945.5038    44.798072   -900.70573    1604.5045   -4775.1967    2.1620139    66.876122     0.120029 
  192900   -940.01697    48.223559   -891.79341     1727.193    2268.4499    2.1653803    67.774041    0.1407833 
  193000   -939.66706    47.202542   -892.46452    1690.6239     10191.86    2.1827425    64.901349   0.13526582 
  193100    -945.1698    46.749418   -898.42038    1674.3946    -7269.462    2.1548038    71.038148   0.13572906 
  193200   -941.94965    46.015849    -895.9338    1648.1208   -3174.9696    2.1583505    68.982474   0.13789712 
  193300   -942.00835    54.770498   -887.23785    1961.6806    4897.0396    2.1811748    66.861664   0.16246223 
  193400   -941.45256    45.580172   -895.87239    1632.5165    4722.7727    2.1783433    64.708762   0.14956922 
  193500   -945.14925    46.656267   -898.49298    1671.0583   -10631.357    2.1469968    65.894299   0.13117079 
  193600   -940.70738    49.693431   -891.01395    1779.8385    1705.3123    2.1654957    72.137648   0.15358002 
  193700   -942.39239    49.949599   -892.44279    1789.0135    10973.107    2.1909875    67.530561   0.13120385 
  193800   -945.84371    47.002366   -898.84134    1683.4543   -6108.3334    2.1594752    66.128883   0.12722938 
  193900   -945.07021    48.365595   -896.70461    1732.2802   -7851.6694    2.1530178    69.347524    0.1465225 
  194000   -935.01846    44.986358   -890.03211    1611.2482     12039.39    2.1837012    63.897297   0.11729735 
  194100   -945.03247    46.209534   -898.82294    1655.0579    2920.7463    2.1825453     70.76008   0.13146317 
  194200    -942.1183    42.662712   -899.45559    1528.0236   -13655.716     2.131014     73.79102   0.12660957 
  194300   -944.67109     49.88978   -894.78131     1786.871    2014.4961     2.176499    71.468143   0.13462964 
  194400   -941.24336    45.282111   -895.96125     1621.841    18873.751    2.2113353    72.293821    0.1675742 
  194500   -944.54742    39.499485   -905.04794    1414.7283   -5340.1388    2.1614983    70.259004   0.14218735 
  194600   -942.99492    47.368423    -895.6265    1696.5651   -9549.3836    2.1442242    67.892374    0.1379892 
  194700   -946.02678    53.114166   -892.91261    1902.3568    5059.7154    2.1787845    59.404545   0.12863287 
  194800   -945.57232    46.610134   -898.96218     1669.406    914.29859    2.1771655    55.314773    0.1318449 
  194900   -944.06453    45.643086   -898.42144    1634.7698   -7130.4375    2.1546449      56.9815   0.13821523 
  195000   -943.11109    51.210153   -891.90094     1834.162   -3218.0341    2.1587527    52.415318   0.12521823 
  195100   -943.95028    47.348876    -896.6014     1695.865    3485.7957    2.1830897    44.717677   0.13310182 
  195200   -945.01237      44.9128   -900.09957    1608.6136    245.26454    2.1709806    49.484519   0.12411038 
  195300   -940.06318    49.808902   -890.25428    1783.9742   -7447.4211    2.1457857    47.594407   0.13324836 
  195400   -941.39971    46.290684   -895.10902    1657.9644    3875.8305     2.178394    40.775669   0.14281761 
  195500    -944.6062     46.62689   -897.97931    1670.0061    3125.4904    2.1752128    41.778288   0.13168835 
  195600   -937.81017    47.358031   -890.45214    1696.1929   -4134.2746    2.1491101    49.211537   0.13116529 
  195700   -948.61867    50.879732   -897.73894    1822.3275   -2341.1531    2.1735997    45.438771   0.12434508 
  195800   -945.47993     46.76491   -898.71502    1674.9495    1448.5991    2.1779527    46.372166   0.11328253 
  195900    -942.6141    49.290081   -893.32402    1765.3919    -963.3078    2.1647087    45.039268    0.1307694 
  196000   -941.71459    45.750383    -895.9642    1638.6128   -2038.1712    2.1592573    45.369171   0.12997674 
  196100   -944.10359    42.977831   -901.12575    1539.3101    5024.8531    2.1845056    44.961322   0.13963961 
  196200    -946.5906    52.616887   -893.97371    1884.5461    3427.0326    2.1817661    44.374273   0.12430982 
  196300   -943.43272    46.926137   -896.50659     1680.724    -6029.297    2.1553594    47.207508   0.14132673 
  196400   -946.44604    42.418408   -904.02763    1519.2735    -1778.485     2.176826    51.797595   0.12498469 
  196500   -942.94244    47.972262   -894.97018    1718.1924    6095.4429    2.1874903     47.18136   0.13199242 
  196600    -943.9755    48.639183   -895.33631    1742.0792    901.87549    2.1730902     47.09118   0.12095925 
  196700   -946.16549    43.832369   -902.33312    1569.9165   -8426.8668    2.1592858    48.836261   0.11734239 
  196800   -941.31769    44.873963   -896.44372    1607.2226    4771.3485    2.1758995    50.876962   0.13046382 
  196900   -941.20762     48.82653   -892.38109    1748.7892    11111.135     2.194952    43.847544   0.14928877 
  197000   -945.20294    45.860444    -899.3425    1642.5548   -8500.9003    2.1563001    49.273507   0.14402679 
  197100   -941.22277    45.515831   -895.70694     1630.212    -5765.475    2.1479729     49.68852   0.14422359 
  197200   -941.16413    51.998397   -889.16573     1862.394    8481.8204    2.1825746    45.563779   0.14881194 
  197300   -945.34164    48.737546    -896.6041    1745.6022    3849.9947     2.182485    49.328406   0.13699807 
  197400   -944.92983    45.894455   -899.03537    1643.7729   -7645.6973    2.1548415    51.345483   0.12769631 
  197500   -939.73897    49.909615   -889.82936    1787.5814    558.47471    2.1608055    45.179405   0.13444655 
  197600   -943.75246    48.676539   -895.07592    1743.4171    6331.4648    2.1842094    48.865522   0.11801045 
  197700   -948.74006    49.596551   -899.14351    1776.3686   -4721.1591     2.168858    45.692592   0.12248875 
  197800   -940.44613    46.737973   -893.70816    1673.9847   -1198.8023    2.1627109    51.778705   0.14076179 
  197900   -939.93949    48.623072   -891.31642    1741.5021    1662.6329    2.1669138    45.941169   0.14044544 
  198000   -946.81869    46.028251   -900.79044     1648.565    3765.0642    2.1904855    49.498983    0.1495721 
  198100   -941.88958    45.494567   -896.39501    1629.4504   -1190.4205     2.166511    47.086657   0.14595111 
  198200   -943.67947    50.762311   -892.91716    1818.1219    -3885.659     2.161459    47.664932   0.13245409 
  198300   -946.91747    44.092715   -902.82475    1579.2412    3156.5183    2.1910681     46.06198   0.13301455 
  198400   -943.74594    45.554835   -898.19111     1631.609   -1304.0165    2.1732419    50.448297   0.12234648 
  198500   -942.29592    47.940912     -894.355    1717.0696   -1220.6066    2.1650213    48.693968   0.12076113 
  198600   -943.47643    42.859444   -900.61698    1535.0699    3671.4846    2.1839458    46.208237   0.13133763 
  198700   -948.55082    47.105239   -901.44559    1687.1388   -826.45838    2.1794666     46.90452    0.1247174 
  198800   -943.55427    48.975492   -894.57878    1754.1245   -3380.3984    2.1610511    47.147825   0.14845665 
  198900   -945.66268    47.907836   -897.75484    1715.8849   -137.25807    2.1716998      46.3536   0.13794145 
  199000   -950.33062    47.521709   -902.80891    1702.0553    5969.5938    2.2010163     45.06824    0.1314646 
  199100   -940.69786    48.300847   -892.39701    1729.9612   -5270.1121    2.1534474    47.369076   0.14505118 
  199200   -945.17599    49.350689    -895.8253    1767.5627   -4843.1708     2.160573    49.248857   0.12925534 
  199300   -949.02086    50.459669   -898.56119    1807.2824    6594.9896    2.1954433    48.260395   0.11798501 
  199400   -946.89089    46.432653   -900.45824    1663.0492    1442.3656    2.1831461    44.393707   0.13468246 
  199500   -936.46188     46.55058    -889.9113    1667.2729   -10046.593    2.1267831    47.580845    0.1405301 
  199600   -942.70255    46.638504   -896.06405    1670.4221    1204.2926     2.176769    46.859637    0.1476403 
  199700    -943.2663    46.051509   -897.21479    1649.3981    11191.199    2.1993388    44.983717   0.14884886 
  199800   -943.90774    50.405978   -893.50176    1805.3593   -5174.3174    2.1551671    46.097476   0.13114815 
  199900   -938.95036    49.639777   -889.31058    1777.9168   -9540.1176    2.1368312    46.374352   0.14537503 
  200000   -943.63187    46.362425   -897.26945    1660.5339    7937.5417    2.1876038    47.324017   0.13105698 
  200100   -943.26616    46.243359    -897.0228    1656.2694    5821.4171    2.1851893    44.692198   0.13533018 
  200200   -937.72897    48.881287   -888.84768    1750.7504   -6345.7085    2.1427314    46.227307   0.15784224 
  200300   -947.26994    49.855432   -897.41451    1785.6408   -2188.0068    2.1686229    45.852276   0.11897612 
  200400   -945.63961    47.910482   -897.72913    1715.9797    4461.6344    2.1804702    46.447792   0.14037647 
  200500   -940.41048    46.232503   -894.17798    1655.8806    2229.6983    2.1714735    46.662845   0.14673406 
  200600   -940.63513    51.343634    -889.2915    1838.9428   -5331.4336    2.1538803    50.625111   0.14394052 
  200700   -949.37523    48.964212   -900.41102    1753.7205    2026.1875    2.1893529    46.018775   0.13680177 
  200800   -943.18599    45.450194    -897.7358    1627.8611    24.946019    2.1719146    48.999437   0.13520931 
  200900   -945.13453    50.071876   -895.06266     1793.393   -4636.1531    2.1631686    51.864622   0.13793564 
  201000   -944.67906    49.600792   -895.07827    1776.5205   -242.18966    2.1731416    51.653718   0.13673671 
  201100   -949.39369    45.559626   -903.83406    1631.7806    4925.1078    2.1997646     48.57203   0.13971203 
  201200   -943.82758    46.095526   -897.73206    1650.9746   -1806.0196    2.1677963    46.033577    0.1471305 
  201300   -945.03844    49.999028   -895.03941    1790.7839   -3706.0104    2.1650174    46.986695   0.13616025 
  201400   -946.43539    45.185093    -901.2503    1618.3662    2116.5893    2.1826497    50.727948   0.13549285 
  201500   -947.06957     45.01434   -902.05523    1612.2504    733.70595    2.1838812    47.093324   0.13693184 
  201600   -941.90134    46.624337     -895.277    1669.9147    21.480311    2.1684998     48.92026   0.14398113 
  201700   -947.01116     50.09598   -896.91518    1794.2563   -1941.4919    2.1712629    47.641406   0.13084744 
  201800   -948.92871    44.116694   -904.81201       1580.1    2171.4452    2.1896758    53.459902   0.13239992 
  201900    -942.9705    47.162463   -895.80803    1689.1884   -1907.4382    2.1692555    45.932523   0.15017419 
  202000   -943.52525    48.008623   -895.51663    1719.4948    829.92855    2.1746828    49.658643   0.14329559 
  202100   -946.17493    46.856162   -899.31877    1678.2178     270.4505    2.1784558    45.755264   0.13978443 
  202200   -947.72188    42.255842   -905.46603     1513.451   -2300.1771    2.1787645    44.771665    0.1433518 
  202300   -940.96359    45.179496    -895.7841    1618.1657   -1032.4039    2.1650056    43.598534   0.14037604 
  202400   -941.97151    46.889251   -895.08226    1679.4029     12873.32    2.2022208    46.690487   0.14386932 
  202500   -942.37091    45.376304   -896.99461    1625.2147   -2529.9881    2.1623847    50.526999   0.13815702 
  202600   -938.76247    46.240292   -892.52218    1656.1596   -12118.222    2.1265369    44.031117   0.13579535 
  202700   -936.66966    50.837619   -885.83204    1820.8191    7399.4965    2.1720966     47.01288   0.16019367 
  202800   -943.02718    49.110037   -893.91714    1758.9434    12460.529     2.197515    46.681903   0.15343374 
  202900   -944.09243    46.731938   -897.36049    1673.7686   -9441.2447    2.1479728    44.404391   0.14149344 
  203000   -940.78758    44.983443   -895.80414    1611.1438   -5356.4421    2.1541977    47.780652    0.1342668 
  203100   -936.52191     50.59773   -885.92418    1812.2272     13938.45    2.1824055    47.116441   0.13430866 
  203200   -938.69104    47.017353   -891.67369    1683.9911    3076.8582    2.1665297     48.94956   0.15312709 
Loop time of 141.418 on 1 procs for 200000 steps with 217 atoms

Performance: 366.573 ns/day, 0.065 hours/ns, 1414.246 timesteps/s
100.0% CPU use with 1 MPI tasks x no OpenMP threads

MPI task timing breakdown:
Section |  min time  |  avg time  |  max time  |%varavg| %total
---------------------------------------------------------------
Pair    | 135.97     | 135.97     | 135.97     |   0.0 | 96.15
Neigh   | 2.3299     | 2.3299     | 2.3299     |   0.0 |  1.65
Comm    | 0.91135    | 0.91135    | 0.91135    |   0.0 |  0.64
Output  | 0.071537   | 0.071537   | 0.071537   |   0.0 |  0.05
Modify  | 1.8357     | 1.8357     | 1.8357     |   0.0 |  1.30
Other   |            | 0.3023     |            |       |  0.21

Nlocal:    217 ave 217 max 217 min
Histogram: 1 0 0 0 0 0 0 0 0 0
Nghost:    953 ave 953 max 953 min
Histogram: 1 0 0 0 0 0 0 0 0 0
Neighs:    4086 ave 4086 max 4086 min
Histogram: 1 0 0 0 0 0 0 0 0 0
FullNghs:  8172 ave 8172 max 8172 min
Histogram: 1 0 0 0 0 0 0 0 0 0

Total # of neighbors = 8172
Ave neighs/atom = 37.659
Neighbor list builds = 3946
Dangerous builds = 45
Total wall time: 0:02:23
