LAMMPS (3 Mar 2020)
Reading data file ...
  orthogonal box = (0 0 0) to (12.27 12.27 12.27)
  1 by 1 by 1 MPI processor grid
  reading atoms ...
  108 atoms
  read_data CPU = 0.00104525 secs
Reading potential file /usr/share/lammps-stable/potentials/Ag_u3.eam with DATE: 2007-06-11
Neighbor list info ...
  update every 1 steps, delay 10 steps, check yes
  max neighbors/atom: 2000, page size: 100000
  master list distance cutoff = 7.55
  ghost atom cutoff = 7.55
  binsize = 3.775, bins = 4 4 4
  2 neighbor lists, perpetual/occasional/extra = 1 1 0
  (1) pair eam, perpetual
      attributes: half, newton on
      pair build: half/bin/atomonly/newton
      stencil: half/bin/3d/newton
      bin: standard
  (2) compute rdf, occasional, copy from (1)
      attributes: half, newton on
      pair build: copy
      stencil: none
      bin: none
Setting up Verlet run ...
  Unit style    : metal
  Current step  : 0
  Time step     : 0.005
Per MPI rank memory allocation (min/avg/max) = 3.723 | 3.723 | 3.723 Mbytes
Step PotEng KinEng TotEng Temp Press Density c_msdall[4] 
       0       -307.8    17.011928   -290.78807         1230    9836.4043    10.472245            0 
     100   -295.85497    7.5129681     -288.342    543.20421   -2962.3731    9.9577422  0.073203743 
     200   -294.94122    8.9933423   -285.94787    650.23854   -6081.7796    9.8786488  0.088990028 
     300   -294.55177    10.778109   -283.77366    779.28109    10805.129    10.022098  0.080889896 
     400   -295.04574    13.407217   -281.63853    969.37146   -2305.1131    9.8863668  0.092064083 
     500   -291.76963    12.349774   -279.41985    892.91595   -7457.2914    9.7003906   0.11987084 
     600    -293.0018    15.559808     -277.442    1125.0085   -2680.1741    9.7961886    0.1133329 
     700   -290.66792    15.612295   -275.05562    1128.8035    15925.105     9.905148    0.1458467 
     800   -288.27176      15.0187   -273.25306    1085.8852   -1188.2557    9.6193422   0.15643176 
     900   -288.63422    17.450043   -271.18418    1261.6767   -16495.554    9.4464818   0.15206508 
    1000    -286.6666    18.217113   -268.44949    1317.1376    -2465.483    9.5337486   0.19130086 
    1100   -286.55936    18.594307   -267.96506    1344.4096    3574.7707    9.5838133   0.21475798 
    1200   -287.40796    15.620836   -271.78712     1129.421     11181.58     9.721235   0.16675548 
    1300   -289.00285    16.729118   -272.27374    1209.5522   -2423.8197    9.6489198   0.13895095 
    1400   -286.17031    17.375408   -268.79491    1256.2804   -4426.9787    9.5048077   0.18782618 
    1500   -285.18893    16.031107   -269.15782    1159.0845   -2624.1748    9.4677892   0.19151463 
    1600   -289.67659    16.007039   -273.66955    1157.3443    6414.9753    9.7631168   0.13179631 
    1700   -288.03034    17.874126   -270.15622    1292.3389    9554.2985    9.7247235   0.14824691 
    1800    -285.7003    16.758486   -268.94181    1211.6756    4308.2595     9.573397   0.18373916 
    1900   -287.31978    15.811881    -271.5079    1143.2339   -26196.394    9.2999467   0.17277856 
    2000   -287.69552    16.266896   -271.42863    1176.1326    2659.6399    9.6282371   0.15731622 
    2100   -286.59852    19.471097   -267.12743    1407.8033     7068.894    9.6107572   0.18196283 
    2200   -287.97488    18.979976    -268.9949    1372.2942    2049.1173    9.6095285    0.1641682 
    2300   -287.08881     14.08497   -273.00384    1018.3745    6076.2196    9.6742321   0.14345616 
    2400   -286.90177    17.969156   -268.93261    1299.2097    2900.7581    9.5949841   0.17635754 
    2500   -283.84679    15.862126   -267.98467    1146.8668    5342.1733    9.5002344   0.22946448 
    2600   -286.64149    16.141581   -270.49991     1167.072   -8456.3752    9.4516306   0.17693847 
    2700   -289.37918    17.663658   -271.71552    1277.1215    11274.735    9.7761561    0.1367204 
    2800   -286.42464     19.10013   -267.32451    1380.9816    5688.7418     9.591587   0.17714131 
    2900   -285.70924    16.137166   -269.57207    1166.7528   -9214.7678    9.4188314   0.19301271 
    3000   -289.36722    17.213684   -272.15353    1244.5874   -13139.115    9.5309811   0.14500366 
    3100   -283.45072    15.833084   -267.61763     1144.767    1998.7321     9.441399   0.24787578 
    3200   -284.65611    16.952468   -267.70364    1225.7009   -7580.2769    9.4099212   0.21664667 
    3300   -286.49216    16.671602   -269.82056    1205.3937   -6031.5633    9.4832226   0.20162238 
    3400   -286.44298    16.643486    -269.7995    1203.3609    4633.2428    9.5948352   0.19019436 
    3500   -282.44226    18.499598   -263.94266    1337.5619   -9820.6969    9.2707932   0.24128618 
    3600   -284.39858    16.841275    -267.5573    1217.6614   -4246.6686    9.4162736   0.22480501 
    3700   -285.07566    16.074562    -269.0011    1162.2264    8845.0494    9.6008007   0.22645861 
    3800   -287.31052    17.410004   -269.90052    1258.7818   -7031.9483    9.4933441    0.1937871 
    3900   -289.18598     14.49472   -274.69126    1048.0003    -5518.678    9.6236846   0.15876187 
    4000   -286.70243    16.046182   -270.65625    1160.1744   -1548.4036    9.5538775    0.1921495 
    4100   -283.93789     14.78097   -269.15692    1068.6968    628.36076    9.4796912   0.19181055 
    4200   -287.96167    16.856668     -271.105    1218.7744   -7947.9942    9.5125656   0.16636435 
    4300   -290.01253    16.046047   -273.96648    1160.1647    15746.882    9.8655607   0.13151177 
    4400   -285.64729    16.159626   -269.48766    1168.3767    7791.1913    9.6121625   0.18970471 
    4500   -287.35291    18.602619   -268.75029    1345.0105   -10192.322    9.4693831   0.19242195 
    4600   -288.50891    18.273591   -270.23532    1321.2211    3638.3116     9.660838   0.17230012 
    4700   -289.49922    14.942383   -274.55684    1080.3674    3431.2394    9.7275624   0.15448157 
    4800    -287.2771    14.540903    -272.7362    1051.3394    -1886.109    9.5947627   0.15780508 
    4900   -286.75388    16.686814   -270.06707    1206.4936   -3279.7181    9.5155036    0.1867116 
    5000   -286.98138    18.534257   -268.44712    1340.0677    6632.0319    9.6453069   0.16338975 
    5100   -286.18529    17.748548   -268.43674    1283.2593    25249.535    9.8275859   0.19225492 
    5200   -289.37684    15.650742    -273.7261    1131.5833   -3536.8999    9.6253285   0.15585321 
    5300   -287.97554    16.071682   -271.90386    1162.0181   -8010.0241    9.5337992   0.16219561 
    5400   -285.77021    16.898982   -268.87122    1221.8338    8983.4663    9.6134662   0.19269243 
    5500   -286.02366    17.531382   -268.49227    1267.5577    12732.011    9.6833211   0.16279802 
    5600   -288.77952     16.04399   -272.73553     1160.016    6641.3567    9.7278565   0.14810865 
    5700    -285.7195    16.698755   -269.02075    1207.3569   -10290.518    9.4200408   0.20314878 
    5800   -284.36069    15.883662   -268.47703    1148.4239    6398.4341     9.543262   0.22412766 
    5900   -289.04467    18.154426   -270.89024    1312.6052   -11144.391    9.5235927   0.14929863 
    6000   -287.65802    15.115764   -272.54225    1092.9032   -1914.0182     9.575095   0.17351321 
    6100    -284.6227    16.503506   -268.11919      1193.24    5278.2437    9.5330884     0.210559 
    6200   -285.13622    15.122349   -270.01387    1093.3793    11138.221    9.6324165   0.21010787 
    6300   -289.34311    16.060824   -273.28229    1161.2331   -8620.5097    9.5742576   0.17133722 
    6400   -284.20824    15.388809   -268.81943    1112.6449   -4682.2822    9.4138025   0.21854385 
    6500   -284.04237    15.991188   -268.05119    1156.1982   -1971.6699    9.4410476   0.22968048 
    6600   -287.94784    15.677911   -272.26993    1133.5477    4468.1446    9.6663162   0.15533792 
    6700   -288.72476    17.609294   -271.11546    1273.1909    5512.9548    9.6930128   0.14925519 
    6800   -286.51089    18.312299   -268.19859    1324.0197    -10516.17    9.4640609   0.21738985 
    6900   -286.23199    17.980158   -268.25183    1300.0052    484.60703    9.5593058   0.19440644 
    7000    -289.0713    17.177663   -271.89364     1241.983   -7118.5892    9.5750254   0.18226972 
    7100   -284.27344    15.715417   -268.55803    1136.2594   -10724.821    9.3357152   0.25183862 
    7200   -282.75193    15.370006   -267.38192    1111.2854   -3539.5988    9.3476684   0.25329271 
    7300   -285.86487    14.814086   -271.05079    1071.0912   -4739.6201    9.4800083   0.19953861 
    7400    -288.1984    18.318356   -269.88004    1324.4577    8233.8678    9.6926467   0.15877853 
    7500   -286.01463     20.33896   -265.67567    1470.5518    12588.234    9.6721245    0.1983379 
    7600   -286.05205    18.210903   -267.84114    1316.6886   -4881.7687    9.4641858   0.23044202 
    7700   -290.31139    18.241435   -272.06995    1318.8961   -12654.883    9.5631878   0.17267762 
    7800   -287.57037    17.977647   -269.59272    1299.8236    13189.833    9.7209437   0.17477642 
    7900   -286.38865    18.411656   -267.97699    1331.2035   -72.571622    9.5144944   0.20231611 
    8000   -286.18148    14.607451   -271.57403     1056.151   -8764.2596    9.4500181   0.20841457 
    8100   -288.87539    17.046338   -271.82905    1232.4879   -6415.8573    9.5685362   0.18366905 
    8200   -286.42112    19.071284   -267.34983     1378.896   -4542.5014    9.4937985   0.16127279 
    8300   -287.43049    17.714491     -269.716    1280.7969    9199.4957    9.6904635   0.16800201 
    8400   -289.61953    18.024162   -271.59537    1303.1868    -5450.332    9.6005745   0.16106928 
    8500    -285.9276    17.076088   -268.85151     1234.639    -15038.68    9.3771565   0.19070809 
    8600   -284.84541    18.098103   -266.74731    1308.5329    -682.9941    9.4738558     0.206748 
    8700   -287.89673    18.444668   -269.45206    1333.5903     1929.762      9.60631   0.16754062 
    8800   -286.68759    15.236086    -271.4515    1101.6027    2388.5818    9.6010073   0.18853067 
    8900   -285.41088    18.720347   -266.69054    1353.5225    1857.0894    9.5186893   0.22044927 
    9000   -285.94318    19.564271   -266.37891    1414.5401    6777.3479    9.5922314   0.19698986 
    9100   -288.17491    16.894524   -271.28039    1221.5115   -2726.9953    9.6098602   0.14357478 
    9200   -287.46851    16.894782   -270.57373    1221.5301   -16529.024     9.413345   0.17894157 
    9300   -284.12011    17.572348   -266.54776    1270.5196    208.65256    9.4222887   0.19741865 
    9400   -287.35311     17.21311      -270.14    1244.5459    8332.4383    9.6542656   0.16158476 
    9500   -287.48338    16.376985    -271.1064    1184.0922   -4171.8786    9.5495087   0.17599931 
    9600   -285.05221    17.385342   -267.66687    1256.9987   -3749.8577    9.4368946   0.19395056 
    9700    -287.1068    17.016137   -270.09066    1230.3044   -9398.4419    9.4617825   0.21646707 
    9800   -288.45532    16.264498   -272.19082    1175.9592    7132.2992     9.709692   0.16071879 
    9900   -286.76734    18.973639    -267.7937    1371.8361    1626.5953     9.566674   0.18352812 
   10000   -285.41984    16.579341    -268.8405     1198.723    6085.9973    9.5589977   0.21267522 
   10100   -287.94349    15.156153   -272.78734    1095.8234   -1320.2988    9.6060389    0.1740799 
   10200   -285.99622    15.974228     -270.022     1154.972   -3420.7107    9.5045954   0.20790826 
   10300   -285.43738    17.973841   -267.46354    1299.5484   -12881.832    9.3683556   0.21508843 
   10400   -287.63518    17.052862   -270.58232    1232.9596    10549.118    9.7012862   0.15616444 
   10500    -288.5715    17.527873   -271.04362     1267.304    11304.302    9.7597863   0.14292849 
   10600   -284.69836    18.816474   -265.88189    1360.4727   -5230.4907    9.3928083   0.20852454 
   10700    -287.6542    19.559744   -268.09446    1414.2128   -4491.6161    9.5422389   0.17201468 
   10800   -288.69988    17.195099   -271.50478    1243.2437    4863.0361    9.6763216   0.14748689 
   10900   -288.24258    18.752783   -269.48979    1355.8677   -12060.016    9.4896387   0.18318696 
   11000   -283.43721    16.777979   -266.65923     1213.085    -4048.268    9.3818463   0.24552778 
   11100   -287.15101    16.120725   -271.03029    1165.5641    356.15115     9.585151   0.18057443 
   11200   -286.80515    15.750919   -271.05423    1138.8263   -2336.0584    9.5456715   0.17261286 
   11300    -284.3916    17.077894   -267.31371    1234.7695   -3606.8201    9.4379577    0.2519906 
   11400   -283.97825    18.385609   -265.59264    1329.3202    6258.4518    9.5121675   0.20404437 
   11500   -286.80662    16.366785   -270.43983    1183.3548   -8038.3221    9.4694292    0.2093336 
   11600   -285.11908    16.464373   -268.65471    1190.4106   -8647.1126    9.3950815   0.26247533 
   11700   -285.38317    18.671779   -266.71139    1350.0109    2265.8078    9.5155415    0.2184166 
   11800   -287.28398    16.309018   -270.97496    1179.1781    6228.5839    9.6599683   0.20962312 
   11900    -284.7239    14.920009    -269.8039    1078.7496   -10743.345    9.3854718   0.19839506 
   12000   -283.64172    18.239651   -265.40207    1318.7671   -18575.628     9.197275   0.25057752 
   12100   -285.36418    16.746874    -268.6173     1210.836    14262.113    9.6557385   0.19636646 
   12200   -287.22073    15.974663   -271.24607    1155.0035    21806.353    9.8290632   0.15686865 
   12300    -284.9362    16.719576   -268.21662    1208.8623    5786.9232    9.5636461   0.20153544 
   12400   -285.32631    17.972428   -267.35388    1299.4463   -11724.311    9.3578813   0.21945729 
   12500   -289.71079    17.130802   -272.57999    1238.5949    5796.8558    9.7455704   0.15404164 
   12600   -287.92584     17.55451   -270.37133    1269.2299    6601.1126    9.6855279   0.14555911 
   12700   -285.50432    18.209006   -267.29531    1316.5514   -11169.707     9.409808   0.19573318 
   12800   -285.90622    16.317122    -269.5891     1179.764     6193.981    9.6121574   0.22159334 
   12900   -288.90373    18.359403   -270.54432    1327.4255    3292.5712    9.6789603   0.15104065 
   13000   -285.20952    18.510302   -266.69922    1338.3358    4119.3354    9.5375402   0.18370691 
   13100   -285.84483    16.073788   -269.77104    1162.1704    2668.2438    9.5608126   0.18913417 
   13200   -286.29044    15.241199   -271.04924    1101.9724      5651.41    9.6132018   0.15936306 
   13300    -284.8731     17.48629   -267.38681    1264.2974    4452.1665    9.5401103   0.21375663 
   13400   -284.69139    16.440497   -268.25089    1188.6843    -11516.33     9.359956   0.21350618 
   13500   -287.48744    15.379842    -272.1076    1111.9966   -1542.3042    9.5847192   0.19902446 
   13600   -287.22304     18.66152   -268.56152    1349.2692    496.18761    9.5815987   0.17098893 
   13700   -284.02415    17.658671   -266.36548     1276.761    9502.0584    9.5480544   0.22622548 
   13800   -285.62702     16.33214   -269.29488    1180.8499   -7747.1583    9.4065112   0.23374968 
   13900   -286.69454    15.982875   -270.71167    1155.5972    5700.9133    9.6231362   0.17876781 
   14000   -287.75752    19.297892   -268.45963    1395.2803    4117.4666    9.6394152   0.17297353 
   14100   -285.30346    20.852131   -264.45133    1507.6552    2500.2671    9.4901406   0.21678085 
   14200   -287.56279    18.720111   -268.84268    1353.5054    1756.0475    9.6004536   0.16624528 
   14300   -287.64063     16.37266   -271.26797    1183.7795   -5767.2323    9.5581956   0.15547994 
   14400   -285.84906    17.140986   -268.70807    1239.3312    1456.9946    9.5497867   0.19189923 
   14500   -286.18475    20.014742   -266.17001    1447.1102   -2715.5686     9.473699   0.18521837 
   14600   -286.45632    15.969112   -270.48721    1154.6021    9755.2809     9.643089   0.19253308 
   14700   -287.34897    17.861647   -269.48732    1291.4366    4712.8824    9.6179637   0.17663858 
   14800   -284.53262    18.893817   -265.63881    1366.0647   -2355.7457    9.4487949   0.24667599 
   14900   -284.49924    20.250138    -264.2491    1464.1297     5310.837    9.5129275   0.20513793 
   15000   -287.19807    18.165992   -269.03208    1313.4414   -15955.312    9.4011482   0.19629377 
   15100   -284.78526    15.646143   -269.13912    1131.2507    2226.5512    9.5016284   0.22142207 
   15200   -285.21353    16.184657   -269.02888    1170.1865    9472.8524     9.612091   0.20847944 
   15300   -290.47651    16.388572   -274.08794      1184.93   -2387.0624    9.6846289   0.13310915 
   15400   -288.04083    17.278393   -270.76244     1249.266   -6727.9873    9.5514543   0.16873338 
   15500   -286.50644    16.910944    -269.5955    1222.6987    2239.2393    9.5864691   0.17505684 
   15600   -285.36331    17.104322   -268.25899    1236.6803     5962.911    9.5811255   0.20941029 
   15700   -282.60043    18.447461   -264.15297    1333.7923   -7936.6304    9.2741743   0.31269056 
   15800   -283.96442    16.161451   -267.80297    1168.5087   -5385.4456    9.3836029   0.19653688 
   15900   -287.76961    18.501761   -269.26785    1337.7182   -5655.6317    9.5259282   0.17111231 
   16000   -287.21211    16.796869   -270.41524    1214.4508    9413.9045    9.6970579   0.17501635 
   16100   -287.70456     16.13187   -271.57269    1166.3699    1071.7001    9.6166956    0.1914688 
   16200   -284.80802    18.449723    -266.3583    1333.9558   -8172.5068    9.3745058    0.2145956 
   16300   -287.60359    18.528019   -269.07557    1339.6167    4945.7942    9.6469328    0.1667032 
   16400   -287.98321    17.019256   -270.96395    1230.5299    12012.863    9.7509399   0.17471608 
   16500   -285.47638    18.731851   -266.74453    1354.3543   -11907.377     9.382356    0.2151883 
   16600   -285.76039    18.214754   -267.54563     1316.967    3737.3276    9.5325309   0.19306573 
   16700   -287.86554    16.572484   -271.29305    1198.2273   -2578.5441     9.584231   0.18326996 
   16800   -284.84774    15.569164   -269.27858     1125.685   -4813.3676    9.4260392   0.19541991 
   16900   -284.88063     17.68793    -267.1927    1278.8764    9981.0357    9.5774366   0.20560241 
   17000   -289.01413    17.465748   -271.54839    1262.8122    4377.8487    9.7214588   0.15056653 
   17100    -286.6685    15.560566   -271.10793    1125.0633   -3798.0634    9.5011343   0.18749247 
   17200   -285.46717    18.140326   -267.32685    1311.5857    -11366.02    9.3934248    0.2046177 
   17300   -289.06073    18.375539   -270.68519    1328.5921   -3318.3456    9.6293698   0.15814504 
   17400   -289.92576    18.547673   -271.37808    1341.0378    2139.9937    9.7178904   0.13618223 
   17500   -285.68398    18.647959   -267.03602    1348.2887   -5735.9549    9.4671937    0.1942944 
   17600   -285.16399    15.726583    -269.4374    1137.0667   -3088.1591    9.5071007   0.21370873 
   17700   -287.44918    16.204472   -271.24471    1171.6192    -3806.042    9.5672377   0.20436435 
   17800   -284.22823     16.05081   -268.17742    1160.5091   -15843.692    9.2986345   0.21459575 
   17900   -284.55666    19.106596   -265.45007    1381.4492   -5075.2437    9.3744288   0.20103364 
   18000    -287.8798    18.285364   -269.59444    1322.0723    7614.4872    9.6922209   0.16505655 
   18100    -286.9532    16.985836   -269.96736    1228.1135    10218.057    9.6966012    0.1778795 
   18200   -285.06467    18.062162   -267.00251    1305.9343    905.54657    9.5085312   0.22320996 
   18300   -283.57186    15.415941   -268.15592    1114.6067    1740.3469    9.4616276    0.2344609 
   18400    -288.9369    16.652521   -272.28438    1204.0141   -2874.6912    9.6341814   0.14927017 
   18500   -285.93326    16.794156    -269.1391    1214.2546     6391.405    9.6161315   0.16422279 
   18600   -285.80106    17.332155    -268.4689    1253.1531   -1364.4707    9.4923772    0.1864531 
   18700   -288.18554     15.44796   -272.73758    1116.9217    7142.7181    9.7217511   0.15313748 
   18800   -289.54644    18.941809   -270.60463    1369.5347    7706.3752    9.7568652   0.13578154 
   18900   -286.28368    18.753091   -267.53059    1355.8899   -455.77011    9.5428076   0.19175594 
   19000    -289.4151    19.750791   -269.66431    1428.0259   -1218.0452    9.6350645    0.1511991 
   19100   -288.48388    16.089075    -272.3948    1163.2757   -5586.3929    9.5830853   0.17624581 
   19200   -285.40374    16.890284   -268.51346    1221.2049   -9408.2157    9.3981019   0.21324307 
   19300   -284.90313    17.793938    -267.1092     1286.541   -2409.9254     9.438315   0.18902704 
   19400   -289.24927    17.030031   -272.21924    1231.3089    9116.9124    9.7568059   0.14397994 
   19500   -289.02684    18.437699   -270.58914    1333.0864   -9370.2205     9.553513   0.15714903 
   19600   -285.22072    17.041089   -268.17963    1232.1084   -12489.921    9.3456957   0.19987525 
   19700   -287.21825     15.57693   -271.64132    1126.2465   -6789.4464    9.4842291   0.16211724 
   19800   -288.74197    16.702541   -272.03943    1207.6307   -5066.3783    9.5880578   0.15407306 
   19900   -288.15775    19.949741   -268.20801    1442.4104    869.46826    9.6169114    0.1346094 
   20000   -286.96029    17.708114   -269.25217    1280.3358     14367.38    9.7239027   0.16844111 
   20100   -289.00565    17.128839   -271.87681    1238.4529    21514.743    9.8892549   0.13908468 
   20200    -286.9417    18.828622   -268.11308     1361.351   -16054.302    9.3924677   0.20974165 
   20300   -284.18537     16.50244   -267.68293    1193.1629   -6472.3135    9.3725994   0.24597525 
   20400   -287.03373     15.26417   -271.76955    1103.6333   -1669.1493    9.5635061   0.17438337 
   20500   -288.64808    17.022425   -271.62566     1230.759   -4103.0703    9.5817209   0.15567077 
   20600   -286.90381    19.992843   -266.91096    1445.5268   -3717.2683    9.5234416   0.18806883 
   20700   -285.33554    16.066339    -269.2692    1161.6318    19782.562    9.7197704   0.18997436 
   20800   -287.43731    15.310785   -272.12652    1107.0036   -4805.2813    9.5701437   0.15938863 
   20900   -287.05163    15.921445   -271.13019    1151.1557   -11965.176    9.4396556   0.18905803 
   21000   -284.48963    16.667042   -267.82259     1205.064   -5006.0951    9.4167129   0.23423529 
   21100   -285.44916    16.237452    -269.2117    1174.0037    9012.6105    9.6386125   0.19087572 
   21200   -286.85068    15.263839   -271.58684    1103.6093    18197.665    9.7824039   0.15514378 
   21300   -287.91586    13.691647   -274.22421    989.93635   -4714.6455    9.5798484   0.19057606 
   21400    -286.6622     17.58173   -269.08047    1271.1979   -12983.861    9.4095735   0.17115577 
   21500   -286.44419    17.030481   -269.41371    1231.3414    -849.7148    9.5403203   0.17616912 
   21600    -285.6181    14.243633   -271.37447    1029.8461     798.5976    9.5542583   0.20639926 
   21700   -285.62916    15.998537   -269.63063    1156.7296    4053.2224    9.5331508   0.19277511 
   21800    -284.9254    18.233076   -266.69232    1318.2918   -6860.7361    9.4070648   0.24301132 
   21900   -287.13608    17.535789   -269.60029    1267.8763    2991.7709    9.6061484   0.17788528 
   22000   -288.57678    17.071034   -271.50575    1234.2735    3226.0485    9.6692165   0.14973568 
   22100   -287.74421    14.090665   -273.65354    1018.7863   -7579.0254    9.5300615   0.17435298 
   22200   -290.45985    13.592952    -276.8669    982.80052   -8388.7599    9.6560733   0.15591544 
   22300   -289.31055    16.505784   -272.80476    1193.4047   -2050.1142    9.6519451   0.15853917 
   22400    -289.3617    17.869253   -271.49245    1291.9865    1574.4304    9.6630491   0.15790101 
   22500   -290.30959    20.232313   -270.07727     1462.841   -1449.8827    9.6805869   0.13916382 
   22600   -286.88163    17.094777   -269.78685    1235.9902    16575.808     9.741351   0.16673595 
   22700   -284.26667    18.044024   -266.22265    1304.6228   -6739.9742    9.3840848   0.22642009 
   22800   -285.23172    17.904781   -267.32694    1294.5553   -5791.1013    9.4348029   0.20586112 
   22900   -287.65639    17.062043   -270.59435    1233.6234   -5849.8889    9.5377778   0.18192991 
   23000    -285.4348    16.568705    -268.8661     1197.954    9384.2238    9.6214893   0.20167683 
   23100   -284.94944    19.628358   -265.32108    1419.1737    3572.9517    9.5093364   0.18885144 
   23200   -287.75919    17.058103   -270.70108    1233.3386    5464.9376    9.6895567   0.15406925 
   23300   -288.69543    18.239156   -270.45627    1318.7313   -5664.2516    9.5710074    0.1522738 
   23400   -284.78862    16.475546   -268.31307    1191.2184     -8001.36    9.3766994   0.22087293 
   23500   -283.68479    19.165049   -264.51974    1385.6754   -3962.6945    9.3852469   0.21880508 
   23600   -285.87978    16.463919   -269.41586    1190.3777    18205.758    9.7497582     0.174677 
   23700   -286.99443     17.47979   -269.51464    1263.8275    6717.8685    9.6505764   0.16001474 
   23800   -286.41868     18.73249   -267.68619    1354.4005    -3254.871    9.4942893   0.18029131 
   23900   -284.66372    18.446159   -266.21756    1333.6981   -4718.8957    9.4035985   0.26356769 
   24000   -282.49226    19.775521   -262.71674    1429.8139   -319.76642    9.3669613   0.27201255 
   24100   -285.18214    18.474747   -266.70739     1335.765    20598.896    9.7409674   0.18649287 
   24200   -288.45512    19.708882   -268.74623    1424.9958    10772.382    9.7397678   0.16510064 
   24300   -288.55044    19.069192   -269.48124    1378.7448   -12540.547     9.484981   0.17557206 
   24400   -287.95775    15.472856   -272.48489    1118.7217   -933.13307    9.6231994   0.14962526 
   24500   -290.23812    16.103843   -274.13427    1164.3435    2809.1743    9.7561748   0.13576536 
   24600   -287.88497    17.842934   -270.04204    1290.0836   -2683.2177    9.5804645   0.14406336 
   24700   -286.80555    17.016925   -269.78863    1230.3613   -9649.7111    9.4715191   0.15847992 
   24800    -287.2848    19.384003   -267.90079    1401.5063   -15342.286    9.4097156   0.16910725 
   24900   -282.26007    18.033113   -264.22696    1303.8339    4882.4338    9.4338725     0.248159 
   25000   -287.22838    17.100629   -270.12775    1236.4133    2295.7951    9.6056409   0.17452762 
   25100   -287.60869    17.371335   -270.23735    1255.9859   -6629.7582    9.5184612   0.19298286 
   25200   -284.13769    14.692147   -269.44555    1062.2748   -10503.914     9.353369   0.24446722 
   25300   -284.11296    18.458873   -265.65409    1334.6173   -6090.6561    9.3642527    0.2207939 
   25400   -286.42642     15.61658   -270.80984    1129.1132    5540.7542    9.6375692   0.21053812 
   25500    -284.6816    15.179796    -269.5018    1097.5328    5063.9277    9.5492829   0.19911304 
   25600    -286.0192    17.645983   -268.37321    1275.8436   -16365.476    9.3787623   0.23543966 
   25700   -283.37805    19.844205   -263.53385    1434.7799   -966.81105    9.4005593   0.21587748 
   25800   -283.45794    17.971752   -265.48619    1299.3974    30694.122    9.7822599   0.23877779 
   25900   -285.11471    16.578207   -268.53651     1198.641    8916.1853    9.5847352   0.18749938 
   26000   -285.39222    14.965129   -270.42709    1082.0119   -9129.5227    9.4105271   0.21228153 
   26100   -285.74242     14.77954   -270.96288    1068.5934   -3987.5388    9.4874373   0.22766286 
   26200   -284.11099    18.076825   -266.03416    1306.9945   -4168.9476    9.4267573   0.20700281 
   26300   -287.96012    18.698009   -269.26212    1351.9074    7569.6026    9.7013041   0.14085643 
   26400   -287.48312    16.298407   -271.18472    1178.4109   -7152.6325    9.5391598   0.17855826 
   26500   -284.29861    17.292746   -267.00586    1250.3038    -9134.647    9.3590049   0.27589585 
   26600   -284.55616    18.833243   -265.72292    1361.6852     10504.62    9.5627033   0.18034366 
   26700   -288.93861    19.319468   -269.61914    1396.8403   -211.33087    9.6264008   0.16220238 
   26800   -285.41357    16.379655   -269.03392    1184.2853    14208.857    9.6822876   0.18952731 
   26900    -284.4155    18.526295    -265.8892    1339.4921    2949.8598    9.4977789   0.21268663 
   27000   -284.78234    19.088235    -265.6941    1380.1216   -9710.4807    9.3324951   0.24338798 
   27100   -287.29146    16.360792   -270.93067    1182.9214    56.502138    9.5858535   0.20947201 
   27200   -287.09099    17.419661   -269.67133      1259.48   -5729.0212    9.5093885   0.21101932 
   27300   -287.56395    19.521505   -268.04244     1411.448   -11136.506    9.4656025   0.18109068 
   27400   -290.35684    17.443101   -272.91374    1261.1748    1256.9655    9.7080933   0.12621957 
   27500    -288.7538    16.834384   -271.91941    1217.1632    -11.72964    9.6441063   0.14584177 
   27600   -286.56336    17.569832   -268.99353    1270.3377    4518.8747     9.615481   0.15965071 
   27700    -285.9708    17.257212   -268.71359    1247.7346    5482.6522    9.5843688   0.18759988 
   27800   -287.90479    14.290063   -273.61472    1033.2031   -2603.5187    9.5966675   0.16322659 
   27900   -288.27816    16.374784   -271.90337    1183.9331   -3344.5759    9.5920986   0.16075896 
   28000   -289.27304    20.419779   -268.85327    1476.3952    12308.916    9.7826185    0.1357573 
   28100   -286.48797    17.703481   -268.78449    1280.0009    24096.265    9.8148457   0.15707063 
   28200   -287.49045    17.487956   -270.00249    1264.4179   -3568.7414    9.5594829   0.16678534 
   28300   -290.71471    15.522857   -275.19185    1122.3369   -2954.4481    9.6849214   0.13726061 
   28400    -288.3208     16.73521   -271.58559    1209.9927   -11392.197    9.5148939    0.1819862 
   28500   -286.88813    17.248223   -269.63991    1247.0847    9920.4129    9.6752709   0.17042058 
   28600   -286.01846    16.640557    -269.3779    1203.1491    2117.7953    9.5611708   0.22537799 
   28700   -281.82544    17.002752   -264.82269    1229.3366   -4351.6646    9.3239697   0.27850287 
   28800   -288.19055    19.125625   -269.06493     1382.825    -5280.756    9.5609868   0.17075504 
   28900   -287.54306    16.766092   -270.77697    1212.2255    10428.197    9.7106768   0.16780474 
   29000   -286.54822    17.522964   -269.02525     1266.949   -9670.8649     9.425335   0.18993831 
   29100   -281.97592    17.263461   -264.71246    1248.1864   -5744.4723    9.2937032   0.27669238 
   29200   -283.76621    15.708855   -268.05735    1135.7849    2140.0833    9.4585364   0.22379633 
   29300   -286.73795     17.04544   -269.69251     1232.423    10930.805    9.6760225   0.21055131 
   29400   -286.98512    18.779425   -268.20569     1357.794    581.07313    9.5863925   0.18862866 
   29500   -288.35254    18.261039   -270.09151    1320.3135    813.07004    9.6307156   0.15276678 
   29600   -287.10109    14.170055   -272.93103    1024.5263   -2822.2907    9.5749225   0.16498301 
   29700   -286.03937    16.339918   -269.69945    1181.4122    -2352.609    9.5044807   0.20270197 
   29800    -287.1327    20.143281   -266.98941    1456.4038   -6349.5768    9.4865303   0.19297447 
   29900   -289.28659    17.877583   -271.40901    1292.5888    2170.6286    9.6899405     0.166828 
   30000   -286.88038    15.188918   -271.69146    1098.1924    4265.5291    9.6401111   0.17762707 
   30100   -286.10776    17.963879   -268.14389    1298.8282   -4544.1991     9.487204   0.22536833 
   30200    -284.1902    17.003141   -267.18706    1229.3647   -4128.7102    9.4083069   0.26156635 
   30300   -288.68046    16.352157   -272.32831    1182.2971   -4053.1686     9.598139   0.15901241 
   30400   -287.62202    17.355413   -270.26661    1254.8347    11172.585    9.7211766    0.1815147 
   30500   -284.52957    16.458845   -268.07072    1190.0109    978.01356    9.4707409   0.19497024 
   30600   -286.14507    15.148191   -270.99688    1095.2477   -11378.123    9.4224865   0.20666099 
   30700   -290.12184    17.403158   -272.71869    1258.2868    -6224.115    9.6293592   0.16497594 
   30800    -285.1504    16.984584   -268.16582     1228.023    389.32978     9.508009   0.23773131 
   30900   -286.74357    19.410137   -267.33343    1403.3959     4183.602    9.5933995   0.19638289 
   31000    -289.4159    17.749755   -271.66614    1283.3465    7819.4796    9.7353982    0.1417447 
   31100   -286.49715    17.299235   -269.19791     1250.773    991.87024    9.5643207   0.18181043 
   31200   -287.58994    19.819834    -267.7701    1433.0178   -8470.7163    9.4725769    0.1807419 
   31300    -288.6808    16.756004   -271.92479    1211.4962    13137.064     9.790425   0.12266375 
   31400   -290.46388    19.177161   -271.28672    1386.5512    3586.4586    9.7418005   0.13119487 
   31500   -285.55025    17.406688   -268.14356     1258.542   -11143.127    9.3552625   0.20895824 
   31600    -285.1233    15.870307     -269.253    1147.4583   -13293.622     9.372822   0.20660075 
   31700   -290.11633    17.683117   -272.43321    1278.5285   -2284.3133    9.6632228   0.14796884 
   31800   -287.37652    18.801515     -268.575    1359.3912    4085.3065    9.6233682   0.15428056 
   31900   -286.30202    19.693189   -266.60883    1423.8611   -4089.2695    9.4981047   0.22927069 
   32000    -286.3174    16.317907   -269.99949    1179.8208    3332.6997    9.5894962   0.22190585 
   32100    -287.2941     15.03754   -272.25656    1087.2474    2424.0421    9.6190953    0.1811904 
   32200   -285.30064    17.212347    -268.0883    1244.4908   -3197.8012    9.4492344   0.19383083 
   32300   -284.65909    16.825031   -267.83406    1216.4869    9802.1519    9.5782167   0.22315424 
   32400   -287.59688    15.502419   -272.09446    1120.8592   -1201.1245     9.602389   0.17538868 
   32500   -287.39071    17.879965   -269.51075     1292.761     2432.787    9.6049018   0.15277121 
   32600   -286.07795    19.519105   -266.55885    1411.2745    6568.3157    9.5819694   0.18597946 
   32700   -289.37493    18.370174   -271.00476    1328.2042   -3883.0849    9.6348525   0.14629169 
   32800   -287.96319    16.402762   -271.56043     1185.956    4246.8417    9.6644868   0.16078015 
   32900    -285.2127     16.81625   -268.39645     1215.852   -4185.0204    9.4433213   0.20986157 
   33000   -286.58112    18.681888   -267.89923    1350.7418    -8461.876    9.4546532   0.21567427 
   33100   -288.60144    16.592891   -272.00855    1199.7027   -2589.0709    9.6176212   0.17054152 
   33200   -286.55719    17.624253   -268.93294    1274.2725    -3535.082    9.5022597   0.19890899 
   33300   -284.31869    18.585101   -265.73359    1343.7439   -3872.0367    9.3955848   0.20724462 
   33400   -285.97011    15.696409    -270.2737    1134.8851    22552.918    9.7790519   0.16225636 
   33500    -289.7559    19.162999    -270.5929    1385.5272    7356.4498    9.7363364    0.1401041 
   33600   -284.00033    15.877891   -268.12244    1148.0067   -11792.622    9.3141273   0.24449027 
   33700   -284.17594    17.290718   -266.88522    1250.1571   -22868.819    9.2151223   0.23537658 
   33800   -289.30041    17.414497   -271.88591    1259.1067    195.42672    9.6833273   0.15930054 
   33900   -286.73194     15.97073   -270.76121    1154.7191    11522.289    9.6810547   0.17575764 
   34000   -284.38005    17.834651    -266.5454    1289.4847   -9914.2569    9.3459314   0.20515438 
   34100   -288.20154    18.092385   -270.10915    1308.1194   -1876.3282    9.5927477   0.18259529 
   34200   -288.58322    17.405894   -271.17732    1258.4846    13956.982    9.7978354    0.1505999 
   34300   -283.25934    16.911491   -266.34785    1222.7382   -7684.7646     9.345571   0.22667131 
   34400   -283.29343    15.435877   -267.85755    1116.0481   -15271.296     9.234954    0.2687749 
   34500   -286.47707    15.434906   -271.04216    1115.9779    7949.3589    9.6556351   0.19078196 
   34600   -289.05562    16.564898   -272.49072    1197.6788    3887.6789    9.6917694   0.14263209 
   34700   -283.86716    16.796231   -267.07093    1214.4046   -55.504333    9.4348849   0.21687613 
   34800   -287.00361    18.081271   -268.92234    1307.3159     4827.999    9.6132638   0.19491522 
   34900   -286.74572     15.42193   -271.32379    1115.0396   -10355.753    9.4774037   0.21318867 
   35000   -283.18534    15.724052   -267.46129    1136.8837   -6460.8955    9.3521289   0.21944353 
   35100   -285.22927    17.297021   -267.93225    1250.6129   -3284.0958    9.4514048   0.22875803 
   35200   -288.56061    16.964679   -271.59593    1226.5838    4932.4374    9.6922167   0.13631289 
   35300   -288.99031    16.805728   -272.18459    1215.0913    1101.1964    9.6526004   0.18134831 
   35400    -285.0189    16.100942   -268.91796    1164.1337    3482.4564    9.5367641   0.20468494 
   35500   -285.78305    16.397333   -269.38571    1185.5634   -4699.1595    9.4721659   0.18355141 
   35600   -289.79845    15.666184   -274.13226    1132.6998    1819.0326    9.7243404   0.16210811 
   35700   -286.54664    15.445843   -271.10079    1116.7686    3881.2166    9.6199544   0.17918272 
   35800   -286.62046    18.080963    -268.5395    1307.2936   -13156.635    9.3845702   0.20934074 
   35900   -285.46966     15.84984   -269.61982    1145.9785    55.698694    9.4969654   0.21643595 
   36000   -288.73204    14.728653   -274.00339    1064.9142    2422.6097    9.6880187   0.16078159 
   36100   -287.37723    16.901469   -270.47576    1222.0136    2839.1103    9.6174171    0.1813849 
   36200   -284.96156    15.883531   -269.07803    1148.4144   -15273.673    9.3216745   0.23116491 
   36300   -284.98405    17.695139   -267.28891    1279.3977    5085.9911    9.5767311   0.19188271 
   36400   -287.80087    17.134672    -270.6662    1238.8747    27344.908    9.9316354    0.1546164 
   36500    -287.2021    17.327476   -269.87462    1252.8148    7829.1064     9.664863   0.15428726 
   36600    -285.0182    17.784914   -267.23329    1285.8886   -5021.5189    9.4334279   0.25842258 
   36700   -282.53683    18.057898   -264.47894     1305.626   -13182.914    9.2352879   0.26347278 
   36800   -286.55383    16.850758   -269.70307    1218.3471   -10427.254    9.4517499   0.19541269 
   36900   -288.72067    19.000693   -269.71997    1373.7921   -727.90336    9.6223789   0.14889178 
   37000   -286.10737    17.344716   -268.76265    1254.0613     16813.71    9.7376899   0.16156507 
   37100    -284.0714    19.432969   -264.63843    1405.0466    7370.4415    9.5250651   0.21243339 
   37200   -283.54806    16.962829   -266.58523    1226.4501   -11518.553    9.3243566   0.30213814 
   37300   -286.84374    17.000808   -269.84293     1229.196   -5470.2856    9.5068769   0.21097797 
   37400    -286.2552    16.245518   -270.00968    1174.5869    3559.7356    9.5787102   0.19356911 
   37500   -284.98156    19.054329   -265.92723    1377.6702   -4089.2666    9.4392264   0.19596151 
   37600   -284.74901    17.170105   -267.57891    1241.4366    8887.9082    9.5732059   0.23655072 
   37700   -287.76038    17.269628   -270.49075    1248.6323    13263.943    9.7487754   0.14674347 
   37800   -284.84737      15.6898   -269.15757    1134.4072    967.87452    9.5115149   0.17381799 
   37900   -282.74713    17.724534   -265.02259     1281.523   -15097.902    9.2222599   0.24367616 
   38000   -285.55976    16.261001   -269.29876    1175.7063    3797.0668    9.5559407   0.19407553 
   38100   -287.56759     17.63788   -269.92971    1275.2577    10786.059    9.6951976   0.19672838 
   38200   -284.14822      17.4253   -266.72292    1259.8877    1851.5789    9.4524968    0.2272891 
   38300   -284.80506     16.46451   -268.34055    1190.4205   -10056.878    9.3798788   0.23332462 
   38400   -285.72441    14.397859   -271.32655     1040.997    6048.9487    9.5976759   0.21485693 
   38500   -286.16862    17.192461   -268.97616    1243.0529    -3830.597    9.5069756   0.20167542 
   38600   -285.35677    18.704834   -266.65194    1352.4009   -14890.316    9.3362701   0.22176219 
   38700   -287.25538    15.261522   -271.99386    1103.4418    9604.1122    9.6929315   0.18795855 
   38800   -287.09486    17.083181   -270.01168    1235.1518    4247.4676    9.6274859    0.1721379 
   38900    -284.6515    16.426439   -268.22506    1187.6679    8235.2388    9.5575849   0.19656649 
   39000   -288.09681    15.927644   -272.16917    1151.6039   -13992.239    9.4615611   0.17627243 
   39100   -286.96048    14.453605   -272.50687    1045.0276   -1069.6594    9.5811123   0.17436871 
   39200   -284.05939    14.774784    -269.2846    1068.2496    13884.632    9.6171918   0.23282168 
   39300   -283.69343    16.327236   -267.36619    1180.4953    5412.4021    9.5150546   0.21919644 
   39400   -288.03726     16.48533   -271.55193    1191.9258    2492.2098    9.6399661   0.18399866 
   39500   -286.84192    16.130176   -270.71174    1166.2474    3270.9233    9.5814306   0.17667459 
   39600   -283.20203    15.428423   -267.77361    1115.5091   -1654.1606    9.3971152   0.22936172 
   39700   -286.19618    15.814292   -270.38189    1143.4083    -3050.713    9.5288758   0.19067057 
   39800   -290.09276      17.9306   -272.16216     1296.422   -3117.3993    9.6720989   0.14714161 
   39900   -286.00219    18.315609   -267.68658     1324.259      10345.4    9.6249256   0.18164449 
   40000   -286.10344    18.538786   -267.56466    1340.3953   -13535.042    9.3716694   0.21625535 
   40100   -287.57257    14.791922   -272.78065    1069.4887   -6227.7547    9.5503406   0.17172693 
   40200   -287.55881    17.233443   -270.32537     1246.016   -4913.5624    9.5327314   0.18906988 
   40300   -286.60831    19.113045   -267.49526    1381.9154    593.86206    9.5496863   0.22188547 
   40400   -287.21962    17.854429   -269.36519    1290.9147    6616.9475     9.643165   0.17992671 
   40500   -287.09691    14.448964   -272.64795    1044.6921   -1670.4614    9.5537044   0.16187845 
   40600   -283.46115    14.943965   -268.51718    1080.4817   -10643.524    9.3209118   0.22515369 
   40700     -284.082     15.17186   -268.91014     1096.959    2685.0449    9.4743464   0.22666067 
   40800   -287.47145    15.140503   -272.33094    1094.6919    14813.117    9.7510056    0.1666698 
   40900   -286.79078    14.795768   -271.99501    1069.7667   -3920.4898    9.5618181   0.18083029 
   41000   -286.15679    17.771705   -268.38508    1284.9336   -4802.3182    9.4919096    0.1947693 
   41100   -286.00016    16.794772   -269.20539    1214.2992    11584.567    9.6488982   0.18912038 
   41200   -288.87441     17.31264   -271.56177    1251.7421   -8555.0816    9.5656482   0.16890824 
   41300   -290.16957    15.683859   -274.48571    1133.9777   -2483.8599    9.6751304   0.15846452 
   41400   -284.50988    14.826272   -269.68361    1071.9722    11310.701    9.6104395   0.20979783 
   41500   -287.27765    18.197667   -269.07999    1315.7316    4563.1469    9.6359982   0.18516905 
   41600   -287.34972    16.735781   -270.61394     1210.034   -4684.1553     9.552244   0.17901014 
   41700   -287.97857    13.423893   -274.55468    970.57713     7705.793    9.7268523   0.15992912 
   41800   -284.71551    15.272894   -269.44262     1104.264    1155.2982    9.4981305   0.23664788 
   41900   -283.83444    14.786545    -269.0479    1069.0999    1651.2078    9.4872093   0.20728623 
   42000    -287.2726    17.877806   -269.39479    1292.6049    16198.384    9.7397907   0.19586054 
   42100   -285.89967     20.39177    -265.5079    1474.3701     11877.72    9.6447863   0.19144481 
   42200   -284.30561    19.757605     -264.548    1428.5185   -6731.5611     9.360054   0.24550167 
   42300   -287.04084    17.146984   -269.89386    1239.7648    2809.4621    9.6130287   0.18322201 
   42400   -286.17125    15.434617   -270.73663    1115.9569    1863.2454    9.5613999   0.20000159 
   42500    -282.7056    14.957618   -267.74798    1081.4689   -5627.7771    9.3382289   0.25607656 
   42600   -283.79261    19.185915   -264.60669    1387.1841   -3597.5377    9.3997161   0.23010345 
   42700   -288.03653    18.664061   -269.37247    1349.4529     7149.295     9.691485   0.17164226 
   42800   -287.55878    17.482542   -270.07624    1264.0264   -4379.2192    9.5239716   0.18296237 
   42900   -286.67025    19.001621   -267.66863    1373.8592   -10648.537    9.4297772   0.19714601 
   43000   -282.89514    20.023702   -262.87144     1447.758    891.42448    9.3918272   0.26870023 
   43100   -287.17667    19.569712   -267.60695    1414.9335   -5976.9465    9.5040331   0.19400449 
   43200   -287.02164    17.516356   -269.50529    1266.4713    15353.732     9.746614   0.18010966 
   43300   -287.70727    16.797046   -270.91023    1214.4636   -10469.978    9.4929581   0.16846105 
   43400    -288.7628    13.751871   -275.01093    994.29067    2355.1276    9.6910125   0.17512788 
   43500    -286.8969    16.751557   -270.14534    1211.1746    9183.5637    9.6741044   0.17245085 
   43600   -286.70729    17.028762   -269.67853    1231.2171    -383.1034    9.5634784   0.20971962 
   43700   -287.25159    18.583472   -268.66812    1343.6261   -8850.1737    9.4781177   0.17904495 
   43800   -288.09639    14.552461   -273.54393    1052.1751   -38.793001     9.623482   0.17183267 
   43900   -286.94721    15.876471   -271.07074     1147.904   -3528.0649    9.5367603   0.20644823 
   44000   -285.89789     18.01634   -267.88155    1302.6212    373.72979    9.5144489   0.21020236 
   44100   -286.65135    16.157488   -270.49386    1168.2221    2141.9636    9.5860949   0.20091115 
   44200   -288.18979     15.32258   -272.86721    1107.8564    3080.9623    9.6722227   0.15717765 
   44300   -286.97105    18.715076   -268.25598    1353.1414    4754.0977    9.6133601   0.18139354 
   44400   -285.37272    16.928773   -268.44395    1223.9877   -3681.4119    9.4276412    0.1925831 
   44500   -285.57679    14.611475   -270.96532     1056.442   -17374.736    9.3312971   0.23620423 
   44600   -286.27316    16.434881   -269.83828    1188.2782   -4897.9448    9.5002959   0.20088455 
   44700   -284.52205    18.483619   -266.03843    1336.4065    11793.707    9.5909714   0.24916365 
   44800   -286.29767    16.558231   -269.73944    1197.1967    10777.254    9.6551778   0.17442671 
   44900    -286.9762    15.580985   -271.39521    1126.5397    2575.7034    9.6115491   0.16568715 
   45000   -282.12044    15.658934    -266.4615    1132.1756    9909.9115    9.4720511   0.23753893 
   45100   -284.56958    16.100784   -268.46879    1164.1223   -4849.4809    9.4276245   0.19877136 
   45200   -287.11285     15.81145   -271.30141    1143.2028   -4636.9922    9.5298419   0.18345507 
   45300   -284.39553    15.108493   -269.28704    1092.3775   -5039.7609    9.3979147     0.243787 
   45400    -284.4406     18.05074   -266.38986    1305.1084    6054.6567    9.5228295   0.23008117 
   45500   -285.70706    16.711564   -268.99549     1208.283    21144.981    9.7583022   0.17882544 
   45600   -289.08007    16.983603   -272.09647     1227.952    2057.1209    9.6797465   0.13335972 
   45700   -286.32377    17.532002   -268.79177    1267.6025       71.581    9.5338816   0.19231308 
   45800   -285.90596    18.080648   -267.82531    1307.2708   -4663.3746     9.457726   0.19772847 
   45900   -286.50708    16.470377    -270.0367    1190.8447    3793.6841    9.5883069   0.17577019 
   46000   -288.85757     15.64252   -273.21505    1130.9888    7607.4646    9.7329476   0.14235721 
   46100   -290.99002    17.358104   -273.63192    1255.0293   -8418.2701    9.6334255   0.15124456 
   46200   -284.63817    14.872629   -269.76554     1075.324    15767.527    9.6581929   0.23525815 
   46300   -284.48863    15.230686   -269.25794    1101.2123   -6739.6558    9.4129444   0.22329941 
   46400   -286.14857     16.66254   -269.48603    1204.7385   -7294.3525     9.456749   0.19255759 
   46500   -288.69405    14.705594   -273.98845     1063.247    3386.2403     9.686253   0.15397474 
   46600   -288.21287    18.388376   -269.82449    1329.5202   -12224.248    9.4884693   0.16918803 
   46700    -287.5326    18.647682   -268.88492    1348.2686   -8010.2256     9.500102   0.19134505 
   46800   -288.38598    15.518965   -272.86702    1122.0555   -2213.5164    9.6095512   0.18767654 
   46900   -284.92996    14.939335   -269.99063    1080.1469    3467.0762    9.5653047   0.22354789 
   47000   -287.50704    20.087693   -267.41934    1452.3846    14789.199    9.7456353   0.17548823 
   47100   -286.84245    16.894006   -269.94844     1221.474    8432.5572    9.6709531   0.17090376 
   47200   -287.17354    14.554408   -272.61913    1052.3159   -17742.102    9.3943227    0.2225458 
   47300   -283.90503    15.962372   -267.94266    1154.1148   -8199.0181    9.3556203   0.22778577 
   47400   -285.10892    16.251187   -268.85773    1174.9968    5744.7725    9.5529781    0.1771583 
   47500   -287.89517    15.677033   -272.21814    1133.4842    12327.318    9.7574191   0.16637088 
   47600    -284.6744    16.217677   -268.45673    1172.5739   -6444.6369    9.4153398   0.22477532 
   47700   -282.26962    15.392748   -266.87687    1112.9298   -1629.1006     9.386331   0.24501852 
   47800   -287.25131    16.234821   -271.01649    1173.8135    4558.8441    9.6204774   0.16566305 
   47900    -286.5481    16.275718   -270.27238    1176.7704    8875.3842    9.6554284   0.18457266 
   48000   -284.27624    18.143024   -266.13321    1311.7807    4194.0847     9.485139   0.19967646 
   48100   -285.08455     15.25633   -269.82822    1103.0664    -6002.547    9.4420376   0.22100712 
   48200   -287.47798    15.907466   -271.57051     1150.145   -5438.9447    9.5374809   0.16905169 
   48300   -285.91645    18.768472   -267.14798     1357.002    15023.696    9.6931316   0.16476165 
   48400   -283.52581    17.992991   -265.53281    1300.9331    19120.863    9.6291355    0.2598981 
   48500   -287.54883    17.071011   -270.47782    1234.2718   -11501.167    9.4799792   0.18570486 
   48600    -285.1324    14.708777   -270.42362    1063.4771   -17717.815     9.328219   0.19778578 
   48700   -284.47116    15.820536   -268.65063    1143.8597     6531.955     9.539259   0.20237344 
   48800   -285.67278    18.383467   -267.28931    1329.1654    5256.9944    9.5535817   0.19263179 
   48900   -289.36739    17.368904   -271.99849    1255.8102   -6303.1286    9.6127273   0.15398795 
   49000   -286.07036    16.681658    -269.3887    1206.1208    3404.3144    9.5695585   0.18263181 
   49100   -286.43477    18.055819   -268.37895    1305.4757   -529.21516    9.5375496   0.19536952 
   49200   -288.52292    15.831898   -272.69102    1144.6812     5836.109    9.7153704     0.155033 
   49300   -289.59808    17.663854   -271.93422    1277.1357    13788.274     9.819595   0.13886205 
   49400   -285.27798    16.978676    -268.2993    1227.5959   -6922.7536    9.4010707    0.2100309 
   49500   -284.94503    16.261495   -268.68354     1175.742   -25.189736     9.482693   0.21518169 
   49600   -290.10772     17.22582    -272.8819    1245.4649    -2227.609    9.6773245   0.14250199 
   49700   -287.35361    17.939759   -269.41385    1297.0843    3232.7969    9.6282869   0.20286378 
   49800   -284.34268    15.976245   -268.36644    1155.1179   -240.68306    9.4768349   0.21667416 
   49900   -285.56556    14.994474   -270.57108    1084.1337   -20116.679     9.308938   0.21612426 
   50000   -288.85482    14.982475   -273.87235    1083.2661   -2459.9769    9.6200245   0.15830282 
   50100   -286.23847    17.097741   -269.14072    1236.2045   -3209.7601    9.5150322   0.18467072 
   50200   -286.24925    18.556854    -267.6924    1341.7016    1889.7191    9.5508933   0.20265915 
   50300   -287.74284    17.799149   -269.94369    1286.9179    12203.595    9.7280122   0.16698735 
   50400   -288.74868    16.851871   -271.89681    1218.4275    6938.1444    9.7189137   0.16652762 
   50500   -283.00047    16.411991   -266.58848    1186.6233   -10287.672    9.2789593   0.26826387 
   50600   -285.93316    17.703953   -268.22921     1280.035   -7789.2145    9.4341063   0.18265595 
   50700   -288.89322    18.399799   -270.49342    1330.3462    16879.897    9.8120427   0.14237577 
   50800   -287.20193    17.158345   -270.04359    1240.5863    8111.4982    9.6740205   0.16829353 
   50900   -282.65312    17.473872   -265.17925    1263.3996   -3526.4675    9.3411621   0.28680809 
   51000    -284.9474    16.384625   -268.56277    1184.6446   -6359.0755    9.4100646   0.24380882 
   51100   -287.20351    16.562947   -270.64057    1197.5377   -3928.8565    9.5488021   0.17440907 
   51200   -287.80782    16.830062   -270.97775    1216.8507    434.92733    9.6082679   0.15375472 
   51300   -281.51785    15.969549    -265.5483    1154.6337    7392.5662    9.4130142   0.25909811 
   51400   -287.16942     19.13335   -268.03607    1383.3835    1493.6397    9.5807489   0.17094515 
   51500   -287.21146    15.536189   -271.67527    1123.3008    3366.2951    9.6267216   0.17687285 
   51600   -283.86654    14.794554   -269.07198    1069.6789   -19278.099    9.2494349   0.25116102 
   51700   -284.29369    17.929025   -266.36467    1296.3082    1014.6643    9.4703795    0.2684169 
   51800   -285.26182    15.308105   -269.95372    1106.8098    20815.969    9.7397289   0.18901177 
   51900   -287.37072    16.481522    -270.8892    1191.6505   -7159.6756    9.5151753   0.18662243 
   52000   -285.11438    16.625492   -268.48889    1202.0599   -10938.898    9.3906999   0.22931194 
   52100   -286.69526    18.080618   -268.61464    1307.2687    6701.2336    9.6181527   0.19205135 
   52200   -287.49119     13.98437   -273.50682    1011.1008    1391.0779     9.624533   0.17818852 
   52300   -286.79303    16.712886   -270.08015    1208.3786   -8218.8813    9.4521317   0.18483966 
   52400   -286.01746    17.795351   -268.22211    1286.6433    12786.386    9.6745693   0.17822026 
   52500    -287.1814     17.76337   -269.41803     1284.331     9352.093     9.681857    0.1744807 
   52600   -290.13996    16.969135   -273.17082     1226.906    -11103.95    9.5815341   0.14980905 
   52700   -288.26647    18.148532   -270.11794     1312.179   -1294.1148    9.6024458   0.16397782 
   52800   -285.65647    18.283654   -267.37282    1321.9487    7240.3318      9.60744    0.1703464 
   52900   -286.34645     16.24565    -270.1008    1174.5964    12197.779    9.6859354    0.1573403 
   53000    -289.1125    16.265372   -272.84713    1176.0224   -7294.5435    9.5897047    0.1366323 
   53100    -287.4931     18.07107   -269.42203    1306.5783    1149.8372    9.6102168   0.16297022 
   53200   -286.33742    17.602964   -268.73446    1272.7332     12233.89    9.6557594   0.18477556 
   53300   -288.42637    17.172164   -271.25421    1241.5854   -2961.2962    9.6189061   0.17878062 
   53400   -288.47408    15.485423   -272.98866    1119.6304   -4365.3916    9.6044629   0.17342011 
   53500   -286.45553    16.932093   -269.52344    1224.2278   -1984.1111    9.5289271   0.16763564 
   53600   -285.66407    16.337347   -269.32672    1181.2263    17515.011    9.7208623   0.17993249 
   53700   -287.89009    14.558534   -273.33155    1052.6142   -1687.5102    9.6284276   0.14328125 
   53800   -288.50074     15.78951   -272.71123    1141.6165   -2003.1541    9.6130663    0.1536626 
   53900   -288.33392    19.140253   -269.19367    1383.8826    2214.1739    9.6378089   0.16216605 
   54000   -286.81916    17.498914   -269.32025    1265.2102    8416.4512    9.6812412    0.1795986 
   54100   -287.38031    16.246474   -271.13384     1174.656   -9253.8455     9.508856   0.18778915 
   54200   -289.39805    14.251529   -275.14652    1030.4171   -123.17531    9.6981903   0.13478008 
   54300   -287.90156    17.331873   -270.56969    1253.1327    6511.3448    9.6872716   0.13255053 
   54400   -287.53423    18.455937    -269.0783     1334.405    7045.8527    9.6778212   0.16713816 
   54500   -285.74516    18.251854    -267.4933    1319.6494    13306.776    9.6651643   0.16317916 
   54600   -288.81757    15.995544   -272.82203    1156.5132    1887.1821     9.696554   0.14394484 
   54700   -286.49044    15.005393   -271.48505    1084.9231   -6708.9968    9.4944129   0.19210535 
   54800   -284.76325    16.843936   -267.91932    1217.8538    1062.1105    9.4847867   0.20559048 
   54900   -285.89029    15.939589    -269.9507    1152.4676    3527.6805    9.5699642   0.19500207 
   55000   -287.26976     14.78626    -272.4835    1069.0793    5379.2106    9.6498561   0.16188617 
   55100   -285.25807    17.453198   -267.80487    1261.9048   -4289.7423    9.4500131   0.18312172 
   55200   -285.07975    17.588985   -267.49076    1271.7225    2458.3998    9.5271872   0.17893724 
   55300   -285.98093    15.015178   -270.96575    1085.6306    16499.255    9.7006378   0.15268115 
   55400     -286.195    15.105736   -271.08926    1092.1781    -1506.029    9.5270949   0.16804039 
   55500   -284.25048    18.015545   -266.23494    1302.5638    -7752.574    9.3723525   0.21967645 
   55600   -287.35399    17.782245   -269.57175    1285.6956    13092.738    9.7362794   0.16482417 
   55700   -287.12486    15.295483   -271.82938    1105.8973   -1125.7837    9.5715746   0.17003944 
   55800   -283.26744    15.871483   -267.39595    1147.5433   -4144.5432    9.3989982   0.23484481 
   55900     -283.055    15.669322   -267.38568    1132.9266    6329.4844    9.4645141   0.27894253 
   56000   -287.74822    15.511822   -272.23639    1121.5391    4060.4924    9.6452103   0.16963501 
   56100   -287.50398    16.878107   -270.62587    1220.3244   -5996.3264    9.5171209    0.1653094 
   56200   -284.79962    17.215832   -267.58379    1244.7428    2184.4963    9.5186853   0.21851274 
   56300   -285.37913    17.326105   -268.05302    1252.7157    13341.429    9.6440045    0.2211966 
   56400   -288.70322    16.199143   -272.50407    1171.2339    4903.1438    9.7009063   0.15351482 
   56500   -284.84386    15.849161    -268.9947    1145.9294   -11082.518    9.3845015   0.21640328 
   56600   -283.28772     15.91865   -267.36907    1150.9536    15279.219    9.5900448   0.20606553 
   56700   -287.67312    15.872698   -271.80042    1147.6312     1912.519    9.6270232   0.14876529 
   56800   -288.63349    17.462762   -271.17073    1262.5963   -259.46524    9.6289163   0.14838415 
   56900   -287.18189    21.030266   -266.15163    1520.5348    3261.7593    9.5776635   0.19082119 
   57000   -287.85547    19.478968    -268.3765    1408.3725    17362.938    9.7728521   0.15057106 
   57100   -288.59107    16.815285   -271.77579    1215.7823   -9233.6536    9.5565645    0.1547921 
   57200   -284.02148    15.550788   -268.47069    1124.3564   -8390.4875    9.3490641   0.25177637 
   57300   -284.92879    16.896038   -268.03275    1221.6209    -3291.212    9.4625048   0.22199688 
   57400   -284.47494    14.221019   -270.25392    1028.2112    27774.607    9.7859167   0.16482954 
   57500    -288.6745    15.133794   -273.54071    1094.2068   -4100.0478    9.6055676    0.1642083 
   57600   -284.68981    15.833407    -268.8564    1144.7903   -7097.4397    9.4045317    0.2196574 
   57700   -285.91636    16.848167   -269.06819    1218.1597    -3096.102    9.4781099    0.2274363 
   57800   -286.29431     16.05666   -270.23765     1160.932   -1499.3881    9.5211138   0.20496936 
   57900   -288.93977    14.384502   -274.55527    1040.0313   -4844.9008    9.6164517   0.16149142 
   58000   -286.86023    16.505716   -270.35451    1193.3998    10626.521    9.6974808   0.16880381 
   58100   -286.84585    17.863103   -268.98274    1291.5419    13579.294    9.7127982   0.18792296 
   58200   -284.83183     16.06755   -268.76428    1161.7194    -16223.37    9.3094699   0.23537343 
   58300   -281.01527    17.102529   -263.91274    1236.5507   -9142.1046    9.2279016   0.27225291 
   58400   -284.83157    18.726264   -266.10531    1353.9503    167.34989    9.4872899   0.25147225 
   58500   -286.88912    17.635176   -269.25395    1275.0623    4139.0464    9.6151384   0.18184407 
   58600   -286.49017     15.45782   -271.03235    1117.6346   -2083.9877    9.5566846   0.20077557 
   58700   -286.49277    17.254704   -269.23807    1247.5532    4631.7682    9.5895951   0.19052478 
   58800   -283.69636    19.250573   -264.44579     1391.859    6240.0678    9.4872182   0.22948361 
   58900   -286.86075    18.343424   -268.51732    1326.2701    3918.2009    9.5958901   0.16666388 
   59000    -287.4892    16.756423   -270.73278    1211.5264   -6204.5911    9.5235199   0.17975727 
   59100   -284.11242     16.34113   -267.77129    1181.4999   -12327.537     9.297751   0.23336536 
   59200   -284.80798    18.410998   -266.39698    1331.1559   -8154.1227     9.386349   0.23870101 
   59300   -286.49176    16.810847   -269.68092    1215.4614    13202.475    9.6895719    0.2075119 
   59400   -287.26226    16.788323   -270.47394    1213.8329   -8101.5394    9.5061475   0.19704195 
   59500   -285.11385    19.171096   -265.94275    1386.1126    449.11296    9.4827013   0.19005038 
   59600   -286.91131    16.837042   -270.07427    1217.3554   -7731.6661    9.4838533   0.18419709 
   59700   -287.44873      16.5546   -270.89413    1196.9342    -10239.32    9.4853562   0.19691533 
   59800   -284.80156    18.328263    -266.4733    1325.1739    6747.8485    9.5514472   0.21660642 
   59900   -284.86551     17.53812   -267.32739    1268.0448    5210.3495    9.5504507     0.187681 
   60000   -286.68224    15.550297   -271.13194    1124.3209    2942.7799    9.5895841   0.16963358 
   60100   -284.09512    14.602537   -269.49258    1055.7957   -3086.1568    9.4316901   0.23025759 
   60200   -282.96036    16.086985   -266.87338    1163.1246   -13490.443    9.2715151   0.28207797 
   60300   -283.48275     18.18656   -265.29619    1314.9285    6703.0513    9.5022085   0.20459115 
   60400    -285.9718    15.144093   -270.82771    1094.9515    10952.502    9.6889529    0.1696911 
   60500   -287.10863    17.210442   -269.89818     1244.353    3012.0129     9.606329    0.1634347 
   60600   -287.49255    18.120628   -269.37192    1310.1615   -6397.2211    9.5131567   0.18048989 
   60700   -282.26063    18.186913   -264.07372     1314.954    3543.0134     9.398417   0.26471909 
   60800   -285.70118    19.115015   -266.58617    1382.0579    1021.2291     9.525999   0.17392747 
   60900   -285.39603    15.793824   -269.60221    1141.9284    6564.7121    9.5825104    0.1826192 
   61000   -287.05384    16.612692   -270.44115    1201.1344   -11480.182    9.4578649   0.16853923 
   61100   -287.03928    14.748637   -272.29064    1066.3591   -2156.1661    9.5818175   0.19002917 
   61200   -289.62147    13.215356   -276.40612    955.49949    6588.3877    9.7819683   0.14843952 
   61300    -286.8606    15.067781   -271.79282    1089.4339   -4458.8037    9.5310293   0.18721664 
   61400   -286.49109    16.179198   -270.31189    1169.7918    1261.5103    9.5800371   0.19324721 
   61500   -288.93929    19.426464   -269.51282    1404.5763    6781.9881    9.7107576   0.15098876 
   61600   -285.99449    19.015815   -266.97867    1374.8855    13160.418     9.658477   0.16592699 
   61700   -283.67767    18.989737   -264.68793         1373   -1717.2044    9.3881409   0.25471939 
   61800   -284.91805    16.130232   -268.78782    1166.2514    1792.8545    9.5004217   0.24834744 
   61900   -286.95276     15.23205   -271.72071    1101.3109    -9955.718    9.4394983   0.19175547 
   62000   -286.84845    16.364415   -270.48403    1183.1834    -10403.29    9.4633561   0.16493535 
   62100   -285.00644    19.016603   -265.98983    1374.9424    2201.9859    9.4934527   0.19265914 
   62200   -287.81851    18.568698   -269.24981    1342.5579    10653.698    9.7204128   0.15236449 
   62300   -288.01628    16.738216   -271.27806      1210.21    9621.7788    9.7237556   0.14605132 
   62400   -285.50805    17.679252   -267.82879     1278.249    4932.2721    9.5635904   0.21667238 
   62500   -284.69769    17.617336   -267.08035    1273.7724    10491.188    9.5908858   0.21813089 
   62600   -288.43458    16.852901   -271.58168     1218.502   -13523.394    9.4772474   0.17601917 
   62700   -285.33781    15.871594   -269.46622    1147.5514    -9900.273    9.3861614   0.22087759 
   62800   -286.77439    19.994947   -266.77945    1445.6789    -1197.795    9.5360586   0.17272158 
   62900   -287.17331    17.279798   -269.89351    1249.3676    4540.6739      9.62319   0.15381948 
   63000   -288.07032    17.595662   -270.47466    1272.2053     8041.808    9.6936089   0.15911868 
   63100    -285.3557    19.877619   -265.47808    1437.1958    3610.3989    9.5231056   0.19098875 
   63200   -287.47019    18.125745   -269.34445    1310.5315   -6640.3394     9.523919   0.17431552 
   63300   -287.73976    16.613432   -271.12633    1201.1879   -10327.899    9.4831156   0.18032286 
   63400   -284.95991    17.828216   -267.13169    1289.0195   -2400.0441    9.4557881   0.19598782 
   63500    -285.1502     18.22153   -266.92867    1317.4569    14501.765    9.6273277   0.23091716 
   63600   -286.82109    15.388915   -271.43218    1112.6526    -2085.269    9.5713507   0.15452971 
   63700   -287.80459    16.950977   -270.85361    1225.5931   -5305.0017    9.5483177   0.16871733 
   63800   -285.59496    19.036464    -266.5585    1376.3784    637.87884    9.5216631   0.21569268 
   63900   -288.35428     17.66444   -270.68984    1277.1781    698.80396    9.6316266   0.15223596 
   64000   -286.20384    14.941967   -271.26188    1080.3373    5966.9759    9.6316456   0.18930355 
   64100   -284.73454    17.192757   -267.54178    1243.0743    1077.7589    9.4869827   0.22623066 
   64200   -286.82211    17.283376   -269.53873    1249.6263   -6118.7023    9.5031369   0.18687385 
   64300   -285.80835    14.387527   -271.42083    1040.2501     831.1081    9.5347334   0.19775635 
   64400   -285.97451    18.536489   -267.43802    1340.2292   -5771.9802    9.4452407   0.19685008 
   64500   -286.18464    16.649827   -269.53481    1203.8193    19017.101    9.7709296   0.17542181 
   64600   -288.03026    16.933145   -271.09712    1224.3038    8033.0366    9.7013835    0.1529876 
   64700    -283.1156     15.47532   -267.64028    1118.8998   -11154.166    9.3112413   0.22910238 
   64800   -285.87175    18.452569   -267.41918    1334.1615    -14162.59    9.3376632   0.20834326 
   64900    -287.7816    16.688119   -271.09348    1206.5879   -2870.4741    9.5778621   0.15773985 
   65000   -286.63711    17.269484   -269.36762    1248.6219    -1063.657    9.5353309    0.1852844 
   65100   -284.78233     18.76157   -266.02076     1356.503    5434.0634    9.5225444   0.20746916 
   65200   -286.03502    14.782091   -271.25293    1068.7779    2186.4412    9.5569905   0.16307855 
   65300   -286.77208    16.671684    -270.1004    1205.3996   -5837.5088    9.5026659    0.1985871 
   65400   -285.59012    19.093589   -266.49653    1380.5087   -394.08993    9.4977001   0.19518443 
   65500   -287.20502    16.994918    -270.2101    1228.7702    6509.3846    9.6629988   0.20549549 
   65600   -288.07353    16.966277   -271.10726    1226.6994    14722.053    9.7720523   0.16116957 
   65700   -285.69442    18.323818    -267.3706    1324.8526    562.19933    9.4972603   0.20291225 
   65800   -283.71134    13.983327   -269.72802    1011.0255    -10143.64    9.3419885   0.22835285 
   65900   -285.56521     14.75924   -270.80597    1067.1257   -8918.9562     9.441641   0.19147671 
   66000   -285.52065    17.215217   -268.30544    1244.6982    2467.9419    9.5462721   0.17578032 
   66100   -284.40225    19.022774   -265.37948    1375.3886    17888.083    9.6335145    0.2062503 
   66200   -286.65831    16.062358   -270.59595     1161.344   -6824.4629     9.497026   0.20102893 
   66300   -285.74778    16.289414   -269.45836    1177.7607   -7648.5194    9.4302626   0.21629015 
   66400   -283.66775    17.823792   -265.84396    1288.6996    1935.5212    9.4492979   0.23255295 
   66500   -287.87406    17.367915   -270.50614    1255.7387    6098.9162    9.6711183   0.17419967 
   66600   -287.83354    17.029865   -270.80367    1231.2969    6168.1944    9.6781757   0.15690024 
   66700   -285.01594     17.68244    -267.3335    1278.4796    260.22873    9.5012237   0.20684597 
   66800   -285.48325    16.790165   -268.69309    1213.9661   -4745.3729    9.4453772   0.18874282 
   66900    -287.2011    15.731875   -271.46923    1137.4493   -2432.3972    9.5803629   0.16511971 
   67000   -286.90692    18.400494   -268.50642    1330.3964    9694.9245    9.6801742    0.1618554 
   67100   -284.92749    19.689733   -265.23775    1423.6113    9007.8348    9.5875754   0.23670903 
   67200   -288.70197    17.516203   -271.18577    1266.4602   -11711.351    9.4923701   0.17397421 
   67300    -286.0434    15.227922   -270.81548    1101.0124   -10169.014     9.431351   0.21401966 
   67400    -286.0493    17.020413   -269.02888    1230.6135    -6850.014     9.464897   0.20516348 
   67500    -285.5565     16.02588   -269.53062    1158.7066    2437.7412    9.5279426   0.21159995 
   67600   -289.22209    14.819619   -274.40247    1071.4913    4943.0125    9.7370101   0.15747317 
   67700   -285.80193    15.230486   -270.57144    1101.1978    4589.5351    9.5783729   0.21135776 
   67800   -286.22723    16.445102   -269.78213    1189.0172   -3299.7155    9.4954594    0.1793792 
   67900   -286.86389    17.107203   -269.75669    1236.8886   -81.130402    9.5655393   0.20223344 
   68000   -284.82202    20.520103   -264.30192    1483.6488    6410.3766    9.5198243   0.21600391 
   68100   -287.42098    18.351074   -269.06991    1326.8233    -8735.137    9.4794047     0.191921 
   68200   -286.57292    16.887478   -269.68544     1221.002   -1819.4542    9.5539942   0.19826556 
   68300   -284.92553    17.689336    -267.2362    1278.9781   -3659.1514    9.4566426   0.21564548 
   68400    -283.6524    19.193815   -264.45859    1387.7553    1776.0484    9.4429106    0.2501931 
   68500   -286.32634    16.159415   -270.16692    1168.3615     4532.358    9.5999417    0.1858087 
   68600   -285.00288     14.54829   -270.45459    1051.8735   -10351.891    9.3689517   0.21770797 
   68700    -285.4872     18.58799   -266.89921    1343.9528   -14777.147    9.3285174   0.19817599 
   68800   -287.47583    18.506427   -268.96941    1338.0556    3858.0164    9.6364753   0.15540431 
   68900   -289.98078    18.796267   -271.18452    1359.0117    7079.0959    9.7546872   0.12532822 
   69000   -287.27042    18.781744   -268.48868    1357.9616   -4328.2449    9.5313595   0.17354878 
   69100   -285.85154    18.383111   -267.46843    1329.1396   -4945.6844    9.4636456   0.20171554 
   69200   -288.05379    15.547881   -272.50591    1124.1462    3030.2694    9.6541768    0.1426004 
   69300   -287.88129    17.149467   -270.73182    1239.9444   -976.88072    9.5945967   0.17609459 
   69400   -286.77179    19.359616   -267.41218     1399.743   -1801.4518    9.5186352   0.16452361 
   69500   -286.86409    17.490139   -269.37395    1264.5757    22311.495    9.8190274   0.17168186 
   69600   -289.99814    16.292075   -273.70606    1177.9531   -8474.1009    9.6196945   0.13891926 
   69700    -285.8619    16.347316   -269.51458    1181.9471   -22310.563    9.2896211   0.20787055 
   69800   -285.25045    16.451613   -268.79884     1189.488    5386.5335    9.5584911   0.22549237 
   69900   -285.31932    16.391639   -268.92769    1185.1517    5431.7554    9.5791611     0.201777 
   70000   -288.37037    14.745549   -273.62482    1066.1358     6707.746    9.7072327    0.1677146 
   70100   -285.55146    15.673518   -269.87794      1133.23   -4538.6932    9.4493924     0.210502 
   70200   -284.54387    15.750852   -268.79302    1138.8214   -6532.2734    9.4148453   0.23943028 
   70300   -287.10269    15.127582   -271.97511    1093.7576    6718.3605     9.658057   0.16407969 
   70400   -288.86293     16.32994   -272.53299    1180.6908    7702.0065    9.7154414   0.15828282 
   70500   -287.58317     18.33031   -269.25286     1325.322   -20004.024    9.3873091   0.19653499 
   70600   -287.02116    18.871639   -268.14952    1364.4612    2218.9702    9.5818941   0.17408214 
   70700   -289.08903    16.875883   -272.21315    1220.1636    21730.653    9.9108363   0.13628993 
   70800   -288.39748    15.937644   -272.45983    1152.3269   -2723.1761    9.6024579   0.18183447 
   70900   -285.24639    15.985416   -269.26097    1155.7809   -4024.5525    9.4371136   0.22014452 
   71000   -286.08831    17.469615   -268.61869    1263.0918    1947.1009    9.5605783   0.20736403 
   71100   -290.50513    17.167537   -273.33759    1241.2509   -4706.3429    9.6702686   0.16522625 
   71200   -289.15703    18.623981   -270.53305     1346.555   -12393.921    9.5043084   0.17009493 
   71300   -287.70685    18.710145    -268.9967    1352.7849   -6226.7946    9.5094452   0.18022741 
   71400   -285.16833     15.01201   -270.15632    1085.4015    6535.0677    9.5679746   0.19764389 
   71500   -284.34653     18.64395   -265.70258    1347.9988   -4019.7726    9.4069089   0.21071251 
   71600   -283.88147     18.44914   -265.43233    1333.9136   -2853.3937    9.4253149   0.25853956 
   71700     -285.875    17.569423   -268.30558    1270.3082    16003.522    9.6858232   0.19044437 
   71800   -288.90169    18.472179   -270.42951    1335.5794   -4197.9872    9.6049753   0.16185937 
   71900   -285.01069    15.062375   -269.94831     1089.043   -3428.3843    9.4720403    0.2271541 
   72000   -282.71911     17.64924   -265.06987    1276.0791     -14574.2    9.2021354   0.30005912 
   72100    -284.0964    15.473325   -268.62307    1118.7556     4711.033     9.525706   0.22407703 
   72200   -286.60495    16.860346   -269.74461    1219.0403    13586.684     9.719331   0.19359144 
   72300   -282.76387     15.63021   -267.13366    1130.0987    13791.334    9.5796565   0.25934603 
   72400   -283.34054    18.272159   -265.06838    1321.1175   -12519.845    9.2817584   0.25183061 
   72500   -285.82219    15.731235   -270.09095    1137.4031    5434.9112    9.6064479   0.19743766 
   72600   -285.91879    15.936823   -269.98197    1152.2676    4112.9173    9.5725982   0.17418327 
   72700   -285.92787    17.295974    -268.6319    1250.5372   -12653.967     9.379234   0.21284348 
   72800   -280.68963    16.926097   -263.76353    1223.7943    9558.3086    9.3961008   0.27347116 
   72900   -285.60734    17.650083   -267.95725    1276.1401    7681.1527    9.6098761   0.20041378 
   73000   -286.91787    16.770334   -270.14753    1212.5322    7117.8472    9.6525037   0.17475698 
   73100    -287.4509    16.749079   -270.70182    1210.9955   -4488.3446    9.5165756   0.17937589 
   73200   -283.88647    18.205788   -265.68068    1316.3187   -1857.1175    9.4266445   0.22725758 
   73300   -283.41501    15.014055   -268.40095    1085.5494    10985.718    9.5451799    0.2101875 
   73400    -286.2244    16.689667   -269.53473    1206.6998   -7768.4868    9.4334238   0.20326116 
   73500   -287.34715    18.214348    -269.1328    1316.9377    7454.4202    9.6723791   0.18830048 
   73600   -283.35477    19.070972    -264.2838    1378.8734    17139.723    9.6229312   0.21896665 
   73700    -283.5985    18.149286   -265.44922    1312.2336   -1117.8311    9.4091143   0.24861955 
   73800   -285.91029    16.719281   -269.19101     1208.841   -8736.7137    9.4166165   0.18610352 
   73900   -287.14146    16.760529   -270.38093    1211.8234   -2137.4179    9.5527958   0.17379561 
   74000   -284.59553    17.741856   -266.85368    1282.7755    6387.7019    9.5378626   0.19707265 
   74100   -285.40102    18.711514   -266.68951    1352.8838    4945.3979    9.5530349    0.2424875 
   74200    -286.9916    16.601815   -270.38979     1200.348    4417.8633      9.61678   0.16716354 
   74300   -287.96539    17.131413   -270.83398    1238.6391   -5797.7992     9.569772   0.14542727 
   74400   -283.98398    18.591213   -265.39277    1344.1858   -1802.4719    9.4110117    0.2346638 
   74500   -285.62058    17.948193   -267.67239    1297.6941      6520.27    9.5633078   0.19079971 
   74600   -285.59789    15.244832   -270.35306    1102.2351   -5645.7065      9.45205   0.21478491 
   74700    -285.1167    16.715741   -268.40096     1208.585   -8872.2652    9.3839005    0.2006239 
   74800   -285.03739     15.91584   -269.12155    1150.7505   -7170.1204    9.4136458   0.24487672 
   74900   -290.90061    17.474472   -273.42614     1263.443    544.40503    9.7392437   0.14034466 
   75000   -286.86549    16.392129   -270.47336    1185.1872     18347.44    9.7685799   0.17756732 
   75100   -285.76169    18.030022   -267.73166    1303.6105    -761.3703    9.5207503   0.21048406 
   75200   -286.65063    16.935406   -269.71522    1224.4673   -2924.4258    9.5174327   0.24133296 
   75300   -288.06354    15.166296   -272.89724    1096.5568   -13043.225    9.4938455   0.21490235 
   75400   -284.71211    16.197049   -268.51506    1171.0825    -13132.91    9.3476084   0.23453492 
   75500   -284.67578    16.766935   -267.90885    1212.2865    124.50055    9.4736222   0.22072515 
   75600   -288.50983    16.480509   -272.02932    1191.5773    13242.662    9.7708551     0.155985 
   75700   -289.42404    17.582744   -271.84129    1271.2713   -1941.3824    9.6494545   0.15388731 
   75800   -286.44666    18.106253   -268.34041    1309.1221   -2959.0993    9.5094607   0.19429786 
   75900   -287.05233    17.863196   -269.18913    1291.5486    909.09556     9.581282   0.18232903 
   76000   -288.45344    14.966532   -273.48691    1082.1133    680.11712    9.6466652   0.14839747 
   76100   -287.27384    17.603933   -269.66991    1272.8033    -10308.49     9.460589    0.1471062 
   76200   -287.71363    19.849436   -267.86419    1435.1581    -3705.788    9.5465747   0.17612178 
   76300   -289.13901    17.927297   -271.21171    1296.1832    11222.649    9.7590797   0.14641397 
   76400    -289.5265    17.362205    -272.1643    1255.3258   -10757.865    9.5701787   0.14239508 
   76500   -286.74037    17.660176    -269.0802    1276.8698   -13414.689    9.4072108   0.20768546 
   76600   -281.57972    15.299285   -266.28043    1106.1722    10010.208    9.4732824    0.2980691 
   76700   -285.51392    20.020749   -265.49317    1447.5444   -7375.4541    9.4345826   0.22387039 
   76800   -286.27584    16.320648   -269.95519    1180.0189    2844.2767     9.583549   0.19127319 
   76900   -288.25356    19.273859    -268.9797    1393.5426     13936.53    9.7672173   0.12739768 
   77000   -284.34643    14.757863   -269.58857    1067.0261   -2099.2107    9.4490761   0.19030623 
   77100   -282.53724     16.80772   -265.72952    1215.2354    -12970.75    9.2356193   0.21873819 
   77200   -284.66869     19.11088   -265.55781    1381.7589    208.22869    9.4428705   0.23459612 
   77300   -286.34273    17.181448   -269.16128    1242.2567   -1144.2146    9.5524002   0.17784163 
   77400   -286.71683    15.691074   -271.02576    1134.4993    3025.5748    9.6215079   0.19021647 
   77500   -284.84674    17.776289   -267.07045     1285.265    432.45283    9.4950285   0.18041098 
   77600   -283.74806    15.483764    -268.2643    1119.5104   -9659.6014    9.3201313   0.21541135 
   77700   -288.97181    16.700066   -272.27175    1207.4517   -1346.4692    9.6303381    0.1509318 
   77800   -288.32602    19.076925   -269.24909    1379.3039     13076.77     9.748765   0.17952162 
   77900     -286.825    18.842243   -267.98276    1362.3358   -2192.6524    9.5206757   0.18573445 
   78000   -287.21934    16.577589   -270.64175    1198.5964   -7128.7947    9.4957325   0.17487265 
[...]
  481400   -287.25856    16.233674   -271.02489    1173.7306    10345.183    9.7150795   0.17887006 
  481500   -287.22704    17.263461   -269.96358    1248.1864   -7674.7338    9.5029775   0.18833165 
  481600   -284.79336    18.649086   -266.14427    1348.3701   -2275.6377    9.4361664   0.24796454 
  481700   -288.92462    18.084397   -270.84022    1307.5419    4390.6789    9.6955712   0.15587526 
  481800   -288.10703    16.865199   -271.24183    1219.3912    12628.111    9.7656441   0.13789153 
  481900   -286.08552    18.738851   -267.34667    1354.8604   -4288.8335    9.4589202   0.20149103 
  482000   -284.61608    16.810541   -267.80554    1215.4393    2822.1626    9.4977829   0.20177693 
  482100   -286.30068     14.26097   -272.03971    1031.0997    4602.4558    9.5900195   0.15996023 
  482200   -286.27486    17.168982   -269.10588    1241.3554   -8272.2789    9.4673036   0.19375264 
  482300   -285.84313    17.337721   -268.50541    1253.5556    3858.2672    9.5575198   0.17835194 
  482400   -289.95876    18.569583   -271.38917    1342.6219    26125.132    9.9803582   0.10969495 
  482500   -289.03549    18.870489     -270.165    1364.3781    5769.2757     9.710535   0.14474871 
  482600   -285.73075    17.970218   -267.76054    1299.2865   -7367.6337    9.4117896   0.21220223 
  482700   -285.73158    15.880559   -269.85102    1148.1995   -2967.3936    9.4690073   0.18574266 
  482800   -286.71487    14.168764   -272.54611     1024.433   -1879.1723     9.554706   0.17409934 
  482900   -284.26657    16.677491   -267.58908    1205.8195   -2837.5489    9.4241663   0.22725475 
  483000   -286.71592     18.76171   -267.95421    1356.5131     1815.022    9.5575538   0.19176367 
  483100   -288.22633    17.196965   -271.02936    1243.3786    10032.975    9.7335568   0.16119825 
  483200   -284.54358    15.475936   -269.06764    1118.9444    8729.5241    9.5771296   0.20170753 
  483300   -281.66028    15.639838   -266.02044    1130.7949   -7530.3648    9.2590209   0.29060133 
  483400   -285.24998    14.826999   -270.42299    1072.0248   -7741.8102    9.4225337   0.21318223 
  483500   -285.91864    15.689921   -270.22872     1134.416    1310.6803    9.5542287   0.20201057 
  483600   -286.60828    17.914102   -268.69418    1295.2292    2803.5095    9.5733221     0.211782 
  483700   -288.95618    15.609961   -273.34622    1128.6347    820.68653     9.695487   0.14349228 
  483800   -288.16646    15.633709   -272.53275    1130.3517    97.075492    9.6259171   0.15743243 
  483900   -287.90806     18.45802   -269.45004    1334.5557    7117.7098     9.667592   0.15183485 
  484000    -287.0066    17.869713   -269.13688    1292.0198    9532.2667    9.6774791   0.16453626 
  484100   -285.81657    15.961189   -269.85538    1154.0292    4250.1377    9.5498609   0.18418309 
  484200   -289.71997     14.69908   -275.02089     1062.776   -15006.279    9.5165755   0.14413284 
  484300   -288.26267    16.102868    -272.1598     1164.273   -9976.3656    9.5111518   0.18096473 
  484400   -287.61465    18.233133   -269.38151    1318.2959   -10273.397    9.4768426   0.19196693 
  484500   -286.16464    17.099678   -269.06496    1236.3446    -3920.169    9.5222068   0.21272966 
  484600   -288.18221    15.593588   -272.58862    1127.4509    5681.2683    9.6914437    0.1468794 
  484700   -289.35294    16.074298   -273.27864    1162.2073    367.43933    9.6768262   0.14738866 
  484800   -287.14029    17.501442   -269.63885     1265.393   -6202.1362    9.5148153   0.17637756 
  484900   -286.28784    17.680611   -268.60723    1278.3473    1987.5149    9.5700832   0.17106528 
  485000   -288.50161    15.989839   -272.51177    1156.1008    12779.118    9.7918142    0.1505953 
  485100    -290.3459    18.584014   -271.76188    1343.6653    379.86339     9.686744   0.13680589 
  485200   -285.13225    16.492851    -268.6394    1192.4696    1050.8439    9.5221417   0.21008875 
  485300     -284.468    15.067115   -269.40088    1089.3858   -8484.0011    9.3932716   0.22346258 
  485400   -288.24009    14.943653   -273.29644    1080.4591   -17445.124     9.440722   0.20002768 
  485500   -287.29477    17.743848   -269.55092    1282.9194    5583.7071    9.6359229   0.19572694 
  485600   -285.53313    18.365164   -267.16796     1327.842    14862.897     9.663943   0.17381448 
  485700    -287.5453    16.527805    -271.0175    1194.9969   -1058.1617    9.5814536   0.17901184 
  485800   -286.97725     17.12219   -269.85506    1237.9722   -10344.608    9.4655932   0.21174871 
  485900   -284.30654    16.690052   -267.61648    1206.7276   -443.42711    9.4783532    0.2086697 
  486000   -286.64783    15.617438   -271.03039    1129.1753   -4018.7239    9.5275661   0.18259944 
  486100   -285.94806    15.718336   -270.22973    1136.4705   -11924.744    9.3986237   0.18934667 
  486200   -283.18869     18.46898   -264.71971    1335.3481    1989.4389    9.3813159   0.22014797 
  486300    -286.1077     18.44786   -267.65984    1333.8211    16320.765    9.7329331   0.20066677 
  486400    -286.2803    16.398131   -269.88216    1185.6212    2702.4798    9.5952584    0.2053502 
  486500   -285.82395    17.792609   -268.03134     1286.445    1094.7842    9.5495632   0.20279696 
  486600   -281.88239    17.060411   -264.82198    1233.5054    5765.0584    9.4262816   0.27643956 
  486700   -286.63868    16.070222   -270.56846    1161.9126   -383.59224     9.572012   0.18425907 
  486800   -286.57037    15.687209   -270.88316    1134.2199   -15730.879    9.3909342    0.1997229 
  486900   -285.79528       16.828   -268.96728    1216.7016   -5912.0186    9.4785215   0.22420027 
  487000   -285.81521    19.878206     -265.937    1437.2382   -132.47024    9.5052216   0.19361414 
  487100   -287.16735     16.48593   -270.68142    1191.9692    2443.2933    9.6025967   0.16097517 
  487200   -287.21353    16.661851   -270.55167    1204.6887   -898.54062    9.5788577   0.17386898 
  487300   -284.93965    18.399214   -266.54044    1330.3039   -12470.385    9.3646838   0.20690149 
  487400    -285.7978    16.720411   -269.07739    1208.9227    12756.155    9.6623791   0.20293079 
  487500   -287.60012     15.73783   -271.86229    1137.8799   -3825.8534    9.5662069    0.1694531 
  487600   -284.58143    16.454773   -268.12666    1189.7165   -11608.154    9.3333101   0.20914202 
  487700   -286.97553     18.69714   -268.27839    1351.8446    1803.8964     9.577378   0.17011531 
  487800   -290.40602     18.48929   -271.91673    1336.8166    4597.5735    9.7336283   0.11947583 
  487900   -285.95539    16.904035   -269.05136    1222.1991    7437.6537    9.6285494   0.17715478 
  488000   -284.84042    17.073161   -267.76726    1234.4273   -1350.7093    9.4793588   0.19725287 
  488100   -288.41693    15.877625   -272.53931    1147.9874    13065.868    9.8178569   0.15449848 
  488200   -288.94676    17.721628   -271.22513    1281.3129   -9966.0091    9.5424047   0.18373892 
  488300   -285.69325    17.769551    -267.9237    1284.7779   -5076.0891    9.4670164   0.20665734 
  488400   -287.86215    17.986899   -269.87525    1300.4926    2563.8331    9.6329967   0.16852079 
  488500   -290.12434    17.504422   -272.61991    1265.6084   -383.23695    9.6929522   0.13719078 
  488600    -285.6838    17.732053   -267.95175    1282.0667   -8466.1929    9.4402903   0.24299479 
  488700   -283.85501    16.714988   -267.14002    1208.5306   -6192.2505    9.3848203   0.22328405 
  488800   -287.20866    16.230957    -270.9777    1173.5341   -445.85243    9.5748033   0.19840576 
  488900    -285.6739    15.941306    -269.7326    1152.5917    16801.558    9.7234781   0.18915763 
  489000    -283.9001    18.458623   -265.44148    1334.5992   -10477.601    9.3127574   0.20650027 
  489100   -287.25489    16.936468   -270.31842    1224.5441    253.98347    9.6036339   0.14014679 
  489200    -287.2052    16.445988   -270.75921    1189.0813    10789.551    9.7121307     0.175648 
  489300   -286.89467    19.174188   -267.72048    1386.3362    -10850.64    9.4292106   0.18896556 
  489400   -288.06202    17.124946   -270.93708    1238.1714   -6357.3908    9.5379832   0.19655388 
  489500   -288.22285    16.409903   -271.81295    1186.4723   -8829.5281    9.5338568   0.16566559 
  489600   -286.25615    18.581045    -267.6751    1343.4507   -17522.858    9.3474636   0.22088032 
  489700   -283.71531    15.834127   -267.88118    1144.8424    -5965.341    9.3942428   0.25177981 
  489800   -287.93457    16.556744   -271.37783    1197.0892    1332.1209    9.6425974   0.20419137 
  489900   -287.02534     17.74579   -269.27955    1283.0599     10061.43    9.6917203   0.17730552 
  490000   -283.08173    17.390848   -265.69089    1257.3968    5852.1372    9.4690615   0.21822253 
  490100   -286.96482    18.612276   -268.35254    1345.7087   -12036.102    9.4120112   0.20445795 
  490200   -285.66118     15.96502   -269.69616    1154.3062   -6889.7229    9.4625337   0.19908065 
  490300   -285.65511    16.266703    -269.3884    1176.1186    19194.222    9.7205054   0.18679707 
  490400   -288.24692    16.888978   -271.35794    1221.1105    6902.6135    9.7115171   0.15709122 
  490500   -289.82391    16.701702   -273.12221      1207.57    4627.5236     9.733957   0.12883506 
  490600   -285.37659    15.270759   -270.10583    1104.1097    1407.0628    9.5078119     0.191601 
  490700   -286.20384    18.251654   -267.95218     1319.635   -26765.968    9.2431309   0.20597806 
  490800   -286.50974    15.116403   -271.39334    1092.9494    12379.705    9.6851203   0.17456295 
  490900   -289.13781     16.28737   -272.85044    1177.6129    6304.9323    9.7225533   0.14998315 
  491000   -287.91391    19.390293   -268.52361    1401.9611    2230.0434    9.6115454    0.1584397 
  491100    -288.1865    19.945243   -268.24126    1442.0852    15482.233    9.7770889   0.14749144 
  491200   -288.60611    17.326609    -271.2795    1252.7521   -10212.173      9.53653   0.17911905 
  491300   -289.79476     15.67206    -274.1227    1133.1246   -7820.3006    9.6015785   0.16025538 
  491400   -286.11273    17.320808   -268.79192    1252.3327   -1252.0098     9.504375   0.19553828 
  491500   -287.90349    18.791567   -269.11192    1358.6719    1727.7067    9.6089776   0.15784669 
  491600   -289.12868    17.809912   -271.31876     1287.696   -1559.7997    9.6361308   0.15243572 
  491700   -290.89778    16.336938   -274.56084    1181.1968   -14145.173    9.5693393   0.14961361 
  491800   -286.36923    16.151136    -270.2181    1167.7628   -7327.1901    9.4546352   0.21645281 
  491900   -286.82071    17.347784   -269.47293    1254.2831   -7827.3902    9.4817437   0.17712684 
  492000   -287.71679     18.20111   -269.51568    1315.9805   -1922.0831    9.5784874   0.17254818 
  492100    -285.9788    17.080583   -268.89821    1234.9639    5687.2396    9.5882822   0.20787069 
  492200   -283.33936    17.368804   -265.97056    1255.8029   -1913.6145    9.3818446   0.26729174 
  492300   -281.69788    18.626084    -263.0718    1346.7071    2305.0976    9.3559303    0.2595912 
  492400   -285.56316    18.571069   -266.99209    1342.7293    9448.0185     9.604588   0.19409873 
  492500   -286.64525    17.207711   -269.43754    1244.1555    413.59757    9.5757051   0.16715307 
  492600   -287.07224    15.274378   -271.79786    1104.3713   -11410.309    9.4866153   0.20342392 
  492700   -283.37086    16.268833   -267.10202    1176.2726    7620.2044    9.5104105   0.24460056 
  492800   -284.88847    17.835954   -267.05252    1289.5789    22689.394    9.7317006   0.19105289 
  492900   -287.47873    17.240675   -270.23806    1246.5389    3240.0099    9.6361314   0.16339596 
  493000   -286.15756    14.653159    -271.5044    1059.4558   -3263.1206    9.5155178   0.18013409 
  493100   -282.99632    17.012389   -265.98393    1230.0333   -6379.6277    9.3214236   0.27055575 
  493200   -286.03986    18.534042   -267.50581    1340.0522   -2684.6142    9.4833766   0.18560962 
  493300    -287.4364    17.601019   -269.83538    1272.5926    4878.4983    9.6299479   0.15907308 
  493400   -286.06993    15.996523    -270.0734     1156.584    2816.5361    9.5809232    0.1915929 
  493500   -285.08316    20.613417   -264.46975    1490.3956   -6871.1596    9.3831834   0.22976677 
  493600   -288.10493    19.834561   -268.27037    1434.0826   -7335.7791    9.5112942   0.16920355 
  493700   -287.70273    17.704465   -269.99827     1280.072    10263.666    9.6933634   0.17306545 
  493800   -285.83248    16.856781    -268.9757    1218.7826   -5428.8268    9.4545444    0.2185291 
  493900   -283.76391    17.329135   -266.43477    1252.9348   -3965.2932    9.3789279    0.2120193 
  494000   -284.74911    14.900613   -269.84849    1077.3473   -6585.8264    9.4185576   0.19937219 
  494100   -285.10636    14.297643   -270.80872    1033.7512     2043.425    9.5168253    0.2091519 
  494200   -283.76906    17.759602   -266.00945    1284.0585    12567.305    9.5911732   0.18919888 
  494300   -285.45403    16.384215   -269.06981     1184.615    19211.474    9.7310111   0.19719713 
  494400    -288.2334    16.343859   -271.88954    1181.6972   -8555.3778     9.537552   0.19008413 
  494500   -284.36325    16.742689   -267.62056    1210.5335    -320.6614    9.4426198   0.22091271 
  494600   -284.93678    17.388457   -267.54832    1257.2239   -59.659378    9.4925007   0.23235961 
  494700   -289.40094    17.326431   -272.07451    1252.7393    5701.5865    9.7274981   0.15703042 
  494800   -286.64637    16.491857   -270.15451    1192.3977   -2335.0801    9.5451915    0.1865135 
  494900   -284.59276    17.352458   -267.24031    1254.6211    7462.2836    9.5343861   0.22462706 
  495000   -287.37386    16.772329   -270.60153    1212.6765    6677.0902    9.6425095   0.18656173 
  495100   -287.69413    15.494567   -272.19957    1120.2914   -15779.521    9.4222706   0.17491642 
  495200   -284.82369    16.825412   -267.99827    1216.5145   -3597.2412    9.4431207   0.22428214 
  495300   -286.58516    19.525825   -267.05934    1411.7603    6083.9862    9.5940167   0.20441204 
  495400   -287.95329    15.668734   -272.28455    1132.8841    928.55773    9.6363315   0.15998968 
  495500   -286.54107    16.339014   -270.20205    1181.3469   -4506.3668    9.4959089   0.18934962 
  495600   -283.39292    16.377321    -267.0156    1184.1165    1063.5884    9.4198257   0.25980631 
  495700   -286.62512    16.424265   -270.20085    1187.5107   -10241.644    9.4448232   0.22096677 
  495800   -287.07431      15.5679   -271.50641    1125.5936    11809.365     9.736009   0.15244474 
  495900   -285.49117    18.054147   -267.43703    1305.3547    13503.611    9.6569295   0.21156262 
  496000   -285.10654    18.195015   -266.91152    1315.5398    251.04744    9.4638268   0.21651784 
  496100   -287.01289    16.364974   -270.64791    1183.2238   -19036.842     9.366146   0.22321376 
  496200   -284.98557    16.260688   -268.72488    1175.6837   -4508.9728    9.4388366   0.18733525 
  496300   -284.49644    18.538947    -265.9575    1340.4069    9359.9318    9.5486326   0.18574742 
  496400   -290.76974    19.400108   -271.36964    1402.6707     5925.918    9.7716834   0.13008673 
  496500   -287.60777    17.220616   -270.38716    1245.0887   -2879.7518    9.5398211   0.17284986 
  496600    -283.9888    16.741555   -267.24724    1210.4515   -1988.6288    9.4337098   0.20336342 
  496700   -287.01331    16.071723   -270.94158    1162.0211    1129.4208    9.5697494   0.19378475 
  496800    -285.6058    15.009666   -270.59613    1085.2321    17426.888    9.7432698    0.1851504 
  496900    -284.1169    18.022831   -266.09407    1303.0905   -1058.7626     9.411577   0.24935612 
  497000    -285.4331    16.432569   -269.00053    1188.1111    1712.6299    9.5256643   0.21024616 
  497100    -287.1638    15.705288   -271.45852    1135.5271    6470.7556    9.6662468   0.16358317 
  497200   -286.18139    17.925712   -268.25568    1296.0686    1855.0706    9.5442827   0.19518193 
  497300   -284.72679    17.215442   -267.51135    1244.7145   -10525.558    9.3405671   0.22685771 
  497400   -287.74641    16.052751   -271.69366    1160.6494   -4980.2395    9.5731722   0.17103099 
  497500   -287.35945    18.095645    -269.2638    1308.3552    29722.149    9.9073154   0.14109019 
  497600   -284.74763    18.895151   -265.85248    1366.1612    16520.177    9.6353787   0.17448462 
  497700   -286.67022    16.881643   -269.78858    1220.5801   -14453.524    9.4045271   0.21757246 
  497800   -285.98916    15.518193   -270.47097    1121.9997    4175.8374    9.5586733   0.18976176 
  497900   -285.49079    18.119236   -267.37155    1310.0609    -2000.138    9.4831186   0.20352157 
  498000    -283.9984    18.207438   -265.79096    1316.4381   -4039.6528    9.4029702   0.24691406 
  498100   -283.96531    14.969351   -268.99596    1082.3172   -4493.4023    9.4064924   0.23573732 
  498200   -286.41042    17.060618    -269.3498    1233.5204   -8965.1392    9.4639905   0.18148431 
  498300   -288.23289    17.276639   -270.95626    1249.1392    -3036.641    9.5854106   0.15696761 
  498400   -289.48545    15.920879   -273.56457    1151.1147     3252.531    9.7101534   0.13010093 
  498500   -287.05893    16.963159   -270.09577    1226.4739   -3806.0658    9.5243834   0.19730086 
  498600   -286.84222    17.557659   -269.28456    1269.4576   -11586.425    9.4322724   0.23094613 
  498700   -285.37427    16.383793   -268.99048    1184.5845   -3615.0979    9.4793513    0.2338708 
  498800   -289.01933    15.094412   -273.92492    1091.3594    4094.1391    9.7063634   0.15289454 
  498900   -289.50378    18.016113   -271.48767    1302.6048   -1677.8741    9.6640362   0.13759508 
  499000   -288.49513    19.504035   -268.99109    1410.1849   -6308.0927     9.537969   0.15960304 
  499100   -285.35843    17.346646   -268.01178    1254.2009     -5224.13    9.4432044   0.17190538 
  499200    -289.6442    16.385653   -273.25855    1184.7189    2670.5879    9.7300323   0.13360383 
  499300   -288.59434    17.141655   -271.45268    1239.3795    5082.1706    9.6911765   0.15675179 
  499400   -287.76551    18.978577   -268.78693    1372.1931    954.96477    9.5921056   0.18841009 
  499500   -286.04299    16.741659   -269.30134     1210.459   -15977.738    9.3573167   0.20750732 
  499600   -288.34598    14.607512   -273.73847    1056.1555    -9486.317    9.5356414    0.1954786 
  499700   -286.53515    16.919286   -269.61586    1223.3018    3146.2547    9.5668939   0.18287704 
  499800   -286.64177    17.560966    -269.0808    1269.6967    1007.6551    9.5709051   0.17944506 
  499900   -287.90125    15.411376   -272.48988    1114.2765    4320.1177    9.6653984    0.1610478 
  500000   -286.42442    16.508734   -269.91568     1193.618    -3847.506    9.5045938   0.19716452 
Loop time of 150.183 on 1 procs for 500000 steps with 108 atoms

Performance: 1438.248 ns/day, 0.017 hours/ns, 3329.277 timesteps/s
100.0% CPU use with 1 MPI tasks x no OpenMP threads

MPI task timing breakdown:
Section |  min time  |  avg time  |  max time  |%varavg| %total
---------------------------------------------------------------
Pair    | 89.522     | 89.522     | 89.522     |   0.0 | 59.61
Neigh   | 5.1414     | 5.1414     | 5.1414     |   0.0 |  3.42
Comm    | 2.4936     | 2.4936     | 2.4936     |   0.0 |  1.66
Output  | 0.11853    | 0.11853    | 0.11853    |   0.0 |  0.08
Modify  | 52.404     | 52.404     | 52.404     |   0.0 | 34.89
Other   |            | 0.5033     |            |       |  0.34

Nlocal:    108 ave 108 max 108 min
Histogram: 1 0 0 0 0 0 0 0 0 0
Nghost:    990 ave 990 max 990 min
Histogram: 1 0 0 0 0 0 0 0 0 0
Neighs:    4962 ave 4962 max 4962 min
Histogram: 1 0 0 0 0 0 0 0 0 0

Total # of neighbors = 4962
Ave neighs/atom = 45.9444
Neighbor list builds = 22394
Dangerous builds = 0
Total wall time: 0:02:30
