LAMMPS (3 Mar 2020)
Reading data file ...
  orthogonal box = (0 0 0) to (17.469 17.469 17.469)
  1 by 1 by 1 MPI processor grid
  reading atoms ...
  217 atoms
  read_data CPU = 0.00101656 secs
Reading potential file library.meam with DATE: 2012-06-29
Reading potential file LiSi.meam with DATE: 2020-11-07
1 atoms in group Li
Neighbor list info ...
  update every 1 steps, delay 10 steps, check yes
  max neighbors/atom: 2000, page size: 100000
  master list distance cutoff = 6
  ghost atom cutoff = 6
  binsize = 3, bins = 6 6 6
  2 neighbor lists, perpetual/occasional/extra = 2 0 0
  (1) pair meam/c, perpetual
      attributes: full, newton on
      pair build: full/bin/atomonly
      stencil: full/bin/3d
      bin: standard
  (2) pair meam/c, perpetual, half/full from (1)
      attributes: half, newton on
      pair build: halffull/newton
      stencil: none
      bin: none
Setting up Verlet run ...
  Unit style    : metal
  Current step  : 0
  Time step     : 0.005
Per MPI rank memory allocation (min/avg/max) = 9.266 | 9.266 | 9.266 Mbytes
Step PotEng KinEng TotEng Temp Press Density c_msdli[4] 
       0   -951.06911    39.088268   -911.98084         1400   -116419.96    1.8918427            0 
     100   -923.77041    25.770436   -897.99997    923.00355   -88416.374    1.8918427  0.037264847 
     200   -915.44805    37.080657   -878.36739    1328.0947   -79574.415    1.8918427  0.092662342 
     300   -908.99428    41.689363   -867.30492    1493.1618   -72771.991    1.8918427  0.021022443 
     400   -913.17104    36.908006   -876.26304    1321.9109   -79280.673    1.8918427  0.014454473 
     500   -916.10565    39.204103   -876.90154    1404.1488   -79972.397    1.8918427   0.33804602 
     600   -910.44884    41.233446   -869.21539    1476.8325   -73017.676    1.8918427   0.43324102 
     700   -914.38952    40.476796   -873.91272    1449.7321   -78595.743    1.8918427    4.4491566 
     800   -912.12794    36.031703   -876.09624    1290.5249   -77353.054    1.8918427    6.9633279 
     900   -908.76037     39.64625   -869.11412    1419.9849   -75557.364    1.8918427    6.0506481 
    1000   -911.28529    38.498876   -872.78641    1378.8901   -77396.662    1.8918427    7.0998937 
    1100   -911.84195    38.492461   -873.34949    1378.6604   -79548.487    1.8918427    5.2137785 
    1200   -913.62587    36.119553   -877.50632    1293.6714   -80668.183    1.8918427    6.3457208 
    1300   -915.08097    39.090231   -875.99074    1400.0703   -79113.407    1.8918427    7.6342596 
    1400   -912.18082     40.39393   -871.78689    1446.7641   -78002.423    1.8918427    5.9051774 
    1500    -915.5156     38.00182   -877.51378    1361.0874   -80392.538    1.8918427    5.7373215 
    1600   -916.83152     36.67885   -880.15267    1313.7034   -83479.384    1.8918427    9.2248732 
    1700   -912.41084    41.011351   -871.39949    1468.8779   -78186.147    1.8918427    6.6089828 
    1800   -913.23436    38.958544   -874.27582    1395.3538   -78558.583    1.8918427    6.1078171 
    1900   -916.53096     39.35251   -877.17845    1409.4642   -80813.012    1.8918427    6.6947385 
    2000   -909.06577    39.491393   -869.57437    1414.4385   -74095.313    1.8918427     7.191661 
    2100   -911.97535    36.032882   -875.94247    1290.5672    -78154.41    1.8918427    7.8999124 
    2200   -911.20855    39.498793   -871.70976    1414.7035   -77619.373    1.8918427    5.4733812 
    2300   -909.97862    39.746727   -870.23189    1423.5836   -75371.143    1.8918427     7.264054 
    2400   -914.80078    39.590529   -875.21025    1417.9892   -80621.877    1.8918427    5.6978867 
    2500   -910.04558    38.848562   -871.19701    1391.4146   -75639.692    1.8918427    5.3713526 
    2600   -910.18207    42.561975    -867.6201    1524.4156   -75200.922    1.8918427    5.5996315 
    2700   -914.59721    40.595262   -874.00195    1453.9751    -79582.94    1.8918427    6.8357916 
    2800   -915.42003      39.9835   -875.43653     1432.064   -81131.435    1.8918427    6.5426404 
    2900   -912.24973     43.27158   -868.97815    1549.8311   -78546.061    1.8918427    5.8850448 
    3000   -915.39941    39.710109    -875.6893    1422.2721   -79932.208    1.8918427    7.7186469 
    3100   -914.04899    39.180963   -874.86803      1403.32   -79764.654    1.8918427    7.3635534 
    3200   -909.39613    38.967472   -870.42865    1395.6735   -77346.992    1.8918427    6.8020232 
    3300   -912.11209    43.435792    -868.6763    1555.7126   -77517.234    1.8918427    4.9211146 
    3400   -915.17931    38.938824   -876.24049    1394.6475   -81850.565    1.8918427    6.4981906 
    3500   -912.48609    41.572217   -870.91387    1488.9661   -79172.824    1.8918427    5.5731945 
    3600    -910.7391    40.472113   -870.26699    1449.5643   -76111.348    1.8918427    5.1094559 
    3700    -914.1449    39.912807    -874.2321     1429.532   -81614.139    1.8918427    5.6998553 
    3800    -913.7484    38.933539   -874.81486    1394.4582   -78472.694    1.8918427    6.1478652 
    3900   -911.83003    42.208271   -869.62176    1511.7472   -75666.265    1.8918427    5.7338476 
    4000   -912.19649    36.304119   -875.89237    1300.2819   -77944.194    1.8918427    4.9098822 
    4100   -913.48786    38.250898   -875.23696    1370.0085   -78564.301    1.8918427    5.1730361 
    4200   -912.70157    40.275886   -872.42568    1442.5362   -74694.432    1.8918427    5.0120425 
    4300   -914.31535    40.122568   -874.19278    1437.0449   -79106.983    1.8918427     6.542237 
    4400   -916.48724     35.43022   -881.05702     1268.982   -81204.796    1.8918427    6.9122968 
    4500   -913.60067    38.938719   -874.66195    1394.6437   -79099.224    1.8918427    7.0452812 
    4600   -912.33822    39.920283   -872.41794    1429.7998   -76923.455    1.8918427    6.3276427 
    4700   -913.62075    36.283494   -877.33726    1299.5432   -77276.296    1.8918427    7.3061562 
    4800   -913.62243    38.647432     -874.975    1384.2109   -78033.548    1.8918427    6.3548556 
    4900   -912.08352    40.330469   -871.75305    1444.4912   -75996.208    1.8918427    6.6633351 
    5000   -916.90407    39.532338   -877.37173     1415.905   -81348.962    1.8918427    4.5411178 
Loop time of 2.79974 on 1 procs for 5000 steps with 217 atoms

Performance: 771.501 ns/day, 0.031 hours/ns, 1785.882 timesteps/s
99.9% CPU use with 1 MPI tasks x no OpenMP threads

MPI task timing breakdown:
Section |  min time  |  avg time  |  max time  |%varavg| %total
---------------------------------------------------------------
Pair    | 2.6272     | 2.6272     | 2.6272     |   0.0 | 93.84
Neigh   | 0.11991    | 0.11991    | 0.11991    |   0.0 |  4.28
Comm    | 0.024108   | 0.024108   | 0.024108   |   0.0 |  0.86
Output  | 0.0014536  | 0.0014536  | 0.0014536  |   0.0 |  0.05
Modify  | 0.021136   | 0.021136   | 0.021136   |   0.0 |  0.75
Other   |            | 0.005894   |            |       |  0.21

Nlocal:    217 ave 217 max 217 min
Histogram: 1 0 0 0 0 0 0 0 0 0
Nghost:    908 ave 908 max 908 min
Histogram: 1 0 0 0 0 0 0 0 0 0
Neighs:    3611 ave 3611 max 3611 min
Histogram: 1 0 0 0 0 0 0 0 0 0
FullNghs:  7222 ave 7222 max 7222 min
Histogram: 1 0 0 0 0 0 0 0 0 0

Total # of neighbors = 7222
Ave neighs/atom = 33.2811
Neighbor list builds = 220
Dangerous builds = 14
Total wall time: 0:00:02
