LAMMPS (3 Mar 2020)
Reading data file ...
  orthogonal box = (0 0 0) to (12.27 12.27 12.27)
  1 by 1 by 1 MPI processor grid
  reading atoms ...
  108 atoms
  read_data CPU = 0.000855908 secs
Reading potential file /usr/share/lammps-stable/potentials/Ag_u3.eam with DATE: 2007-06-11
Neighbor list info ...
  update every 1 steps, delay 10 steps, check yes
  max neighbors/atom: 2000, page size: 100000
  master list distance cutoff = 7.55
  ghost atom cutoff = 7.55
  binsize = 3.775, bins = 4 4 4
  2 neighbor lists, perpetual/occasional/extra = 1 1 0
  (1) pair eam, perpetual
      attributes: half, newton on
      pair build: half/bin/atomonly/newton
      stencil: half/bin/3d/newton
      bin: standard
  (2) compute rdf, occasional, copy from (1)
      attributes: half, newton on
      pair build: copy
      stencil: none
      bin: none
Setting up Verlet run ...
  Unit style    : metal
  Current step  : 0
  Time step     : 0.005
Per MPI rank memory allocation (min/avg/max) = 3.723 | 3.723 | 3.723 Mbytes
Step PotEng KinEng TotEng Temp Press Density c_msdall[4] 
       0       -307.8    33.194005   -274.60599         2400    19193.039    10.472245            0 
     100   -286.49784    24.199468   -262.29838    1749.6751    87381.248    10.472245   0.11858614 
     200   -276.95181    33.324868   -243.62695    2409.4617    120385.07    10.472245   0.15635474 
     300   -271.25801    37.929796   -233.32821    2742.4081    142765.28    10.472245   0.22366484 
     400   -274.99991    33.999574   -241.00034    2458.2444    129300.14    10.472245   0.19231922 
     500    -279.5604    33.713645   -245.84675    2437.5711    112212.23    10.472245   0.17764386 
     600   -275.02525    37.034966   -237.99029    2677.7099    130508.08    10.472245   0.19498214 
     700   -275.79255    38.079015   -237.71353     2753.197    127947.38    10.472245   0.19575617 
     800   -275.60886    30.495498   -245.11336     2204.892    124322.24    10.472245   0.19298742 
     900    -271.5333    35.551364   -235.98194    2570.4423    140663.92    10.472245    0.2518103 
    1000   -267.79471    31.689971   -236.10474     2291.255    148430.96    10.472245   0.32821449 
    1100   -271.11789    28.917923   -242.19997    2090.8298    137906.72    10.472245   0.21300575 
    1200   -274.67582    32.050941   -242.62488    2317.3539    127458.28    10.472245     0.195641 
    1300   -270.66593    36.432662   -234.23327     2634.162    142837.29    10.472245   0.18666018 
    1400   -275.51144    32.178424   -243.33302    2326.5712    127136.07    10.472245   0.24468989 
    1500   -267.84477    29.141137   -238.70363    2106.9687    143149.28    10.472245   0.26459907 
    1600    -266.3945    37.888565   -228.50594     2739.427    158820.11    10.472245   0.33208031 
    1700   -269.53984    34.150504   -235.38934     2469.157    144649.22    10.472245   0.36025687 
    1800   -270.40244    31.636077   -238.76636    2287.3584    143437.22    10.472245   0.27475652 
    1900   -275.97293    29.623545   -246.34939    2141.8478     122853.4    10.472245   0.22247661 
    2000   -275.54963    33.702728   -241.84691    2436.7818    126356.25    10.472245   0.18331636 
    2100   -268.57664      28.3709   -240.20574    2051.2788    142984.87    10.472245   0.24320194 
    2200   -275.01282     33.72226   -241.29056     2438.194    129511.37    10.472245   0.22471763 
    2300   -265.69017    32.039356   -233.65081    2316.5163    155776.24    10.472245   0.41885492 
    2400    -268.4357    43.091407   -225.34429     3115.604    154887.24    10.472245   0.34643948 
    2500   -269.07324    34.288539    -234.7847    2479.1372    147357.37    10.472245   0.37899552 
    2600    -271.9579    32.058522   -239.89938    2317.9021    137097.04    10.472245   0.31459566 
    2700    -273.8438    33.787645   -240.05615    2442.9215    131866.13    10.472245   0.18744098 
    2800   -273.79046    33.817706   -239.97275    2445.0949    131018.95    10.472245   0.20960375 
    2900   -273.19456    29.492048   -243.70251    2132.3403    131890.76    10.472245   0.23456721 
    3000   -272.70824    31.546454   -241.16179    2280.8784    131755.77    10.472245   0.19208067 
    3100   -269.53903    33.596403   -235.94263    2429.0943    144969.73    10.472245   0.21934126 
    3200   -277.68071    32.095522   -245.58519    2320.5772     119680.6    10.472245   0.16963157 
    3300   -273.09375    32.713764   -240.37998    2365.2775    133065.01    10.472245   0.20584846 
    3400   -271.15901    34.277635   -236.88137    2478.3489    138700.83    10.472245   0.26270023 
    3500   -278.16697    30.937958   -247.22901    2236.8828     115289.5    10.472245   0.20249121 
    3600   -275.11222    35.453425    -239.6588    2563.3611    127849.23    10.472245   0.21131268 
    3700   -273.63894    34.010238    -239.6287    2459.0154    132193.71    10.472245   0.21204421 
    3800   -276.22351    27.765592   -248.45792    2007.5137    120684.98    10.472245   0.18021946 
    3900   -273.66334    34.868059   -238.79529    2521.0378    132017.94    10.472245   0.19543209 
    4000   -273.69518    33.653442   -240.04174    2433.2183    131384.79    10.472245   0.21784563 
    4100   -281.32987    35.251404   -246.07847    2548.7545       107915    10.472245   0.17103848 
    4200   -273.22202    32.166628   -241.05539    2325.7183    130523.96    10.472245    0.2156987 
    4300   -271.39766    34.475702   -236.92195    2492.6695    138299.39    10.472245   0.25517526 
    4400   -276.83908    31.421918   -245.41716    2271.8742    120629.25    10.472245   0.18265739 
    4500     -270.392    28.410023   -241.98197    2054.1075    139153.28    10.472245   0.24569607 
    4600    -273.1637    33.860365   -239.30333    2448.1793    130706.07    10.472245   0.23154482 
    4700   -277.74928    32.336658   -245.41262    2338.0119    118798.35    10.472245   0.18444167 
    4800    -274.3062    29.220689   -245.08551    2112.7204    125678.27    10.472245   0.20629277 
    4900   -274.36542    36.660453   -237.70497    2650.6318    131916.53    10.472245   0.21938582 
    5000   -274.78069    35.639357   -239.14133    2576.8043    128835.51    10.472245   0.21773289 
    5100   -274.99598    30.092311   -244.90367    2175.7406    125928.03    10.472245   0.16244282 
    5200   -268.36896      31.7998   -236.56916    2299.1959    144955.34    10.472245   0.26462625 
    5300   -272.21832    33.325337   -238.89298    2409.4956    136221.79    10.472245   0.25223429 
    5400      -275.51    34.973942   -240.53606    2528.6933    123976.21    10.472245   0.17267743 
    5500   -272.69122    31.866433   -240.82479    2304.0136    133791.12    10.472245   0.27073463 
    5600   -274.75499    35.372716   -239.38227    2557.5256    132566.35    10.472245   0.23322876 
    5700   -273.23629     32.68225   -240.55404    2362.9989    133614.86    10.472245   0.17773552 
    5800   -279.48145    32.077106   -247.40434    2319.2457    112218.18    10.472245   0.18073727 
    5900   -271.21096    33.040938   -238.17002    2388.9329    138669.04    10.472245   0.22095121 
    6000   -273.95978    32.970552   -240.98923    2383.8439    133415.99    10.472245   0.27672145 
    6100   -273.58588    27.545649   -246.04023    1991.6114    129461.73    10.472245   0.29406758 
    6200   -274.84252    36.879249   -237.96327    2666.4513    131335.41    10.472245   0.20030981 
    6300   -273.51424    35.963305   -237.55094    2600.2265    134483.11    10.472245   0.20212775 
    6400   -272.95558    29.220466   -243.73511    2112.7043    130411.05    10.472245   0.27996707 
    6500   -272.40978    32.427242   -239.98254    2344.5614    133608.19    10.472245   0.24868156 
    6600   -271.32764    35.447015   -235.88062    2562.8976     138465.9    10.472245    0.2626322 
    6700   -275.04848     34.65198    -240.3965    2505.4148    127341.67    10.472245   0.20147651 
    6800   -277.82423    34.934205   -242.89003    2525.8203    116303.89    10.472245   0.19060547 
    6900   -273.94372    38.376933   -235.56678    2774.7372    134944.65    10.472245   0.20778681 
    7000   -275.05928    35.703191   -239.35609    2581.4197    127826.72    10.472245   0.19859246 
    7100   -277.04799    32.410906   -244.63709    2343.3802    120296.74    10.472245     0.207013 
    7200   -275.08428    33.393067   -241.69121    2414.3926    129459.66    10.472245   0.19465233 
    7300   -269.17988    32.818447   -236.36143    2372.8463    144522.43    10.472245   0.25159426 
    7400    -276.5988    31.447425   -245.15137    2273.7184    124293.35    10.472245    0.1724103 
    7500   -272.66981    32.698856   -239.97095    2364.1996    133821.29    10.472245   0.19069995 
    7600   -273.88655    32.972056    -240.9145    2383.9525    130432.34    10.472245   0.25530017 
    7700   -276.22187    35.997106   -240.22476    2602.6704    124636.56    10.472245   0.18001474 
    7800   -271.87443    32.712862   -239.16157    2365.2123    137655.28    10.472245   0.23698354 
    7900   -275.24817    33.068718   -242.17946    2390.9415    127575.95    10.472245   0.19750546 
    8000   -276.05633    31.291481   -244.76485    2262.4433    122888.96    10.472245   0.22221229 
    8100    -273.1247    37.818525   -235.30617     2734.363    132765.44    10.472245   0.23779843 
    8200   -276.04046    36.057976   -239.98248    2607.0714    124231.63    10.472245   0.20134277 
    8300   -276.11142    34.439004   -241.67242    2490.0162    125263.15    10.472245   0.17674933 
    8400   -275.00706    30.802916   -244.20415     2227.119    127167.33    10.472245   0.18104839 
    8500   -274.46038    34.362458   -240.09792    2484.4817    128745.47    10.472245   0.21795981 
    8600    -269.2033    32.319491   -236.88381    2336.7707    143970.89    10.472245      0.28326 
    8700   -278.31884     32.25971   -246.05913    2332.4484    118425.91    10.472245   0.16380525 
    8800   -272.31274    32.898894   -239.41385    2378.6628    137152.07    10.472245   0.23708951 
    8900   -272.48314    32.964522   -239.51862    2383.4078    134718.42    10.472245   0.22143685 
    9000   -273.42055    29.915452    -243.5051    2162.9534    129895.02    10.472245   0.23424626 
    9100   -279.92777    34.156474   -245.77129    2469.5886     110818.3    10.472245   0.15796371 
    9200   -271.62112    34.281796   -237.33933    2478.6497    136880.73    10.472245   0.28165297 
    9300   -275.97837    33.646044   -242.33233    2432.6834    121552.46    10.472245   0.20711331 
    9400   -272.65043    30.016388   -242.63404    2170.2512    132042.54    10.472245   0.23964259 
    9500   -274.17774    38.310272   -235.86747    2769.9174    132810.92    10.472245   0.22492396 
    9600   -276.27813    33.429596   -242.84854    2417.0337    124728.99    10.472245   0.23596398 
    9700   -276.46318    31.669181     -244.794    2289.7518    123533.45    10.472245   0.19099564 
    9800   -275.84216    36.082448   -239.75971    2608.8408    126087.59    10.472245   0.24835824 
    9900   -272.45831    38.738418    -233.7199    2800.8733    135044.68    10.472245   0.22674296 
   10000   -271.37433    33.419534    -237.9548    2416.3062    139116.99    10.472245   0.27131389 
   10100   -276.45852    34.405903   -242.05262    2487.6229    120408.44    10.472245    0.2224697 
   10200   -267.95221    31.479843   -236.47237    2276.0623    147975.09    10.472245   0.26559529 
   10300   -264.96147    30.231123   -234.73035     2185.777    155928.09    10.472245    0.2827178 
   10400   -272.91209    30.454539   -242.45755    2201.9306     130063.7    10.472245   0.22416628 
   10500   -269.49452    31.689833   -237.80469     2291.245    143465.44    10.472245   0.31798755 
   10600   -266.92826    35.865563    -231.0627    2593.1595    153073.14    10.472245   0.28412819 
   10700    -274.5133    34.325606   -240.18769    2481.8172    127470.03    10.472245   0.23532079 
   10800     -274.118    32.365155   -241.75284    2340.0723    128371.84    10.472245   0.23084841 
   10900   -270.33666    37.824779   -232.51188    2734.8152     145950.5    10.472245   0.21790711 
   11000   -275.78391    34.546679   -241.23723    2497.8013     121996.9    10.472245   0.17770754 
   11100   -273.64831    33.378661   -240.26965     2413.351    131133.19    10.472245   0.22684916 
   11200   -265.96987    29.076809   -236.89306    2102.3176    151494.08    10.472245   0.26484498 
   11300   -271.66686    28.090267    -243.5766    2030.9885     134554.3    10.472245   0.23044091 
   11400   -273.27763     31.13421   -242.14342    2251.0722    131166.62    10.472245   0.19581371 
   11500   -275.39615    39.731957   -235.66419    2872.7084    128059.97    10.472245   0.26106009 
   11600   -274.80159     31.87971   -242.92188    2304.9735    128564.11    10.472245   0.24041173 
   11700   -278.76162    26.381233   -252.38039    1907.4215    114071.36    10.472245   0.15570834 
   11800   -275.51027    31.697616   -243.81265    2291.8078    122153.37    10.472245   0.21523488 
   11900   -270.42009    32.939417   -237.48068    2381.5927    141125.85    10.472245   0.29520695 
   12000   -276.29728    35.465522   -240.83176    2564.2357    121587.33    10.472245   0.17818928 
   12100    -273.5924    28.378236   -245.21416    2051.8093    130319.52    10.472245   0.21419854 
   12200   -273.13276    36.308347   -236.82441    2625.1738    137027.01    10.472245   0.22528141 
   12300   -271.42097    31.166729   -240.25424    2253.4234    138020.91    10.472245   0.21722195 
   12400   -276.09515    34.054304   -242.04085    2462.2015    125699.43    10.472245   0.19834546 
   12500   -274.68643    34.043024   -240.64341    2461.3859    129338.05    10.472245   0.19252002 
   12600   -279.81359    37.604694   -242.20889    2718.9026     114560.7    10.472245   0.16617378 
   12700   -275.83548    31.355646   -244.47983    2267.0826    122661.43    10.472245   0.17874445 
   12800   -272.09023     34.99324   -237.09699    2530.0886    137607.12    10.472245   0.22660065 
   12900    -276.2717    32.972211   -243.29949    2383.9638    122792.72    10.472245   0.19812552 
   13000   -273.89472    31.005273   -242.88945    2241.7498    129489.67    10.472245   0.18321486 
   13100   -272.45157    33.429523   -239.02204    2417.0284    135040.05    10.472245   0.29375964 
   13200   -267.66236    40.738255    -226.9241    2945.4659    150507.22    10.472245   0.23747434 
   13300   -274.95676    36.419239   -238.53752    2633.1915    129129.66    10.472245   0.21726559 
   13400   -278.64066    36.253906   -242.38676    2621.2376    116165.75    10.472245   0.16395288 
   13500    -272.4276    31.557781   -240.86981    2281.6974    131410.48    10.472245   0.19880123 
   13600   -271.51208    37.329714   -234.18236    2699.0209    139938.18    10.472245   0.20953139 
   13700   -276.15664    31.510933   -244.64571    2278.3101    124667.59    10.472245   0.21239434 
   13800   -270.05732    29.402647   -240.65467    2125.8764    139337.18    10.472245   0.26641964 
   13900    -270.2913    35.892731   -234.39857    2595.1238    142623.34    10.472245   0.30620524 
   14000   -272.42298    32.650729   -239.77225    2360.7199    135709.84    10.472245   0.23444353 
   14100   -274.83808    31.083998   -243.75408    2247.4418     127598.6    10.472245   0.21301961 
   14200   -273.61484    34.671458   -238.94338    2506.8231    132549.22    10.472245   0.23485483 
   14300   -272.21236    33.897505   -238.31486    2450.8646    136495.69    10.472245   0.22737737 
   14400   -274.87944    30.233619   -244.64582    2185.9576    126516.61    10.472245   0.23035735 
   14500   -274.20076    33.163865   -241.03689    2397.8208    130053.15    10.472245   0.21222745 
   14600   -271.31371    30.752551   -240.56116    2223.4775    134774.38    10.472245   0.20582109 
   14700   -278.16593     33.96566   -244.20027    2455.7924    117545.94    10.472245   0.21178638 
   14800   -270.90719    34.117247   -236.78994    2466.7524    140283.99    10.472245   0.27009948 
   14900   -272.67342    34.230553   -238.44287    2474.9447    133430.36    10.472245   0.24673441 
   15000   -273.66219    28.650087   -245.01211    2071.4647    129892.56    10.472245   0.23545802 
   15100   -274.63186    36.334493   -238.29737    2627.0642    129858.46    10.472245   0.18133201 
   15200   -272.99776    25.893686   -247.10407    1872.1708    127255.68    10.472245   0.18338548 
   15300   -275.33038     31.96664   -243.36374    2311.2588    125314.02    10.472245   0.19848951 
   15400   -274.67575    35.723683   -238.95206    2582.9013    128902.83    10.472245   0.20616424 
   15500   -276.96302    31.256995   -245.70603    2259.9498    121571.82    10.472245   0.21605938 
   15600   -276.20838     30.10429   -246.10409    2176.6067     122115.6    10.472245   0.19895216 
   15700   -273.37089    33.583415   -239.78747    2428.1552     130640.7    10.472245   0.24255584 
   15800   -274.50335    34.083421   -240.41993    2464.3067    127817.08    10.472245   0.19403867 
   15900   -273.32561    25.104801    -248.2208    1815.1327    125605.82    10.472245   0.20880613 
   16000   -273.92385    32.735198   -241.18865    2366.8272    130392.34    10.472245   0.20240087 
   16100   -274.00403    34.854949   -239.14908    2520.0899     130471.7    10.472245   0.25057276 
   16200   -271.24197    34.573044   -236.66892    2499.7076    142886.59    10.472245   0.21856855 
   16300   -276.58808    32.279182   -244.30889    2333.8563    119364.36    10.472245   0.21265241 
   16400   -270.43836    30.269458   -240.16891    2188.5487    140429.43    10.472245    0.2543283 
   16500   -268.66855    32.168312   -236.50023    2325.8401    145859.16    10.472245   0.23310195 
   16600   -275.39087    32.484392   -242.90648    2348.6934    123416.59    10.472245   0.21109834 
   16700   -272.09751    34.469255   -237.62825    2492.2034    134706.48    10.472245   0.22291678 
   16800   -266.20014    34.414345    -231.7858    2488.2333    154228.19    10.472245   0.26201196 
   16900   -273.98689    34.117101   -239.86979    2466.7418    129661.92    10.472245   0.20726794 
   17000   -273.17862    29.121326   -244.05729    2105.5362    132780.84    10.472245   0.26181877 
   17100   -270.58482     36.40148   -234.18334    2631.9075    142395.57    10.472245   0.21668391 
   17200   -274.34159    35.323102   -239.01848    2553.9384    131449.06    10.472245    0.2263548 
   17300   -277.37936    28.322638   -249.05673    2047.7894    115388.96    10.472245   0.19421037 
   17400   -276.92108    28.938644   -247.98244     2092.328    117743.06    10.472245   0.15846004 
   17500   -274.95978    34.775265   -240.18451    2514.3286    127457.58    10.472245   0.19830206 
   17600   -270.44993     31.04683    -239.4031    2244.7545    141458.81    10.472245   0.23777122 
   17700   -275.71112    27.625632   -248.08549    1997.3943     123257.5    10.472245   0.21243516 
   17800    -274.4687     31.59435   -242.87435    2284.3414    127475.48    10.472245   0.28511452 
   17900   -271.34391    32.458983   -238.88492    2346.8562     135998.9    10.472245   0.28326959 
   18000    -267.6627    34.206394   -233.45631     2473.198    152583.39    10.472245   0.27664653 
   18100   -273.70792    31.790073   -241.91785    2298.4926     130356.6    10.472245   0.20967541 
   18200   -276.40607    33.351967    -243.0541     2411.421    123503.37    10.472245   0.15678656 
   18300   -269.64822    36.898315    -232.7499    2667.8298    142277.39    10.472245   0.27347055 
   18400    -274.5583    33.747851   -240.81045    2440.0442    128813.42    10.472245   0.19641624 
   18500   -274.93756    32.422237   -242.51533    2344.1995    126228.52    10.472245   0.25363829 
   18600   -269.94585    35.688217   -234.25763     2580.337    144730.53    10.472245   0.24339635 
   18700    -277.4552    34.532157   -242.92305    2496.7513    119644.35    10.472245   0.18817739 
   18800   -275.92578     33.16305   -242.76273    2397.7619       124078    10.472245   0.20505882 
   18900   -269.07571    32.839879   -236.23584    2374.3959     146095.7    10.472245   0.26265956 
   19000   -273.58112    28.223883   -245.35724    2040.6492    127113.35    10.472245   0.18941507 
   19100   -276.95371    33.125651   -243.82806    2395.0578    121086.98    10.472245   0.16509742 
   19200   -272.94594    35.327338    -237.6186    2554.2447    134889.27    10.472245   0.26223262 
   19300   -275.11976    34.853862    -240.2659    2520.0113    128989.99    10.472245   0.24101088 
   19400   -272.82978    32.212467   -240.61732    2329.0326    131722.84    10.472245   0.21687219 
   19500   -275.59573    35.875659   -239.72007    2593.8895    128715.83    10.472245   0.13382842 
   19600   -276.21483    29.682922    -246.5319    2146.1409     119586.3    10.472245   0.19251201 
   19700    -272.2266    32.230469   -239.99613    2330.3342    133776.71    10.472245   0.23585439 
   19800   -271.42893    33.591727   -237.83721    2428.7561    138138.54    10.472245   0.21182993 
   19900    -276.3235    31.769532   -244.55397    2297.0074    122562.33    10.472245   0.20085059 
   20000   -275.46675    34.345635   -241.12111    2483.2654    127338.73    10.472245   0.18997403 
   20100   -271.65028    37.481806   -234.16848    2710.0175    138324.39    10.472245   0.28578611 
   20200   -277.88431     34.86468   -243.01963    2520.7935    118539.47    10.472245   0.19205964 
   20300    -273.5931    29.967879   -243.62523    2166.7439    130158.78    10.472245   0.26526238 
   20400   -268.06941    30.367987   -237.70142    2195.6726    146442.07    10.472245   0.26575242 
   20500   -271.28116    33.047872   -238.23329    2389.4343    139051.02    10.472245   0.26049707 
   20600   -277.24119     30.49765   -246.74354    2205.0475    119344.43    10.472245   0.19607622 
   20700   -275.50747    31.994004   -243.51347    2313.2373    124546.57    10.472245   0.26714841 
   20800   -272.49563    32.814801   -239.68083    2372.5827    136395.27    10.472245   0.28439526 
   20900   -269.95493    33.598229    -236.3567    2429.2263     143281.4    10.472245   0.24724262 
   21000    -275.3412    31.102947   -244.23825    2248.8119    125289.75    10.472245   0.18415151 
   21100    -272.4163    32.103166   -240.31313    2321.1299     135195.3    10.472245   0.23837973 
   21200   -269.04788    31.895203   -237.15268    2306.0938     141327.3    10.472245   0.27108435 
   21300   -276.59023    32.731263   -243.85897    2366.5427    121699.35    10.472245   0.19173535 
   21400   -269.95133    35.421976   -234.52936    2561.0872    143366.03    10.472245   0.23597466 
   21500   -267.62256    28.787778   -238.83478      2081.42    146499.23    10.472245   0.22271938 
   21600   -275.61888    32.085753   -243.53313    2319.8709    125043.13    10.472245   0.21604078 
   21700   -268.28559     33.92942   -234.35617    2453.1721    146572.95    10.472245   0.31613877 
   21800   -272.29878    34.789286   -237.50949    2515.3423    135036.49    10.472245   0.24411742 
   21900   -274.11937    32.169636   -241.94973    2325.9359    128898.65    10.472245   0.18729296 
   22000   -273.07942    33.737029   -239.34239    2439.2618    132529.89    10.472245   0.23718128 
   22100   -271.40309    38.853579   -232.54951    2809.1997    140089.68    10.472245   0.27012528 
   22200   -271.76129    31.252511   -240.50878    2259.6257    136964.77    10.472245   0.20054205 
   22300   -273.40971    29.626985   -243.78272    2142.0966    132943.69    10.472245   0.20106553 
   22400   -276.68715    28.244889   -248.44226     2042.168    119896.43    10.472245   0.18858188 
   22500   -274.03929     34.67899    -239.3603    2507.3677    132729.32    10.472245   0.22071296 
   22600    -270.6728    31.954923   -238.71787    2310.4116    139852.07    10.472245    0.2449933 
   22700     -274.843    32.711937   -242.13106    2365.1454     126817.8    10.472245   0.17410536 
   22800    -275.4065    29.777358   -245.62914    2152.9689    124678.33    10.472245     0.190182 
   22900   -271.77829    35.401552   -236.37674    2559.6105    139679.26    10.472245   0.24025527 
   23000   -273.72052    32.081602   -241.63892    2319.5708    130520.47    10.472245   0.23276423 
   23100   -271.64328    34.703313   -236.93997    2509.1263    140005.72    10.472245   0.26490606 
   23200    -263.8806    31.595947   -232.28465    2284.4569    162243.59    10.472245   0.55004302 
   23300   -264.45797    36.749694   -227.70827    2657.0842    159805.08    10.472245   0.70780941 
   23400   -264.06423    32.768316   -231.29591    2369.2217    161914.62    10.472245     1.093312 
   23500   -266.33445    33.025172   -233.30928     2387.793    153539.82    10.472245     1.894085 
   23600    -256.6499    32.320476   -224.32943    2336.8419    179971.68    10.472245    3.1334125 
   23700    -262.1301    33.706035   -228.42406    2437.0209    167488.37    10.472245    4.1795076 
   23800   -263.76108    32.500692   -231.26039    2349.8719    161970.45    10.472245    5.4869636 
   23900   -257.26001    33.289149   -223.97086    2406.8791    182770.15    10.472245    6.4152046 
   24000   -260.82791      30.9338   -229.89411    2236.5821    166965.43    10.472245    8.2397795 
   24100   -263.37442    31.014997   -232.35942    2242.4529    160432.87    10.472245    8.9929322 
   24200   -258.42943    33.329056   -225.10037    2409.7645    175549.11    10.472245    9.1941062 
   24300    -262.4399    34.353105    -228.0868    2483.8055    168684.18    10.472245    10.159805 
   24400   -259.49995    32.262156    -227.2378    2332.6252    177484.94    10.472245    10.430416 
   24500   -257.36614    34.437104   -222.92904    2489.8788    183383.97    10.472245     11.93319 
   24600   -261.27384    32.445226   -228.82861    2345.8616    174383.38    10.472245    12.744822 
   24700   -257.76645    32.525994   -225.24046    2351.7013     178368.6    10.472245    13.032534 
   24800   -255.53584     35.64325    -219.8926    2577.0858     186051.6    10.472245     15.34776 
   24900   -259.42598    32.419883    -227.0061    2344.0292     178386.6    10.472245    17.482295 
   25000   -259.84085     35.12131   -224.71954    2539.3484    174839.83    10.472245    18.611111 
   25100   -261.87449    31.465357   -230.40913    2275.0149    169000.33    10.472245    20.049999 
   25200   -260.38681    33.660399   -226.72641    2433.7213    171577.87    10.472245     20.90355 
   25300   -261.60324    35.396898   -226.20634     2559.274    169082.08    10.472245    21.507195 
   25400   -263.36487    34.403229   -228.96164    2487.4296    164723.22    10.472245    21.977206 
   25500   -260.80109     32.40589    -228.3952    2343.0175    169188.34    10.472245    23.155862 
   25600   -262.68147    34.887195   -227.79428    2522.4213    163439.61    10.472245    23.989287 
   25700   -265.46429    31.442793    -234.0215    2273.3835    153862.87    10.472245     25.21684 
   25800   -264.14009    32.754457   -231.38563    2368.2197    159221.87    10.472245     25.77424 
   25900   -262.30284    36.211838     -226.091    2618.1959    170341.73    10.472245    27.351956 
   26000   -257.22121    31.113097   -226.10811    2249.5457    178123.09    10.472245    28.338622 
   26100   -264.68978    34.920282    -229.7695    2524.8136    163427.41    10.472245    29.697138 
   26200   -262.31051    33.898181   -228.41233    2450.9135    165662.37    10.472245    30.421762 
   26300   -259.31873    33.323509   -225.99522    2409.3634    179350.88    10.472245    32.105807 
   26400   -260.81849    30.603417   -230.21507    2212.6948    170600.02    10.472245    34.091276 
   26500   -257.65311     31.65379   -225.99932     2288.639    180806.79    10.472245    34.411476 
   26600   -259.01448    32.447613   -226.56687    2346.0342    178038.79    10.472245    35.442555 
   26700   -262.91833      31.5179   -231.40043    2278.8139    165749.11    10.472245    36.447547 
   26800   -258.01089    35.906524   -222.10437    2596.1211    181129.44    10.472245    38.284907 
   26900   -258.39799    31.845086    -226.5529    2302.4702    175296.53    10.472245    39.740147 
   27000   -259.41041    33.930629   -225.47978    2453.2595    174821.91    10.472245    40.737536 
   27100   -259.74843    36.157206   -223.59123     2614.246    177116.82    10.472245     43.14961 
   27200   -260.21075    30.082505   -230.12824    2175.0317    172798.96    10.472245    43.761247 
   27300   -262.07904    38.357181   -223.72186     2773.309    171249.94    10.472245    43.692714 
   27400   -263.15407    33.843268    -229.3108    2446.9431    163257.24    10.472245    45.117556 
   27500   -261.13065     30.87489   -230.25576    2232.3229    169329.49    10.472245     45.78248 
   27600   -259.66574    34.310472   -225.35526     2480.723    179629.14    10.472245    48.651727 
   27700   -262.70499    29.587017   -233.11798    2139.2067    163237.78    10.472245    49.727779 
   27800   -263.58128    30.684959   -232.89632    2218.5904    162241.66    10.472245     49.84674 
   27900   -260.40837    33.262315   -227.14605    2404.9389    173151.54    10.472245    50.174093 
   28000   -255.80349    36.006288    -219.7972    2603.3342    189774.96    10.472245    49.804039 
   28100   -258.86542    35.139661   -223.72576    2540.6753    178484.98    10.472245      49.5412 
   28200   -260.49127    28.970764    -231.5205    2094.6503    170693.52    10.472245    52.234608 
   28300   -261.37868    34.115648   -227.26303    2466.6368    169593.82    10.472245    52.585317 
   28400   -257.03902      32.7432   -224.29582    2367.4058    181797.12    10.472245    56.358574 
   28500   -262.00608     33.58202   -228.42406    2428.0543    171278.88    10.472245    57.052214 
   28600   -263.88558    32.589628   -231.29595    2356.3022    159095.83    10.472245    58.971141 
   28700   -263.23597    34.218816   -229.01716    2474.0961    169144.05    10.472245    60.487704 
   28800   -261.64154    34.183576   -227.45796    2471.5482     172698.5    10.472245    62.502263 
   28900   -265.40733    29.711886   -235.69544    2148.2351    159288.42    10.472245    61.847755 
   29000   -266.97467    38.851572    -228.1231    2809.0546    154545.39    10.472245    61.520574 
   29100   -262.55672    33.035267   -229.52145    2388.5229    165406.05    10.472245    61.692705 
   29200   -264.08551    32.908338   -231.17718    2379.3457    160646.05    10.472245    64.527131 
   29300   -260.44926    38.256004   -222.19326    2765.9937    173588.48    10.472245    63.799454 
   29400   -263.23361     33.88176   -229.35185    2449.7262       162736    10.472245    64.720882 
   29500   -263.29505    34.393158   -228.90189    2486.7014    163186.69    10.472245    64.928655 
   29600   -253.90432    33.295098   -220.60922    2407.3093    186398.95    10.472245     67.22209 
   29700   -258.03234    34.153678   -223.87866    2469.3865    175155.25    10.472245    68.991105 
   29800   -261.70498    33.890124   -227.81486    2450.3309    170342.78    10.472245    72.019473 
   29900    -259.7762    31.675614   -228.10059    2290.2169    176366.46    10.472245    73.164897 
   30000   -260.13177    36.963908   -223.16786    2672.5723    172467.16    10.472245     76.35566 
   30100     -260.936    30.039736   -230.89626    2171.9394     172540.8    10.472245    79.148154 
   30200   -261.72271    31.190597   -230.53211    2255.1491    169363.07    10.472245    79.484316 
   30300   -257.21406    31.156977   -226.05709    2252.7184    181832.62    10.472245    82.907344 
   30400   -262.18819    34.863078   -227.32511    2520.6776    170475.29    10.472245    84.939066 
   30500    -259.8591    28.193856   -231.66525    2038.4782    167806.36    10.472245    85.174829 
   30600   -258.68858    35.686839   -223.00174    2580.2374    176380.07    10.472245    87.380911 
   30700   -264.71149     34.29928   -230.41221    2479.9138    158514.65    10.472245    87.196507 
   30800   -264.60118    34.720635   -229.88055    2510.3787    158723.76    10.472245    88.942721 
   30900   -256.02726    33.298301   -222.72896    2407.5408    185878.54    10.472245    89.965819 
   31000   -259.46273    32.504395   -226.95834    2350.1396    177137.59    10.472245    89.678049 
   31100   -258.70201    33.254145   -225.44787    2404.3482    175781.11    10.472245    91.183307 
   31200   -259.38751    36.098838   -223.28867    2610.0259    175936.81    10.472245    91.831823 
   31300    -263.0153    34.299661   -228.71564    2479.9413    167763.62    10.472245    92.180087 
   31400   -264.17425    32.744398   -231.42985    2367.4924    161790.49    10.472245    92.335097 
   31500   -258.55227    32.530507   -226.02176    2352.0276    181077.34    10.472245    91.359681 
   31600   -256.83544    33.606512   -223.22893    2429.8252    186410.85    10.472245     89.66117 
   31700   -261.49356    28.728547   -232.76502    2077.1375    166398.28    10.472245    90.207395 
   31800   -259.73627    33.843321   -225.89295     2446.947    174647.67    10.472245     90.89517 
   31900   -257.30501    34.381236   -222.92378    2485.8394    182154.95    10.472245     92.67816 
   32000   -264.57872    32.763665   -231.81505    2368.8854    164993.75    10.472245    93.348397 
   32100   -258.55351    29.095018   -229.45849    2103.6342    176233.78    10.472245     92.84783 
   32200    -257.6413    30.279746   -227.36155    2189.2926    180727.22    10.472245    95.156405 
   32300   -257.56995     29.80239   -227.76756    2154.7787       180156    10.472245    96.227734 
   32400   -262.15501      31.6942   -230.46081    2291.5607    168808.63    10.472245    96.443518 
   32500   -260.92935    34.118152    -226.8112    2466.8179    173939.32    10.472245    97.224931 
   32600   -262.94867     31.99077    -230.9579    2313.0034    167852.45    10.472245      97.4213 
   32700   -265.92409    30.155754   -235.76833    2180.3277    153411.91    10.472245    96.979757 
   32800   -258.95311    33.127952   -225.82516    2395.2242    176450.59    10.472245    96.083806 
   32900   -261.51717    35.144505   -226.37266    2541.0254     170493.8    10.472245    94.957937 
   33000   -266.87054    32.029066   -234.84148    2315.7723    149803.39    10.472245    93.919643 
   33100   -263.41316    34.282163     -229.131    2478.6762    164072.98    10.472245    95.047166 
   33200   -263.31432    34.278578   -229.03574     2478.417    165009.35    10.472245    96.108517 
   33300   -264.99637    28.334202   -236.66216    2048.6255    156848.08    10.472245     97.13801 
   33400   -257.81336    28.709837   -229.10353    2075.7847     176142.8    10.472245    96.990938 
   33500   -261.01326     36.06547   -224.94779    2607.6133    170712.24    10.472245    98.718951 
   33600    -263.0974    30.457925   -232.63947    2202.1753    161694.76    10.472245    99.983037 
   33700   -261.00411    33.429416    -227.5747    2417.0207    172091.12    10.472245    100.42803 
   33800   -259.01642    34.756336   -224.26008    2512.9599    178819.98    10.472245    101.62986 
   33900   -261.28207    30.445257   -230.83682    2201.2594    165997.83    10.472245    101.72195 
   34000   -256.34296    35.076672   -221.26629    2536.1209    184722.04    10.472245    101.89852 
   34100    -261.4855    34.247606    -227.2379    2476.1776    171111.06    10.472245    103.22349 
   34200   -259.87551    28.421613    -231.4539    2054.9455    169613.91    10.472245    105.19412 
   34300   -258.56774    35.244996   -223.32275    2548.2911    177051.32    10.472245    105.52234 
   34400   -261.43652    38.213549   -223.22297    2762.9241    171910.98    10.472245    106.79769 
   34500   -260.48932    30.869245   -229.62007    2231.9147    173137.18    10.472245    108.13343 
   34600    -261.7524    38.660485   -223.09191    2795.2386    173502.04    10.472245    110.10203 
   34700   -262.58006    30.827246   -231.75282    2228.8781    165459.32    10.472245    112.41697 
   34800   -262.42886    35.240838   -227.18802    2547.9905    167628.01    10.472245    113.79953 
   34900   -258.86024    33.206031   -225.65421    2400.8695    178869.86    10.472245    117.57585 
   35000    -266.0785    30.120667   -235.95783    2177.7908    154954.06    10.472245    118.57877 
   35100    -266.5584    34.388744   -232.16966    2486.3823    156467.43    10.472245    118.97142 
   35200   -256.51193    30.965773   -225.54615    2238.8939    184595.08    10.472245    118.93373 
   35300   -267.08795    34.893274   -232.19467    2522.8609    155135.41    10.472245    120.06665 
   35400    -266.7848     33.76505   -233.01975    2441.2878    154347.02    10.472245    121.41773 
   35500   -263.61373    36.148308   -227.46542    2613.6027    164440.64    10.472245    122.91207 
   35600   -259.32541    33.780103   -225.54531    2442.3761    174117.23    10.472245    122.02372 
   35700   -258.49121    38.150801    -220.3404    2758.3873    182764.18    10.472245    123.30591 
   35800   -261.92146    32.769586   -229.15188    2369.3135    169049.62    10.472245     122.3231 
   35900   -264.33407    31.701121   -232.63295    2292.0612    160646.19    10.472245     124.5625 
   36000   -266.83431    29.955434   -236.87888    2165.8441    150421.79    10.472245    126.09813 
   36100   -259.02988    32.535503   -226.49438    2352.3889    176015.79    10.472245    123.99613 
   36200   -264.96271    38.364775   -226.59794    2773.8581    160430.42    10.472245    126.56278 
   36300    -263.5712    31.580069   -231.99113    2283.3089    163613.97    10.472245    126.18615 
   36400   -261.38931    32.789576   -228.59973    2370.7589    167114.17    10.472245    126.44227 
   36500   -259.15441    32.550555   -226.60385    2353.4772    177131.95    10.472245    126.85562 
   36600    -262.2956    31.766972   -230.52863    2296.8223    161652.75    10.472245     129.1439 
   36700   -265.66988    32.960709   -232.70917    2383.1322    158751.35    10.472245    131.01208 
   36800   -261.29177     36.44656   -224.84521    2635.1669    169356.09    10.472245    131.37641 
   36900   -261.25652    32.502171   -228.75435    2349.9788    169856.36    10.472245    136.07039 
   37000   -263.46801    27.320183   -236.14783    1975.3097    161465.94    10.472245    136.37676 
   37100   -264.05234    34.839826   -229.21252    2518.9965    160573.47    10.472245    138.02201 
   37200   -260.63392    34.509411   -226.12451    2495.1067    173472.27    10.472245     138.1262 
   37300   -262.00415    30.858824   -231.14532    2231.1612    168078.56    10.472245    140.60963 
   37400   -263.82498    29.064247   -234.76073    2101.4094     162031.5    10.472245    142.93912 
   37500    -258.2403    33.192337   -225.04796    2399.8794    179699.48    10.472245    141.36209 
   37600   -260.05188    31.296641   -228.75524    2262.8164    173837.32    10.472245    143.09472 
   37700   -264.15722    28.442132   -235.71509     2056.429    162523.77    10.472245    142.74348 
   37800   -259.58154    34.040693   -225.54085    2461.2174    171976.11    10.472245    143.29607 
   37900   -262.36602    30.735784   -231.63023    2222.2652    166197.81    10.472245    144.94874 
   38000   -260.45946    30.238415   -230.22105    2186.3043    174218.86    10.472245     144.2947 
   38100   -257.70727    33.441061   -224.26621    2417.8627    179867.21    10.472245    146.22503 
   38200   -264.65857    34.171048   -230.48752    2470.6424    157735.13    10.472245    148.08132 
   38300    -264.1169    33.580806   -230.53609    2427.9666     161313.1    10.472245     147.8687 
   38400   -254.80168    31.209192   -223.59248    2256.4936    189932.57    10.472245    148.05632 
   38500   -259.54139    32.648599    -226.8928    2360.5659    178605.13    10.472245    148.68082 
   38600   -261.06741    31.976168   -229.09124    2311.9477    168031.51    10.472245    149.49563 
   38700   -259.30377    33.828289   -225.47548    2445.8601    173686.74    10.472245    148.23562 
   38800   -259.92198    29.763296   -230.15869    2151.9521    169558.63    10.472245    151.17046 
   38900   -263.94906    35.970303   -227.97876    2600.7325    166224.18    10.472245    152.78371 
   39000   -259.98642    35.959364   -224.02706    2599.9415    173137.27    10.472245    151.95472 
   39100   -263.41024    33.034748   -230.37549    2388.4853    163945.67    10.472245     153.4966 
   39200   -260.25634    34.672927   -225.58341    2506.9293    172226.82    10.472245    154.80067 
   39300   -259.85672     44.65503   -215.20169    3228.6574    181610.29    10.472245    155.87397 
   39400   -259.77404    30.545796   -229.22824    2208.5286    174518.28    10.472245    155.64226 
   39500   -260.63741    27.782549   -232.85486    2008.7397    168265.74    10.472245    157.31312 
   39600   -259.82095    35.180363   -224.64058    2543.6181     173596.4    10.472245     158.7282 
   39700   -262.38139    34.962202   -227.41919    2527.8446     167030.1    10.472245    159.50973 
   39800     -257.864    27.046763   -230.81723    1955.5408    179155.46    10.472245     163.5395 
   39900   -260.09302    34.826968   -225.26606    2518.0668    174801.68    10.472245    162.66612 
   40000   -262.33783    37.424157   -224.91367    2705.8493    169467.55    10.472245    160.76483 
   40100    -262.8805    32.486422   -230.39408    2348.8402    164888.62    10.472245    162.93554 
   40200   -256.66593    31.899804   -224.76612    2306.4264    181295.88    10.472245    162.78529 
   40300   -260.83319    35.798848   -225.03435    2588.3359    173000.45    10.472245    164.80896 
   40400   -265.74102    35.449396   -230.29162    2563.0697    160996.52    10.472245    169.43716 
   40500   -257.60523    33.329318   -224.27592    2409.7834     182726.6    10.472245    171.17079 
   40600   -262.41155    31.511247    -230.9003    2278.3329    164832.92    10.472245    176.64726 
   40700   -260.00302    29.553514   -230.44951    2136.7844    171861.65    10.472245     180.5679 
   40800    -257.8347    33.092129   -224.74257    2392.6341     179726.5    10.472245    180.20207 
   40900   -262.67452    30.151881   -232.52264    2180.0477    165381.45    10.472245    180.74107 
   41000   -260.31081    33.852903   -226.45791    2447.6398    171431.76    10.472245    179.22044 
   41100     -260.828    33.929336   -226.89866     2453.166    174692.63    10.472245    181.99308 
   41200   -258.97098    27.177787   -231.79319    1965.0141    180077.74    10.472245    179.50169 
   41300   -256.08334    33.897418   -222.18592    2450.8583    189273.08    10.472245    179.60842 
   41400   -258.79532    32.139166   -226.65615    2323.7328    176446.94    10.472245    181.98877 
   41500    -264.8322    35.398177   -229.43402    2559.3665    158692.75    10.472245    184.04464 
   41600   -263.87383    28.739041   -235.13479    2077.8962    158615.47    10.472245    183.18324 
   41700    -265.8183    38.825263   -226.99304    2807.1524    160073.85    10.472245    183.12769 
   41800   -260.37903    32.440108   -227.93892    2345.4916    172489.63    10.472245    186.85659 
   41900   -263.23571    32.100576   -231.13514    2320.9426    163219.86    10.472245    189.23366 
   42000    -260.8563    37.362683   -223.49361    2701.4046    174557.75    10.472245    192.18878 
   42100    -259.2591     30.79108   -228.46802    2226.2632    177004.01    10.472245    191.53077 
   42200   -263.72848    32.231372   -231.49711    2330.3995    163642.23    10.472245    191.35187 
   42300   -258.52908     34.95457   -223.57451    2527.2927    180165.43    10.472245    193.20938 
   42400   -261.72836    32.961066    -228.7673     2383.158    171109.39    10.472245    192.08769 
   42500   -262.47279    33.216404   -229.25639    2401.6194    166150.61    10.472245    192.90046 
   42600   -255.33119    32.724193   -222.60699    2366.0316    188666.58    10.472245    192.60472 
   42700   -260.31923    30.570894   -229.74833    2210.3432     170842.4    10.472245    193.05876 
   42800   -260.46178    36.964094   -223.49769    2672.5857    175514.16    10.472245    194.04644 
   42900   -255.80689    30.406612   -225.40028    2198.4653    184276.91    10.472245    194.50871 
   43000   -261.28169    33.019755   -228.26194    2387.4013    171629.19    10.472245    196.92332 
   43100   -256.10621    37.749801   -218.35641    2729.3941    184214.05    10.472245    199.23917 
   43200   -258.02516    32.759541   -225.26562    2368.5872    183725.26    10.472245    200.21096 
   43300   -262.30213    33.442926    -228.8592    2417.9976    166831.68    10.472245    203.44292 
   43400   -262.15941    32.243604   -229.91581    2331.2839    167700.17    10.472245    205.09821 
   43500   -257.41642    32.728952   -224.68746    2366.3756    183965.45    10.472245    206.32311 
   43600   -257.56736    32.665955   -224.90141    2361.8208    179950.23    10.472245    208.02629 
   43700   -260.74006     29.11232   -231.62774    2104.8851    170715.56    10.472245    206.26249 
   43800   -258.91402    34.133037   -224.78099    2467.8941    177263.01    10.472245    207.02958 
   43900   -265.62924    33.455139    -232.1741    2418.8806    153107.52    10.472245    208.55293 
   44000   -265.54358    33.461358   -232.08222    2419.3302    159331.61    10.472245    208.72347 
   44100    -257.1307    31.906973   -225.22373    2306.9447    183788.82    10.472245    213.57414 
   44200   -262.49301    33.153775   -229.33924    2397.0913    165861.52    10.472245    213.19645 
   44300   -261.64737    32.405503   -229.24187    2342.9896    167571.26    10.472245    213.47324 
   44400   -258.77583    33.745537   -225.03029    2439.8769    178559.57    10.472245    214.84199 
   44500    -266.9361    32.518119   -234.41798     2351.132    154086.86    10.472245    217.14765 
   44600   -264.33433     34.47357   -229.86076    2492.5154    162555.42    10.472245     215.8004 
   44700   -257.02441    27.943766   -229.08065    2020.3961    180501.98    10.472245    218.36697 
   44800   -261.64964    33.232954   -228.41668    2402.8161    169176.86    10.472245    219.13314 
   44900   -262.06311    31.596673   -230.46643    2284.5093     165094.9    10.472245    218.47868 
   45000   -261.22223    36.355102   -224.86713    2628.5543    170203.03    10.472245    219.14428 
   45100   -257.50499    34.053021   -223.45197    2462.1088    181268.33    10.472245    218.41994 
   45200   -262.47077    29.326157   -233.14462     2120.346    162311.59    10.472245    218.95239 
   45300   -260.28074    31.354097   -228.92665    2266.9705    170986.64    10.472245    219.20087 
   45400   -259.68934    34.771466   -224.91787    2514.0539    175885.06    10.472245    220.09539 
   45500   -262.18947    34.189552   -227.99992    2471.9803    169065.82    10.472245    215.51741 
   45600   -264.45043    27.436021   -237.01441     1983.685    159533.25    10.472245    217.40266 
   45700   -260.77857    31.598113   -229.18045    2284.6135    171132.81    10.472245    215.22878 
   45800   -261.28548    36.394517   -224.89097    2631.4041    172346.42    10.472245    219.27616 
   45900   -260.72875    29.494213   -231.23454    2132.4969    169060.73    10.472245     219.7521 
   46000     -259.105    28.777279   -230.32772     2080.661    169293.87    10.472245    220.90541 
   46100   -259.97955    37.049584   -222.92996    2678.7669     175056.3    10.472245    221.99773 
   46200   -262.02264    33.727221   -228.29541    2438.5527     171348.3    10.472245    222.94251 
   46300   -262.11818    32.392258   -229.72592    2342.0319    163566.08    10.472245    221.38463 
   46400   -257.21274     34.26907   -222.94367    2477.7296    183410.99    10.472245    219.22493 
   46500   -261.99027    30.436842   -231.55343     2200.651    167466.06    10.472245    220.92929 
   46600   -263.11488    33.480205   -229.63468    2420.6929     166309.5    10.472245    222.75731 
   46700   -253.18822     35.31672    -217.8715     2553.477    195096.42    10.472245    226.74126 
   46800    -253.5126    30.346583   -223.16602    2194.1251    190654.82    10.472245    229.79792 
   46900    -260.1288    31.918557   -228.21025    2307.7823    177931.61    10.472245     230.6628 
   47000   -259.30695    31.402656    -227.9043    2270.4815    175083.77    10.472245    231.07104 
   47100   -260.82021    35.068767   -225.75144    2535.5494    173050.66    10.472245    230.72702 
   47200   -266.88016    33.495269   -233.38489     2421.782    154298.34    10.472245    232.16557 
   47300   -255.36174    30.530047   -224.83169    2207.3899    186214.92    10.472245    232.15627 
   47400   -260.38596    37.478103   -222.90785    2709.7498    176803.39    10.472245    242.10482 
   47500   -261.65345    30.741212   -230.91224    2222.6576    170198.59    10.472245    238.46044 
   47600   -258.14829    32.252986   -225.89531    2331.9622    179892.09    10.472245    241.50975 
   47700    -260.8061    36.499482   -224.30662    2638.9933    173839.38    10.472245    244.58566 
   47800    -263.8981    31.078819   -232.81928    2247.0674    160937.48    10.472245      249.788 
   47900   -261.53908      31.2782   -230.26088     2261.483    166472.01    10.472245    253.00966 
   48000   -264.61201    37.701516   -226.91049     2725.903    163525.05    10.472245     254.9123 
   48100   -262.22093    30.643579   -231.57735    2215.5985    165381.24    10.472245    254.22603 
   48200   -260.71193    27.556617   -233.15532    1992.4044    170487.59    10.472245    254.08481 
   48300   -257.08691    33.115822   -223.97109    2394.3471     186678.6    10.472245     254.5279 
   48400   -260.97347    34.767026   -226.20645    2513.7328    171393.77    10.472245    255.98357 
   48500   -264.37924     32.56343   -231.81581     2354.408    162276.22    10.472245    254.71812 
   48600   -256.62426    30.307397   -226.31687    2191.2919    180723.92    10.472245    257.39885 
   48700   -259.13416    35.433879   -223.70028    2561.9478    180495.94    10.472245    258.72175 
   48800   -263.25457    31.830658   -231.42391     2301.427    164453.96    10.472245    257.36753 
   48900   -262.37727    32.544722   -229.83255    2353.0554    164800.85    10.472245    263.62308 
   49000    -261.0365    36.164862   -224.87164    2614.7995    172211.91    10.472245    266.03825 
   49100   -262.23698    32.898133   -229.33884    2378.6078     167751.6    10.472245    263.99448 
   49200   -261.76129    32.569043   -229.19224    2354.8139    168483.91    10.472245    267.34708 
   49300   -260.22219    39.186226   -221.03596    2833.2508    177073.36    10.472245    263.41108 
   49400   -259.72728    31.102581    -228.6247    2248.7854     176693.7    10.472245    263.73731 
   49500   -261.71892    32.869876   -228.84904    2376.5648    167209.54    10.472245     268.3048 
   49600   -261.06214      36.7721   -224.29004    2658.7042    173313.63    10.472245    270.81707 
   49700   -259.00513    37.808312   -221.19682    2733.6246    177168.19    10.472245    273.50003 
   49800   -260.75346    29.813433   -230.94003    2155.5772    171729.81    10.472245    274.17664 
   49900   -260.88801    35.128208    -225.7598    2539.8471    170404.38    10.472245    278.27259 
   50000   -257.37932    34.532596   -222.84673    2496.7831     178839.1    10.472245    278.46158 
   50100   -259.60327    32.336772    -227.2665    2338.0201    173386.21    10.472245    277.89192 
   50200   -264.12194    32.485642    -231.6363    2348.7838    163825.95    10.472245    278.56194 
   50300   -255.19283    33.666691   -221.52614    2434.1762    189279.82    10.472245    279.52388 
   50400   -258.82974    30.918681   -227.91106    2235.4891    177868.09    10.472245    283.72511 
   50500   -261.22689    31.751232   -229.47566    2295.6843    168358.91    10.472245    284.20101 
   50600   -256.64056     35.14626    -221.4943    2541.1523    185567.64    10.472245    281.54764 
   50700   -254.55784    32.847659   -221.71018    2374.9584    186945.77    10.472245     288.2908 
   50800   -264.49875    34.251363   -230.24738    2476.4493    158096.09    10.472245    288.55379 
   50900   -262.27923     32.61739   -229.66184    2358.3094    164138.97    10.472245    288.84907 
   51000   -264.25767    40.132711   -224.12496    2901.6838    165528.02    10.472245    292.25655 
   51100   -261.88448    32.122165   -229.76231    2322.5036    168001.02    10.472245    292.16134 
   51200   -261.52007    34.612556   -226.90752    2502.5644     171016.3    10.472245    293.92313 
   51300   -252.76191    34.815345   -217.94657    2517.2264    199684.04    10.472245    292.97562 
   51400   -259.07047    31.476425   -227.59405    2275.8151     177379.3    10.472245    295.06049 
   51500   -264.65842    36.766513   -227.89191    2658.3002     166849.9    10.472245    294.93277 
   51600   -262.50754    33.551218   -228.95632    2425.8273    167313.57    10.472245    297.12216 
   51700   -263.06959     31.30963   -231.75996    2263.7555    164985.15    10.472245    296.25633 
   51800   -260.35555    33.054449   -227.30111    2389.9098    171539.02    10.472245    291.58087 
   51900    -262.7879     34.33406   -228.45384    2482.4285    163949.92    10.472245    294.40844 
   52000   -264.93043    29.086516   -235.84391    2103.0195    155795.39    10.472245    293.22804 
   52100   -262.59127    34.855547   -227.73573    2520.1331    165168.11    10.472245    293.55865 
   52200   -260.46092    34.641839   -225.81908    2504.6816     174631.5    10.472245    299.26759 
   52300   -263.70452    32.004204   -231.70032    2313.9747    161668.57    10.472245    298.71779 
   52400     -257.482    31.674457   -225.80754    2290.1333    181128.28    10.472245    301.17216 
   52500   -260.86312    33.525469   -227.33765    2423.9655    173438.24    10.472245    304.24794 
   52600   -264.38067    31.035899   -233.34477    2243.9641    154900.65    10.472245    306.44855 
   52700   -257.05455    32.779025   -224.27553     2369.996    180983.49    10.472245    307.96138 
   52800   -257.70296    31.366923   -226.33604    2267.8979    182163.97    10.472245    312.26869 
   52900   -261.63709    29.954791    -231.6823    2165.7976    169154.95    10.472245    309.81361 
   53000   -262.40582    34.491926   -227.91389    2493.8425    171092.95    10.472245    310.05847 
   53100    -262.2736     37.93126   -224.34234     2742.514    167191.05    10.472245    312.46183 
   53200   -256.27477    34.062728   -222.21204    2462.8106    184035.46    10.472245    315.86345 
   53300   -261.54812    30.276549   -231.27157    2189.0615    170432.01    10.472245    313.70947 
   53400   -262.05331    34.473289   -227.58002     2492.495    165930.01    10.472245    311.68659 
   53500   -257.42884    39.071189   -218.35765    2824.9334     180031.4    10.472245    311.60773 
   53600   -264.63953    35.381223    -229.2583    2558.1407    159773.11    10.472245     312.8832 
   53700   -260.78879    30.770545   -230.01824    2224.7785    170043.54    10.472245    312.15276 
   53800   -257.60604    33.325446   -224.28059    2409.5035    181688.96    10.472245    313.92968 
   53900   -264.83824    35.814647   -229.02359    2589.4782    161006.13    10.472245     315.5339 
   54000   -262.76718    34.272419   -228.49476    2477.9717    163641.86    10.472245    313.93795 
   54100   -258.01183    37.814135   -220.19769    2734.0456    180896.53    10.472245     315.7984 
   54200   -256.60814    32.711998   -223.89614    2365.1498    184674.89    10.472245     319.2802 
   54300   -258.35973    29.805835    -228.5539    2155.0278    178603.72    10.472245    324.11698 
   54400   -261.36829    31.989679   -229.37861    2312.9246    169472.19    10.472245    322.54277 
   54500   -256.76383     36.01721   -220.74662     2604.124    183575.29    10.472245    321.83857 
   54600   -256.18172    31.819303   -224.36242     2300.606    184733.92    10.472245    318.78911 
   54700   -261.74679    31.029322   -230.71746    2243.4886    165856.54    10.472245    318.53976 
   54800   -258.55271    34.073641   -224.47907    2463.5996    180440.52    10.472245    316.84434 
   54900   -259.46135    33.009035   -226.45232    2386.6262    174150.68    10.472245    318.42655 
   55000   -262.56126    30.011602   -232.54966    2169.9052     164965.2    10.472245    324.33253 
   55100   -257.75599    33.675945   -224.08005    2434.8453    183112.77    10.472245    326.48087 
   55200   -256.03703    28.791781   -227.24524    2081.7095    185000.58    10.472245    329.49115 
   55300   -264.50365    31.030223   -233.47342    2243.5538    158758.61    10.472245    328.89408 
   55400   -264.27649    28.946653   -235.32984     2092.907    161148.51    10.472245    327.86902 
   55500   -259.73808    31.309868   -228.42821    2263.7727    170967.61    10.472245    329.39082 
   55600   -263.61454    35.199241    -228.4153     2544.983    162622.41    10.472245    333.87814 
   55700   -267.92831    33.336738   -234.59157    2410.3199    148957.15    10.472245     335.1512 
   55800   -263.76826    39.628836   -224.13943    2865.2525    167327.08    10.472245    332.83176 
   55900    -257.2936    29.436238   -227.85736    2128.3051    181809.52    10.472245    331.44838 
   56000   -261.35627    35.330433   -226.02584    2554.4684     172298.6    10.472245    332.27377 
   56100   -262.52151    36.679809    -225.8417    2652.0313    170291.94    10.472245    334.28205 
   56200   -262.39133    30.064629    -232.3267    2173.7392    163728.92    10.472245     334.0824 
   56300   -256.87581     34.22026   -222.65555    2474.2005    182287.58    10.472245      335.261 
   56400   -262.54857    35.017357   -227.53122    2531.8323    167419.33    10.472245     335.1724 
   56500   -262.74559    32.198754   -230.54684    2328.0411     164077.4    10.472245    333.48742 
   56600   -255.31176    36.474008   -218.83775    2637.1515    186837.66    10.472245    334.98135 
   56700   -259.65719    32.659157   -226.99803    2361.3293    173875.96    10.472245    339.96468 
   56800   -263.81975    36.349866   -227.46988    2628.1757    165487.97    10.472245    340.40743 
   56900   -258.21817    35.903851   -222.31432    2595.9278    180252.72    10.472245    339.57907 
   57000   -262.46589    32.063444   -230.40244    2318.2579    168151.08    10.472245    341.76498 
   57100   -261.92093    29.891526    -232.0294    2161.2234    167566.65    10.472245    342.94554 
   57200    -256.4729    33.433726   -223.03918    2417.3323     188381.2    10.472245    341.81157 
   57300   -260.72359    31.743714   -228.97987    2295.1408    173815.42    10.472245    345.19454 
   57400   -258.92174    29.033219   -229.88852     2099.166    174295.77    10.472245    349.71153 
   57500   -259.52731    36.254083   -223.27323    2621.2504    177645.64    10.472245    348.31749 
   57600   -262.68754    32.429705   -230.25784    2344.7394    163799.41    10.472245    348.84356 
   57700   -261.29868    31.999599   -229.29908    2313.6418    166754.25    10.472245    349.25198 
   57800   -255.03688    33.708406   -221.32848    2437.1923     187509.3    10.472245    350.10441 
   57900   -261.00783    32.124398   -228.88344     2322.665    170623.85    10.472245    350.23364 
   58000   -261.32306    32.682109   -228.64095    2362.9888    168874.24    10.472245    350.66645 
   58100    -267.4605    30.417913   -237.04259    2199.2824    150807.68    10.472245    353.20324 
   58200   -264.63924    34.961897   -229.67735    2527.8225    159708.17    10.472245    349.16501 
   58300   -260.84871    33.644497   -227.20421    2432.5716    174172.06    10.472245    350.59225 
   58400   -258.28382    37.793361   -220.49046    2732.5436    181404.46    10.472245    349.82888 
   58500   -262.54602    32.519025     -230.027    2351.1974    165167.68    10.472245    349.43375 
   58600   -261.43628    32.400802   -229.03547    2342.6497    170635.01    10.472245    350.38741 
   58700   -255.82385    34.245514   -221.57834    2476.0264    187890.37    10.472245    346.91117 
   58800   -259.48663    30.819509   -228.66712    2228.3187    175457.94    10.472245    343.40558 
   58900   -261.02846    32.836507   -228.19195    2374.1521    171693.71    10.472245    343.35442 
   59000   -260.29018    33.354977    -226.9352    2411.6386    170433.08    10.472245    348.49023 
   59100   -260.64015    40.696005   -219.94414    2942.4111    179772.53    10.472245    350.56279 
   59200   -261.90871    33.091059   -228.81765    2392.5568    168495.82    10.472245    354.12223 
   59300   -261.03053    34.775733   -226.25479    2514.3624    177337.15    10.472245    357.42451 
   59400   -257.94905    39.247522   -218.70153    2837.6827    183498.49    10.472245    362.40122 
   59500    -255.8624    32.742465   -223.11994    2367.3526     186261.9    10.472245    362.12612 
   59600   -262.39215    33.859995   -228.53216    2448.1526    165425.25    10.472245     360.5236 
   59700    -264.4365    35.257119   -229.17938    2549.1677     162921.9    10.472245    359.67539 
   59800   -265.64059    36.398195    -229.2424      2631.67    160935.72    10.472245    364.04881 
   59900   -261.43117    33.711799   -227.71937    2437.4376    169483.08    10.472245    365.82616 
   60000   -262.59051    40.222697   -222.36782      2908.19    173678.19    10.472245    364.25225 
   60100   -262.37508    30.424502   -231.95058    2199.7588    166701.14    10.472245    365.33898 
   60200   -264.18046    36.383445   -227.79701    2630.6035    159138.17    10.472245    365.90134 
   60300   -254.95498     38.37749   -216.57749    2774.7774    191346.23    10.472245    364.08087 
   60400   -261.06784    37.489725   -223.57811      2710.59    175647.15    10.472245    364.79278 
   60500   -258.31462    28.903115   -229.41151    2089.7591    176131.97    10.472245    366.51344 
   60600   -259.96213    36.450165   -223.51197    2635.4275    173635.13    10.472245    368.55453 
   60700   -258.94818     33.18282   -225.76536    2399.1913    178870.51    10.472245    371.68998 
   60800   -264.95695    36.348836   -228.60811    2628.1012    160076.94    10.472245    374.35878 
   60900   -259.08289    36.347985    -222.7349    2628.0397    178561.39    10.472245    372.54842 
   61000   -256.07012    37.400997   -218.66912    2704.1748    188219.79    10.472245    377.17004 
   61100   -258.52221    29.466043   -229.05617    2130.4601    177187.46    10.472245    379.47419 
   61200    -259.4739      35.8645    -223.6094    2593.0827    181217.52    10.472245    381.89943 
   61300   -258.30693    30.990877   -227.31605     2240.709    174974.21    10.472245    386.49969 
   61400   -261.18725    32.178349    -229.0089    2326.5658    169520.44    10.472245     387.5852 
   61500   -261.94843    36.141793   -225.80664    2613.1316    171197.32    10.472245    383.56111 
   61600   -262.26727    27.788517   -234.47875    2009.1712     161611.8    10.472245    380.17426 
   61700   -259.14941    30.020211    -229.1292    2170.5276    166963.16    10.472245    380.98835 
   61800   -262.10212     37.16362    -224.9385    2687.0119    171946.48    10.472245    383.11964 
   61900   -264.37784    30.599143   -233.77869    2212.3858    158740.03    10.472245    390.70685 
   62000   -261.85614    33.747581   -228.10855    2440.0248    167650.99    10.472245    395.54582 
   62100   -262.16543    35.681313   -226.48411    2579.8379    164709.19    10.472245    399.06321 
   62200    -264.9487    29.907711   -235.04098    2162.3937    159083.24    10.472245    402.22642 
   62300   -261.42812    32.029163   -229.39896    2315.7793    170221.06    10.472245     403.9282 
   62400   -260.60816    33.116946   -227.49121    2394.4284    169451.14    10.472245    404.20948 
   62500   -264.22332    33.881081   -230.34224    2449.6771    163124.11    10.472245    407.57955 
   62600   -262.32026    30.451795   -231.86846    2201.7321    164326.45    10.472245    406.82395 
   62700   -258.14491    33.874722   -224.27019    2449.2174    181133.38    10.472245    412.71366 
   62800   -258.99676    33.237619   -225.75914    2403.1534    176036.21    10.472245    405.91263 
   62900   -261.54849    29.784049   -231.76444    2153.4526    166282.19    10.472245    404.89137 
   63000   -257.68689    36.420457   -221.26643    2633.2796    185923.55    10.472245    405.76423 
   63100   -258.88192    33.484524   -225.39739    2421.0051    178707.39    10.472245    403.48008 
   63200   -261.49792    32.940237   -228.55768     2381.652    170814.44    10.472245    406.14998 
   63300   -259.97964    27.364534   -232.61511    1978.5163    168833.61    10.472245    406.41016 
   63400   -259.06373    33.579842   -225.48388    2427.8969    178486.77    10.472245    406.84344 
   63500   -256.05215    30.961564   -225.09059    2238.5896    187114.91    10.472245    405.33744 
   63600   -261.98567    30.382114   -231.60356     2196.694    168286.24    10.472245    405.88964 
   63700   -259.37236    30.037694   -229.33467    2171.7917     173508.6    10.472245    400.77037 
   63800   -257.73149    34.983984   -222.74751    2529.4194    181388.66    10.472245    399.53142 
   63900   -262.26125    30.715313   -231.54593    2220.7851    164667.82    10.472245     399.4522 
   64000   -259.75903    30.191443   -229.56759    2182.9081    172471.79    10.472245    399.58403 
   64100   -261.84827    37.232123   -224.61615    2691.9649     173510.4    10.472245    404.57353 
   64200    -264.2782    29.701695   -234.57651    2147.4982     159460.5    10.472245     404.7842 
   64300    -259.9954    33.369382   -226.62602    2412.6801    172692.47    10.472245    412.33069 
   64400   -254.19645    31.739965   -222.45649    2294.8696     189208.9    10.472245    412.75242 
   64500    -255.1913    31.576683   -223.61461     2283.064    186213.35    10.472245    414.80256 
   64600    -264.5749    34.421764   -230.15314    2488.7697    161077.37    10.472245    412.31911 
   64700   -258.61975    34.908988   -223.71076     2523.997    178217.38    10.472245    410.30531 
   64800   -262.37794     40.51719   -221.86075    2929.4825    172281.62    10.472245    413.93106 
   64900   -259.35771    31.613338   -227.74437    2285.7142    173606.44    10.472245    413.51199 
   65000   -261.74702    32.543275   -229.20374    2352.9508    167861.02    10.472245    411.09555 
   65100   -266.45866    31.114538   -235.34412    2249.6499    157741.22    10.472245    411.80597 
   65200   -260.91339     34.13041   -226.78298    2467.7041    171881.63    10.472245    412.56861 
   65300   -261.27442    34.248153   -227.02627    2476.2172    168718.53    10.472245    417.81707 
   65400   -257.36778    31.677083    -225.6907    2290.3232    181190.16    10.472245    417.49174 
   65500   -255.38474    30.241441    -225.1433    2186.5231    187526.06    10.472245    418.92558 
   65600   -264.65927    33.114766    -231.5445    2394.2708    157260.11    10.472245    417.62546 
   65700   -257.79324    37.036797   -220.75644    2677.8423    186578.51    10.472245    419.22057 
   65800   -262.01975    33.781416   -228.23834    2442.4711     171790.3    10.472245    417.15007 
   65900   -265.46096    35.669171   -229.79179    2578.9599    160084.26    10.472245    414.48893 
   66000   -256.57285    36.374798   -220.19805    2629.9784    188529.79    10.472245    415.25972 
   66100   -260.14084    31.488787   -228.65205    2276.7089    174177.74    10.472245    418.11379 
   66200   -262.84938    34.189414   -228.65997    2471.9703    166564.91    10.472245    420.16792 
   66300   -258.53437    36.860588   -221.67379     2665.102    178883.76    10.472245    425.39966 
   66400   -262.48625    32.562919   -229.92333    2354.3711    166726.85    10.472245    427.93097 
   66500   -259.99146    31.629877   -228.36158    2286.9101     175970.6    10.472245    425.26709 
   66600   -260.08393    35.837293   -224.24663    2591.1155    179254.15    10.472245    428.01984 
   66700   -257.57555    29.296575   -228.27897    2118.2072    176718.08    10.472245    430.00819 
   66800   -267.29673    32.882994   -234.41374    2377.5132    151355.21    10.472245    429.79417 
   66900   -261.34291    28.144795   -233.19811    2034.9309    168365.02    10.472245    429.50539 
   67000   -261.83303    34.835375   -226.99766    2518.6747    167902.01    10.472245    431.48424 
   67100   -256.17799    31.581052   -224.59694    2283.3799    183479.97    10.472245    434.67358 
   67200   -261.71831    30.356987   -231.36132    2194.8773    163437.03    10.472245      433.471 
   67300    -260.6549    32.508813   -228.14609    2350.4591    172310.09    10.472245    435.24815 
   67400   -253.78574    33.908856   -219.87689    2451.6853     194457.3    10.472245    440.50826 
   67500   -265.06331    33.450565   -231.61275    2418.5499    160528.08    10.472245    440.52481 
   67600   -260.45862    32.212867   -228.24575    2329.0615    175350.48    10.472245    438.45576 
   67700   -263.12218    34.793837   -228.32834    2515.6714    163173.02    10.472245    444.88571 
   67800   -263.98475    29.541064   -234.44369    2135.8843    160716.62    10.472245    446.30298 
   67900   -261.11736    34.204332   -226.91303    2473.0489    173261.26    10.472245     444.5061 
   68000   -259.91103    35.604982   -224.30605     2574.319    175598.74    10.472245    446.54601 
   68100   -254.38638     34.55635   -219.83003    2498.5005    190660.81    10.472245    444.35105 
   68200   -263.38623    33.852082   -229.53415    2447.5804    163544.69    10.472245    449.13306 
   68300   -262.66303    31.963623   -230.69941    2311.0406    165689.82    10.472245    447.07166 
   68400   -255.56742    34.258244   -221.30917    2476.9468    187852.52    10.472245    446.38682 
   68500    -262.3872    33.347641   -229.03956    2411.1082    167506.92    10.472245    449.79918 
   68600   -260.50242    34.422494   -226.07993    2488.8224    174969.91    10.472245    452.23039 
   68700   -263.88569    33.439602   -230.44609    2417.7572    160938.12    10.472245     451.8091 
   68800   -262.11217    30.683331   -231.42884    2218.4727    169117.06    10.472245    452.75209 
   68900   -259.35724    35.000915   -224.35632    2530.6435     177171.4    10.472245    454.53707 
   69000   -260.80782    31.402032   -229.40579    2270.4364    167937.02    10.472245    460.25157 
   69100    -264.7622    33.852532   -230.90967     2447.613    158085.06    10.472245     459.9631 
   69200   -262.63352    34.461065   -228.17245    2491.6112     167422.4    10.472245    461.50377 
   69300   -262.52671    41.435414    -221.0913    2995.8721    172273.07    10.472245    460.32145 
   69400   -260.86344    33.250092   -227.61335    2404.0552    173000.99    10.472245    457.10734 
   69500   -260.38009    31.149344   -229.23074    2252.1665    172273.46    10.472245    458.25246 
   69600   -256.77784    38.188032   -218.58981    2761.0792    186026.15    10.472245    462.71063 
   69700    -258.1928    32.885344   -225.30746    2377.6831    177389.72    10.472245     462.0029 
   69800   -258.34789    31.503665   -226.84423    2277.7847    172507.49    10.472245    463.89292 
   69900   -252.78929    34.732909   -218.05638    2511.2661    196941.59    10.472245    462.77465 
   70000   -260.14226    31.532312   -228.60995    2279.8559    173404.26    10.472245    461.93567 
   70100   -263.15647    35.168066    -227.9884     2542.729    166863.39    10.472245    466.05719 
   70200   -260.94543    33.189698   -227.75573    2399.6886     169307.4    10.472245    469.65413 
   70300   -256.98152     33.82976   -223.15176    2445.9665    183185.54    10.472245    473.76008 
   70400   -263.48009    30.676339   -232.80375    2217.9671    159407.11    10.472245    477.11447 
   70500   -261.95447    32.319805   -229.63467    2336.7934     169448.5    10.472245    477.52137 
   70600   -259.76995    32.634867   -227.13508     2359.573    174160.23    10.472245      479.464 
   70700   -261.61781    34.349254   -227.26855    2483.5271     169924.6    10.472245    478.85226 
   70800    -267.8773    34.664586   -233.21271    2506.3262    152476.62    10.472245    480.91704 
   70900   -259.54142    35.108903   -224.43251    2538.4513    175860.43    10.472245    485.87345 
   71000    -264.8043    34.600349   -230.20395    2501.6818       161180    10.472245    485.57995 
   71100   -261.06525    37.296738   -223.76852    2696.6367    173168.81    10.472245    487.28451 
   71200   -259.97953    34.830298   -225.14923    2518.3076    174703.28    10.472245    490.92002 
   71300   -262.40472    31.239018    -231.1657    2258.6501     164843.4    10.472245    491.51044 
   71400   -257.07308    31.895827   -225.17725    2306.1389    182144.94    10.472245    494.57055 
   71500   -264.94923    34.886952   -230.06227    2522.4038    165033.87    10.472245    491.63417 
   71600   -260.82695    29.335838   -231.49111     2121.046    169768.78    10.472245    491.98289 
   71700    -259.7513    34.434706   -225.31659    2489.7054    175916.35    10.472245    487.68694 
   71800   -259.33515    33.734006   -225.60115    2439.0433    174734.55    10.472245    480.73941 
   71900   -259.69412    35.923317   -223.77081    2597.3353    183262.42    10.472245    481.54793 
   72000   -267.03598     36.05081   -230.98517    2606.5533    158479.39    10.472245    484.96039 
   72100   -253.17795    31.156621   -222.02133    2252.6926    194252.05    10.472245    485.73495 
   72200   -260.92447    34.846821   -226.07765    2519.5022    168931.45    10.472245     482.8464 
   72300   -260.36556     31.85308   -228.51248    2303.0481    174687.21    10.472245    487.66886 
   72400   -261.31482    34.748376   -226.56644    2512.3844     171909.7    10.472245    487.15588 
   72500   -261.33244    30.985344   -230.34709    2240.3089    167260.14    10.472245    489.73467 
   72600   -266.75457    34.603325   -232.15125    2501.8969    154263.97    10.472245     494.3018 
   72700   -263.67332    37.129032   -226.54428    2684.5111     167887.6    10.472245     495.1129 
   72800   -264.38118    38.580354   -225.80083    2789.4449    160751.08    10.472245    493.32638 
   72900   -263.44261    30.635836   -232.80677    2215.0387    166246.46    10.472245    490.18044 
   73000   -261.88996    32.127249   -229.76272    2322.8711    166838.58    10.472245    491.49918 
   73100   -260.99064    35.929232   -225.06141     2597.763    173030.67    10.472245    496.87233 
   73200    -263.3087    31.384968   -231.92373    2269.2026    164331.12    10.472245    494.46871 
   73300   -263.24657    33.220063   -230.02651     2401.884    167407.67    10.472245    495.80682 
   73400   -263.70703    36.035025     -227.672     2605.412    164314.36    10.472245    496.88416 
   73500   -266.84254    33.365118   -233.47742    2412.3718    151345.95    10.472245    498.32848 
   73600   -268.23798    32.946286   -235.29169    2382.0893    146759.29    10.472245    494.27638 
   73700   -260.56609     31.20652   -229.35957    2256.3004    168120.85    10.472245    495.46474 
   73800   -255.37225    32.840932   -222.53132     2374.472    188642.54    10.472245    497.41946 
   73900    -259.8849    31.397309    -228.4876    2270.0949    175906.12    10.472245    500.83042 
   74000   -260.87352    30.839394   -230.03413    2229.7564    168633.23    10.472245    503.70651 
   74100   -260.70483    33.898344   -226.80649    2450.9253    172786.27    10.472245    505.97399 
   74200   -259.41848    31.042227   -228.37626    2244.4216    176169.74    10.472245    505.51136 
   74300   -258.64301     32.29731    -226.3457     2335.167    173387.23    10.472245    504.82621 
   74400   -257.79792     33.41248   -224.38544    2415.7962    182157.95    10.472245    504.77521 
   74500   -262.26371    29.966246   -232.29747    2166.6259    165253.32    10.472245    509.71566 
   74600   -260.51027    37.872589   -222.63768     2738.272    178691.36    10.472245    507.91691 
   74700   -261.23586    35.247464    -225.9884    2548.4696    171268.67    10.472245    506.68389 
   74800   -265.06163    34.873192   -230.18843    2521.4089    160970.01    10.472245    508.72773 
   74900   -261.33119    41.344693    -219.9865    2989.3127    175658.33    10.472245    507.47808 
   75000   -259.97415    35.383655    -224.5905    2558.3165    178183.78    10.472245     516.1298 
   75100   -260.51389    30.246728   -230.26716    2186.9054    168367.72    10.472245    519.02356 
   75200   -265.51958    28.431237   -237.08834    2055.6414    157189.39    10.472245    517.12157 
   75300   -261.60551    31.729865   -229.87564    2294.1394    169609.87    10.472245    515.69374 
   75400    -259.3831     33.44037   -225.94273    2417.8127    181390.04    10.472245    517.19224 
   75500   -262.31771    38.670578   -223.64713    2795.9683    167404.13    10.472245    519.05712 
   75600   -263.94812    32.055833   -231.89228    2317.7077    162814.48    10.472245    523.00743 
   75700   -257.92888    31.215509   -226.71337    2256.9503    182732.57    10.472245    527.12635 
   75800   -260.24133    36.101663   -224.13967    2610.2301    175968.09    10.472245    528.41314 
   75900   -264.63096    33.008753   -231.62221    2386.6058    161978.16    10.472245      531.845 
   76000   -260.62358    31.649324   -228.97426    2288.3161    171575.95    10.472245    534.43232 
   76100   -258.21339    32.992534   -225.22086    2385.4332    182230.77    10.472245    530.30187 
   76200   -265.13512    31.161211   -233.97391    2253.0245    158443.03    10.472245    525.93592 
   76300   -264.54659     33.14416   -231.40243    2396.3961       162551    10.472245    527.68734 
   76400   -264.09048    35.566919   -228.52356    2571.5669    163291.63    10.472245      529.786 
   76500   -266.81377    29.993946   -236.81982    2168.6286    150909.89    10.472245      531.413 
   76600   -261.62227    32.400021   -229.22225    2342.5932    166871.22    10.472245     532.5612 
   76700   -260.43599    31.863971   -228.57202    2303.8356    169714.63    10.472245     537.2228 
   76800   -264.73608    33.854311   -230.88177    2447.7416    160654.93    10.472245    535.49994 
   76900   -264.39031    37.371193   -227.01912    2702.0199    162738.06    10.472245    534.00957 
   77000    -258.9267    34.298467   -224.62823     2479.855    177021.06    10.472245    532.05815 
   77100   -260.71745    29.833104   -230.88434    2156.9994    170940.74    10.472245    532.95808 
   77200   -259.28393    31.481902   -227.80202    2276.2111    173697.69    10.472245    536.62216 
   77300   -256.98238    34.530848   -222.45153    2496.6567    186348.03    10.472245    532.11458 
   77400   -265.29121    37.342668   -227.94854    2699.9575     160531.6    10.472245    534.61257 
   77500   -264.93705    34.541124   -230.39592    2497.3997    157272.81    10.472245    534.66654 
   77600   -255.67537    34.913818   -220.76155    2524.3463    187056.02    10.472245    536.20906 
   77700   -257.03316    32.134445   -224.89871    2323.3915    179204.33    10.472245    537.84636 
   77800   -265.69782    36.819147   -228.87867    2662.1057    162110.53    10.472245    534.89361 
   77900   -262.56495    28.810397   -233.75455    2083.0555    163679.21    10.472245     534.5592 
   78000   -261.62895     31.85949   -229.76946    2303.5116    168266.34    10.472245    536.58639 
[...]
  481400    -260.2974    39.717732   -220.57967    2871.6798    177099.96    10.472245    4369.3005 
  481500     -255.794    32.134642   -223.65935    2323.4057    185076.53    10.472245    4360.8153 
  481600   -260.45172    30.398676   -230.05304    2197.8915    171895.82    10.472245    4373.0484 
  481700   -259.04131    33.107997   -225.93331    2393.7814    179083.17    10.472245    4379.8857 
  481800   -261.89673    37.799563   -224.09716     2732.992    174702.95    10.472245    4385.8427 
  481900   -263.76206    31.732695   -232.02937     2294.344    163084.17    10.472245    4395.5237 
  482000   -257.40146    30.678946   -226.72251    2218.1557    176057.45    10.472245    4403.6054 
  482100   -258.88451    37.055679   -221.82883    2679.2076    183228.71    10.472245    4403.9981 
  482200   -262.71458    31.130221   -231.58436    2250.7838    166021.52    10.472245    4410.8997 
  482300    -263.2007    30.992126   -232.20857    2240.7993    160775.17    10.472245    4423.2607 
  482400   -259.95378    35.782725   -224.17105    2587.1701    174023.25    10.472245    4415.1589 
  482500   -261.42002    32.251233   -229.16879    2331.8355    171198.93    10.472245     4415.975 
  482600   -264.03646    34.212023   -229.82444    2473.6049    164595.63    10.472245    4420.0979 
  482700   -262.33733     32.97359   -229.36374    2384.0635    166376.25    10.472245    4427.3123 
  482800   -265.08568    33.875454   -231.21022    2449.2702    159800.07    10.472245    4432.6812 
  482900   -264.03082    38.168092   -225.86272    2759.6375    168261.04    10.472245    4424.8939 
  483000   -262.57341    31.986525   -230.58688    2312.6965    169534.37    10.472245    4420.4814 
  483100   -263.77815    31.216957    -232.5612     2257.055    162055.28    10.472245    4406.9692 
  483200   -262.01207    35.608568    -226.4035    2574.5782    171265.07    10.472245    4397.3376 
  483300   -261.53965    30.289123   -231.25053    2189.9706    162503.66    10.472245    4396.0731 
  483400   -262.76508    30.886535   -231.87855    2233.1648    162263.16    10.472245    4392.8143 
  483500   -258.31928    32.161022   -226.15826    2325.3131    181800.84    10.472245    4394.8342 
  483600   -264.10814    32.806844    -231.3013    2372.0074    159960.44    10.472245    4398.2522 
  483700   -262.08384    27.909543   -234.17429    2017.9217    166199.22    10.472245    4393.8996 
  483800   -261.12017    37.068627   -224.05154    2680.1438    169808.77    10.472245     4386.761 
  483900   -261.22695    32.365147    -228.8618    2340.0717    171727.74    10.472245    4394.1096 
  484000    -263.6988    31.530177   -232.16862    2279.7015    161383.64    10.472245    4390.8479 
  484100   -258.18873    34.139521    -224.0492    2468.3629    178642.54    10.472245    4392.4909 
  484200   -261.22102    29.366448   -231.85458    2123.2591    168997.76    10.472245    4393.3607 
  484300   -263.32387     35.18972   -228.13415    2544.2946    166999.37    10.472245    4385.9194 
  484400   -259.70759    32.837731   -226.86986    2374.2406    176895.27    10.472245    4391.9324 
  484500   -261.18965    30.058611   -231.13104    2173.3041    166291.83    10.472245    4405.0638 
  484600    -258.3126    32.900192   -225.41241    2378.7567     171022.3    10.472245    4404.1852 
  484700   -261.72057    36.040688   -225.67988    2605.8214    171096.95    10.472245    4398.7386 
  484800   -261.59464    31.327888   -230.26675    2265.0756    167048.22    10.472245    4393.1276 
  484900   -259.33507    32.448407   -226.88666    2346.0916       172899    10.472245    4385.0978 
  485000   -257.55749    35.434717   -222.12277    2562.0084    182733.85    10.472245    4388.9867 
  485100   -261.25255    31.449129   -229.80342    2273.8416    168427.32    10.472245    4400.6477 
  485200   -260.90133    34.516621   -226.38471     2495.628    170129.14    10.472245    4416.2396 
  485300   -257.60863    39.745575   -217.86306     2873.693    182827.96    10.472245     4403.528 
  485400   -262.74542    34.390781   -228.35464    2486.5296    167433.45    10.472245    4406.9484 
  485500   -263.42842     32.00864   -231.41978    2314.2955    161901.67    10.472245    4404.0596 
  485600   -260.63115    36.190675   -224.44047    2616.6658    178551.62    10.472245    4410.2688 
  485700   -255.51783    29.708461   -225.80937    2147.9875    185506.53    10.472245    4402.4192 
  485800   -259.14586    36.823025   -222.32284    2662.3861    180993.92    10.472245    4407.8385 
  485900   -262.21537    32.148446   -230.06693    2324.4037    165677.18    10.472245    4418.1876 
  486000   -263.98257    36.390935   -227.59163    2631.1451    161867.75    10.472245    4420.5473 
  486100   -256.87652    37.036658   -219.83986    2677.8323    189660.69    10.472245    4417.9291 
  486200   -256.62831    28.897997   -227.73031    2089.3891    183647.93    10.472245    4426.4125 
  486300   -259.74813    34.004728    -225.7434    2458.6171    172980.82    10.472245    4441.9325 
  486400   -263.95788    29.290997   -234.66688    2117.8039    158868.95    10.472245    4440.2758 
  486500   -261.20904    33.312769   -227.89627    2408.5869    169420.49    10.472245    4443.4096 
  486600   -264.22914    34.429547   -229.79959    2489.3324    160923.67    10.472245    4436.4523 
  486700   -264.72402    30.527284   -234.19674    2207.1901    155586.31    10.472245    4441.7679 
  486800   -256.50635    30.290977   -226.21538    2190.1046    180452.98    10.472245    4429.6756 
  486900   -261.02881    30.175423   -230.85338    2181.7499    170263.91    10.472245    4451.6471 
  487000   -264.24457    27.410129   -236.83444     1981.813    156370.59    10.472245    4444.6473 
  487100   -260.98013    34.717016   -226.26311     2510.117    173933.21    10.472245     4434.495 
  487200   -262.19523     33.59636   -228.59887    2429.0911    167476.78    10.472245     4444.047 
  487300   -266.39616    32.211496   -234.18467    2328.9624     152757.8    10.472245     4440.562 
  487400   -261.89355    32.038761   -229.85479    2316.4733    170594.23    10.472245    4438.2709 
  487500   -260.16687    34.787157   -225.37971    2515.1884       172778    10.472245     4428.578 
  487600    -263.6356    31.397656   -232.23795      2270.12    164270.19    10.472245    4438.1665 
  487700    -256.8641    34.993033   -221.87107    2530.0737    185727.27    10.472245    4440.3966 
  487800   -258.60841    33.246869   -225.36154    2403.8222    173815.86    10.472245    4449.8231 
  487900   -260.71768    30.151936   -230.56575    2180.0516    168366.36    10.472245    4445.4804 
  488000   -262.44336    34.582076   -227.86128    2500.3606    165954.11    10.472245    4444.8864 
  488100    -258.2056    30.133091   -228.07251    2178.6891    172169.65    10.472245    4436.7029 
  488200   -258.67322    32.873686   -225.79954    2376.8402    177681.95    10.472245    4456.0167 
  488300   -260.23679    35.828056   -224.40873    2590.4477    178523.18    10.472245    4471.2305 
  488400   -261.89713    30.875178   -231.02195    2232.3437     169069.4    10.472245    4472.7127 
  488500   -261.03413    36.039427    -224.9947    2605.7303    171369.83    10.472245    4460.0675 
  488600   -262.83252    35.833538   -226.99898     2590.844    164801.32    10.472245    4467.8261 
  488700   -259.21354     27.36372   -231.84982    1978.4575    173457.33    10.472245    4466.2508 
  488800   -259.45216    36.859435   -222.59273    2665.0187    174322.88    10.472245    4473.5985 
  488900   -263.44954    34.825714   -228.62383    2517.9761    165795.64    10.472245     4469.918 
  489000    -258.2652     30.39032   -227.87488    2197.2873    175863.77    10.472245    4472.9649 
  489100   -257.59848    34.235801   -223.36268    2475.3241    181873.65    10.472245    4472.6519 
  489200    -262.5884    30.854466   -231.73393    2230.8462    167395.77    10.472245    4488.6858 
  489300   -260.12973    33.004832    -227.1249    2386.3223    173797.34    10.472245    4491.1817 
  489400   -264.13135    33.893427   -230.23792    2450.5697    161503.59    10.472245    4486.1867 
  489500   -263.93925    30.667074   -233.27217    2217.2973    161772.67    10.472245     4469.283 
  489600   -258.52069    34.407613   -224.11307    2487.7465    177722.09    10.472245    4478.2236 
  489700   -257.66568    28.731481    -228.9342    2077.3496    179107.76    10.472245    4476.3511 
  489800   -260.67087    27.897747   -232.77312    2017.0688     168719.3    10.472245    4485.0247 
  489900   -259.60729    37.131927   -222.47536    2684.7204    178483.05    10.472245    4478.5558 
  490000   -259.67485    31.714554    -227.9603    2293.0324    176511.18    10.472245    4475.0718 
  490100   -262.91282    33.935617   -228.97721    2453.6202    165768.99    10.472245    4479.8816 
  490200   -257.73919    32.745145   -224.99404    2367.5464    174709.52    10.472245    4481.3676 
  490300   -263.11806    32.985364   -230.13269    2384.9147    161516.97    10.472245    4483.4105 
  490400   -258.17926    32.535487   -225.64377    2352.3877    178896.73    10.472245    4457.9903 
  490500   -261.01964    33.225014   -227.79462     2402.242    167984.81    10.472245    4449.1273 
  490600   -261.07711    30.511283   -230.56583    2206.0333    170577.02    10.472245    4456.6052 
  490700   -257.15343    33.168474   -223.98496     2398.154    178922.27    10.472245    4457.7757 
  490800   -265.19757    33.763078   -231.43449    2441.1452    160520.11    10.472245    4451.0322 
  490900   -261.00938    30.873913   -230.13546    2232.2522    173195.15    10.472245    4450.3239 
  491000   -257.37673    32.437035    -224.9397    2345.2694    179861.26    10.472245    4458.9488 
  491100   -259.21397    30.523126   -228.69085    2206.8895    176787.59    10.472245    4464.8992 
  491200   -261.28973     33.35025   -227.93948    2411.2968    170575.55    10.472245    4452.4976 
  491300   -258.73529     30.29866   -228.43663    2190.6601     177574.5    10.472245    4453.3835 
  491400   -262.06054    35.430447   -226.63009    2561.6997    169869.97    10.472245    4450.5553 
  491500   -265.74345    35.553074   -230.19038    2570.5659    161009.28    10.472245    4448.9892 
  491600   -260.23671    29.310501   -230.92621     2119.214    170065.47    10.472245    4448.4574 
  491700   -258.88603    33.346028   -225.54001    2410.9916    178888.91    10.472245     4448.831 
  491800   -263.32355    32.349372   -230.97418    2338.9311    165251.73    10.472245    4445.2178 
  491900   -257.01177    32.801198   -224.21057    2371.5992    181478.75    10.472245    4455.0051 
  492000   -257.35641    32.022328   -225.33408    2315.2851    180114.68    10.472245    4456.7159 
  492100   -265.68376    35.539838   -230.14392    2569.6089    155155.29    10.472245    4460.0893 
  492200   -259.93436    31.187365   -228.74699    2254.9155     174139.9    10.472245    4482.6361 
  492300   -261.42504    34.288451   -227.13659    2479.1308    167656.02    10.472245    4488.4436 
  492400   -258.61811    34.730449   -223.88766    2511.0883    176334.92    10.472245    4478.4072 
  492500   -257.67004     27.89485   -229.77519    2016.8594    174106.43    10.472245    4493.9489 
  492600   -259.55575    30.246242    -229.3095    2186.8702    173621.74    10.472245    4477.9965 
  492700   -260.59946    37.713966   -222.88549    2726.8031    175976.48    10.472245    4472.9786 
  492800   -262.13396    32.200003   -229.93396    2328.1315    166932.44    10.472245    4479.9396 
  492900   -258.97554    30.652806   -228.32273    2216.2657       175708    10.472245    4478.8337 
  493000   -259.96661    39.705188   -220.26142    2870.7729    173247.29    10.472245    4475.5186 
  493100    -257.8074    31.033407     -226.774     2243.784    177604.22    10.472245    4477.7171 
  493200   -261.58344    31.369472   -230.21397    2268.0822    171681.72    10.472245     4470.221 
  493300   -257.71272    32.624307   -225.08842    2358.8096    178825.28    10.472245    4467.2883 
  493400   -258.22068    32.321278    -225.8994    2336.8999    177582.89    10.472245    4468.3509 
  493500   -264.07672    33.989254   -230.08747    2457.4983    159760.77    10.472245    4466.5281 
  493600   -259.04317    34.111505   -224.93166    2466.3373       173289    10.472245    4459.4861 
  493700   -259.66333     30.61943    -229.0439    2213.8525    171751.84    10.472245    4475.9937 
  493800   -262.54424    29.124732    -233.4195    2105.7826    164174.21    10.472245     4468.996 
  493900   -258.79362    34.152721    -224.6409    2469.3172    175415.36    10.472245    4467.6478 
  494000   -257.90912    33.245428   -224.66369     2403.718     180770.1    10.472245    4472.8654 
  494100   -263.87963    34.945681   -228.93395      2526.65    166203.32    10.472245    4478.9582 
  494200   -261.29559     32.79535   -228.50024    2371.1763    173159.29    10.472245    4482.8281 
  494300   -258.51525     37.45494   -221.06031     2708.075     183090.2    10.472245    4481.6448 
  494400   -261.03853    29.837819   -231.20071    2157.3403    169681.74    10.472245     4495.992 
  494500   -263.22411     33.87431    -229.3498    2449.1875    165843.82    10.472245    4512.0686 
  494600   -254.53389    30.258009   -224.27588     2187.721    188459.48    10.472245    4512.1242 
  494700   -264.55467    32.518432   -232.03623    2351.1545    159816.16    10.472245     4525.571 
  494800   -263.11616    32.993451   -230.12271    2385.4995    164519.48    10.472245    4508.2452 
  494900   -261.09564    34.089407   -227.00623    2464.7395    173128.26    10.472245     4516.829 
  495000   -262.68514    30.591446   -232.09369    2211.8292    165966.75    10.472245    4520.5425 
  495100   -264.02481    29.493767   -234.53104    2132.4646    159640.23    10.472245    4519.3229 
  495200   -259.89465    32.046378   -227.84828     2317.024    176804.12    10.472245    4503.6215 
  495300   -260.67763    31.515283   -229.16235    2278.6247    171979.05    10.472245    4505.9743 
  495400   -259.82409    31.983251   -227.84084    2312.4598    172152.98    10.472245    4505.5752 
  495500   -261.48368    35.653639   -225.83004     2577.837    170205.14    10.472245    4493.3706 
  495600   -262.60325    30.317818   -232.28543    2192.0453    164753.62    10.472245    4495.4361 
  495700   -256.89331    33.491412   -223.40189    2421.5032    181080.65    10.472245    4501.9044 
  495800   -260.54939    35.095497    -225.4539     2537.482    176185.27    10.472245    4509.8669 
  495900   -263.36055     34.92926   -228.43129    2525.4627    163804.65    10.472245    4508.1699 
  496000   -258.24813    32.431955   -225.81617    2344.9021    175223.31    10.472245    4499.5991 
  496100   -255.86476    38.945952    -216.9188    2815.8785    187553.83    10.472245    4497.3894 
  496200   -261.37892      33.4264   -227.95252    2416.8026    170555.62    10.472245    4489.6369 
  496300   -259.21886     30.36077   -228.85809    2195.1508    172315.66    10.472245    4493.5411 
  496400   -258.76065    37.061655   -221.69899    2679.6396    181537.42    10.472245    4503.4858 
  496500   -260.70432     30.74745   -229.95687    2223.1086    170926.03    10.472245     4504.565 
  496600   -263.32386    36.774345   -226.54951    2658.8665    166297.56    10.472245    4511.0244 
  496700   -262.58395    36.827857   -225.75609    2662.7355    167108.75    10.472245    4501.6625 
  496800   -263.43002    28.579071   -234.85095    2066.3301    161060.91    10.472245    4495.0468 
  496900   -260.02073    33.569258   -226.45147    2427.1316    174963.38    10.472245    4499.7564 
  497000   -260.04656    36.634857    -223.4117    2648.7812    173808.93    10.472245    4494.9476 
  497100   -261.83191    30.489264   -231.34264    2204.4413    168212.92    10.472245     4494.621 
  497200   -262.53558    35.475635   -227.05995    2564.9669    165396.73    10.472245     4486.154 
  497300     -255.148    33.180739   -221.96726    2399.0408    190107.13    10.472245    4485.1584 
  497400   -260.23217    33.191667    -227.0405     2399.831    172518.75    10.472245    4483.6457 
  497500   -262.33808    33.733545   -228.60454    2439.0099     164755.7    10.472245    4479.4843 
  497600    -257.9612     37.00951   -220.95169    2675.8694     180801.1    10.472245    4488.7701 
  497700   -259.61212    30.734495   -228.87762    2222.1719    171883.63    10.472245    4479.9852 
  497800   -259.02934    31.226742    -227.8026    2257.7625    172414.35    10.472245    4473.5168 
  497900    -260.7714    40.019756   -220.75165    2893.5169    177739.13    10.472245     4477.551 
  498000     -262.057    34.392023   -227.66498    2486.6193    171674.94    10.472245    4473.4282 
  498100   -261.79388    31.206473   -230.58741     2256.297    166587.71    10.472245    4483.8333 
  498200   -259.91317    37.337426   -222.57575    2699.5785    175061.67    10.472245    4485.7608 
  498300   -257.28707    29.591208   -227.69586    2139.5098    179598.95    10.472245    4483.9745 
  498400   -262.27353    31.269063   -231.00446    2260.8224    166787.56    10.472245    4497.3052 
  498500   -264.85931    37.597385   -227.26192    2718.3741    165749.06    10.472245    4487.1131 
  498600   -259.81799    38.063766   -221.75422    2752.0945    174073.37    10.472245     4477.563 
  498700   -261.92033    38.057486   -223.86284    2751.6404    172245.97    10.472245     4479.502 
  498800   -262.20166    33.041788   -229.15987    2388.9943     169960.9    10.472245    4480.9937 
  498900   -265.24106     31.94047   -233.30059    2309.3666    158432.96    10.472245    4476.2743 
  499000   -265.00244    29.643217   -235.35922    2143.2702    155345.88    10.472245    4470.4386 
  499100   -259.22533    33.166631    -226.0587    2398.0208    177876.29    10.472245    4471.7152 
  499200   -258.50528    32.369943   -226.13534    2340.4185    178517.85    10.472245    4476.2352 
  499300   -263.54942    29.794326   -233.75509    2154.1956    162643.39    10.472245    4481.0322 
  499400   -257.89094     31.81843   -226.07251    2300.5428    182550.36    10.472245    4491.6713 
  499500   -260.55686    33.464821   -227.09204    2419.5806    171812.98    10.472245    4503.9364 
  499600    -261.4313    32.924918   -228.50638    2380.5444    169153.66    10.472245    4509.1596 
  499700   -262.82956     32.72215   -230.10741    2365.8838    161634.87    10.472245    4523.1504 
  499800   -259.61652    38.227503   -221.38902     2763.933     181000.9    10.472245    4532.4882 
  499900   -255.79091    28.490725   -227.30018    2059.9424    183134.35    10.472245    4543.3685 
  500000   -261.35926    29.814246   -231.54502    2155.6359    173359.07    10.472245    4550.7244 
Loop time of 157.104 on 1 procs for 500000 steps with 108 atoms

Performance: 1374.887 ns/day, 0.017 hours/ns, 3182.608 timesteps/s
100.0% CPU use with 1 MPI tasks x no OpenMP threads

MPI task timing breakdown:
Section |  min time  |  avg time  |  max time  |%varavg| %total
---------------------------------------------------------------
Pair    | 92.81      | 92.81      | 92.81      |   0.0 | 59.08
Neigh   | 7.0378     | 7.0378     | 7.0378     |   0.0 |  4.48
Comm    | 2.7862     | 2.7862     | 2.7862     |   0.0 |  1.77
Output  | 0.090495   | 0.090495   | 0.090495   |   0.0 |  0.06
Modify  | 53.951     | 53.951     | 53.951     |   0.0 | 34.34
Other   |            | 0.4284     |            |       |  0.27

Nlocal:    108 ave 108 max 108 min
Histogram: 1 0 0 0 0 0 0 0 0 0
Nghost:    1112 ave 1112 max 1112 min
Histogram: 1 0 0 0 0 0 0 0 0 0
Neighs:    5714 ave 5714 max 5714 min
Histogram: 1 0 0 0 0 0 0 0 0 0

Total # of neighbors = 5714
Ave neighs/atom = 52.9074
Neighbor list builds = 30496
Dangerous builds = 56
Total wall time: 0:02:37
