
     Program PWSCF v.6.4.1 starts on 14Dec2020 at  1: 0:50 

     This program is part of the open-source Quantum ESPRESSO suite
     for quantum simulation of materials; please cite
         "P. Giannozzi et al., J. Phys.:Condens. Matter 21 395502 (2009);
         "P. Giannozzi et al., J. Phys.:Condens. Matter 29 465901 (2017);
          URL http://www.quantum-espresso.org", 
     in publications or presentations arising from this work. More details at
     http://www.quantum-espresso.org/quote

     Parallel version (MPI), running on     1 processors

     MPI processes distributed on     1 nodes
     Waiting for input...
     Reading input from standard input
Warning: card &IONS ignored
Warning: card / ignored
Warning: card &CELL ignored
Warning: card / ignored

     Current dimensions of program PWSCF are:
     Max number of different atomic species (ntypx) = 10
     Max number of k-points (npk) =  40000
     Max angular momentum in pseudopotentials (lmaxx) =  3

     Subspace diagonalization in iterative solution of the eigenvalue problem:
     a serial algorithm will be used

     Found symmetry operation: I + (  0.0000  0.0000 -0.5000)
     This is a supercell, fractional translations are disabled

     G-vector sticks info
     --------------------
     sticks:   dense  smooth     PW     G-vecs:    dense   smooth      PW
     Sum         997     997    293                23847    23847    3911



     bravais-lattice index     =            0
     lattice parameter (alat)  =      17.7634  a.u.
     unit-cell volume          =    5605.0587 (a.u.)^3
     number of atoms/cell      =           80
     number of atomic types    =            4
     number of electrons       =       256.00
     number of Kohn-Sham states=          128
     kinetic-energy cutoff     =      10.0000  Ry
     charge density cutoff     =      40.0000  Ry
     convergence threshold     =      1.0E-07
     mixing beta               =       0.5000
     number of iterations used =            8  plain     mixing
     Exchange-correlation      =  SLA  PW   PBX  PBC ( 1  4  3  4 0 0)

     celldm(1)=  17.763426  celldm(2)=   0.000000  celldm(3)=   0.000000
     celldm(4)=   0.000000  celldm(5)=   0.000000  celldm(6)=   0.000000

     crystal axes: (cart. coord. in units of alat)
               a(1) = (   1.000000   0.000000   0.000000 )  
               a(2) = (   0.000000   1.000000   0.000000 )  
               a(3) = (   0.000000   0.000000   1.000000 )  

     reciprocal axes: (cart. coord. in units 2 pi/alat)
               b(1) = (  1.000000  0.000000  0.000000 )  
               b(2) = (  0.000000  1.000000  0.000000 )  
               b(3) = (  0.000000  0.000000  1.000000 )  


     PseudoPot. # 1 for B  read from file:
     /home/modeler/qe_pseudo/b_pbe_v1.4.uspp.F.UPF
     MD5 check sum: cc6de2960df11db49a60e589f9ebb39b
     Pseudo is Ultrasoft + core correction, Zval =  3.0
     Generated by new atomic code, or converted to UPF format
     Using radial grid of  781 points,  4 beta functions with: 
                l(1) =   0
                l(2) =   0
                l(3) =   1
                l(4) =   1
     Q(r) pseudized with  8 coefficients,  rinner =    1.100   1.100   1.100


     PseudoPot. # 2 for H  read from file:
     /home/modeler/qe_pseudo/H.pbe-rrkjus_psl.1.0.0.UPF
     MD5 check sum: f52b6d4d1c606e5624b1dc7b2218f220
     Pseudo is Ultrasoft, Zval =  1.0
     Generated using "atomic" code by A. Dal Corso v.5.1
     Using radial grid of  929 points,  2 beta functions with: 
                l(1) =   0
                l(2) =   0
     Q(r) pseudized with 0 coefficients 


     PseudoPot. # 3 for N  read from file:
     /home/modeler/qe_pseudo/N.pbe-n-radius_5.UPF
     MD5 check sum: 16739722b17309cd8fe442a2ace49922
     Pseudo is Ultrasoft + core correction, Zval =  5.0
     Generated using "atomic" code by A. Dal Corso v.5.1
     Using radial grid of 1085 points,  4 beta functions with: 
                l(1) =   0
                l(2) =   0
                l(3) =   1
                l(4) =   1
     Q(r) pseudized with 0 coefficients 


     PseudoPot. # 4 for Na read from file:
     /home/modeler/qe_pseudo/na_pbe_v1.5.uspp.F.UPF
     MD5 check sum: 44600605ef58000f06b90626533354dc
     Pseudo is Ultrasoft, Zval =  9.0
     Generated by new atomic code, or converted to UPF format
     Using radial grid of  819 points,  5 beta functions with: 
                l(1) =   0
                l(2) =   0
                l(3) =   1
                l(4) =   1
                l(5) =   2
     Q(r) pseudized with  8 coefficients,  rinner =    1.250   1.250   1.250
                                                       1.250   1.250

     atomic species   valence    mass     pseudopotential
        B              3.00    10.81000     B ( 1.00)
        H              1.00     1.00800     H ( 1.00)
        N              5.00    14.00700     N ( 1.00)
        Na             9.00    22.98977     Na( 1.00)

     No symmetry found



   Cartesian axes

     site n.     atom                  positions (alat units)
         1           Na  tau(   1) = (   0.2500000   0.0000000   0.2500000  )
         2           Na  tau(   2) = (   0.0000000   0.2500000   0.2500000  )
         3           N   tau(   3) = (   0.2500000   0.2500000   0.2500000  )
         4           H   tau(   4) = (   0.3482926   0.2500000   0.2152479  )
         5           H   tau(   5) = (   0.2008532   0.3351245   0.2152479  )
         6           B   tau(   6) = (   0.0000000   0.0000000   0.0000000  )
         7           H   tau(   7) = (   0.1173500   0.0000000   0.4585106  )
         8           H   tau(   8) = (   0.4413255   0.1016277   0.4585106  )
         9           H   tau(   9) = (   0.4413255   0.3983723   0.4585106  )
        10           H   tau(  10) = (   0.0000000   0.0000000   0.1244681  )
        11           Na  tau(  11) = (   0.2500000   0.0000000   0.7500000  )
        12           Na  tau(  12) = (   0.0000000   0.2500000   0.7500000  )
        13           N   tau(  13) = (   0.2500000   0.2500000   0.7500000  )
        14           H   tau(  14) = (   0.3482926   0.2500000   0.7152479  )
        15           H   tau(  15) = (   0.2008532   0.3351245   0.7152479  )
        16           B   tau(  16) = (   0.0000000   0.0000000   0.5000000  )
        17           H   tau(  17) = (   0.1173500   0.0000000   0.9585106  )
        18           H   tau(  18) = (   0.4413255   0.1016277   0.9585106  )
        19           H   tau(  19) = (   0.4413255   0.3983723   0.9585106  )
        20           H   tau(  20) = (   0.0000000   0.0000000   0.6244681  )
        21           Na  tau(  21) = (   0.2500000   0.5000000   0.2500000  )
        22           Na  tau(  22) = (   0.0000000   0.7500000   0.2500000  )
        23           N   tau(  23) = (   0.2500000   0.7500000   0.2500000  )
        24           H   tau(  24) = (   0.3482926   0.7500000   0.2152479  )
        25           H   tau(  25) = (   0.2008532   0.8351245   0.2152479  )
        26           B   tau(  26) = (   0.0000000   0.5000000   0.0000000  )
        27           H   tau(  27) = (   0.1173500   0.5000000   0.4585106  )
        28           H   tau(  28) = (   0.4413255   0.6016277   0.4585106  )
        29           H   tau(  29) = (   0.4413255   0.8983723   0.4585106  )
        30           H   tau(  30) = (   0.0000000   0.5000000   0.1244681  )
        31           Na  tau(  31) = (   0.2500000   0.5000000   0.7500000  )
        32           Na  tau(  32) = (   0.0000000   0.7500000   0.7500000  )
        33           N   tau(  33) = (   0.2500000   0.7500000   0.7500000  )
        34           H   tau(  34) = (   0.3482926   0.7500000   0.7152479  )
        35           H   tau(  35) = (   0.2008532   0.8351245   0.7152479  )
        36           B   tau(  36) = (   0.0000000   0.5000000   0.5000000  )
        37           H   tau(  37) = (   0.1173500   0.5000000   0.9585106  )
        38           H   tau(  38) = (   0.4413255   0.6016277   0.9585106  )
        39           H   tau(  39) = (   0.4413255   0.8983723   0.9585106  )
        40           H   tau(  40) = (   0.0000000   0.5000000   0.6244681  )
        41           Na  tau(  41) = (   0.7500000   0.0000000   0.2500000  )
        42           Na  tau(  42) = (   0.5000000   0.2500000   0.2500000  )
        43           N   tau(  43) = (   0.7500000   0.2500000   0.2500000  )
        44           H   tau(  44) = (   0.8482926   0.2500000   0.2152479  )
        45           H   tau(  45) = (   0.7008532   0.3351245   0.2152479  )
        46           B   tau(  46) = (   0.5000000   0.0000000   0.0000000  )
        47           H   tau(  47) = (   0.6173500   0.0000000   0.4585106  )
        48           H   tau(  48) = (   0.9413255   0.1016277   0.4585106  )
        49           H   tau(  49) = (   0.9413255   0.3983723   0.4585106  )
        50           H   tau(  50) = (   0.5000000   0.0000000   0.1244681  )
        51           Na  tau(  51) = (   0.7500000   0.0000000   0.7500000  )
        52           Na  tau(  52) = (   0.5000000   0.2500000   0.7500000  )
        53           N   tau(  53) = (   0.7500000   0.2500000   0.7500000  )
        54           H   tau(  54) = (   0.8482926   0.2500000   0.7152479  )
        55           H   tau(  55) = (   0.7008532   0.3351245   0.7152479  )
        56           B   tau(  56) = (   0.5000000   0.0000000   0.5000000  )
        57           H   tau(  57) = (   0.6173500   0.0000000   0.9585106  )
        58           H   tau(  58) = (   0.9413255   0.1016277   0.9585106  )
        59           H   tau(  59) = (   0.9413255   0.3983723   0.9585106  )
        60           H   tau(  60) = (   0.5000000   0.0000000   0.6244681  )
        61           Na  tau(  61) = (   0.7500000   0.5000000   0.2500000  )
        62           Na  tau(  62) = (   0.5000000   0.7500000   0.2500000  )
        63           N   tau(  63) = (   0.7500000   0.7500000   0.2500000  )
        64           H   tau(  64) = (   0.8482926   0.7500000   0.2152479  )
        65           H   tau(  65) = (   0.7008532   0.8351245   0.2152479  )
        66           B   tau(  66) = (   0.5000000   0.5000000   0.0000000  )
        67           H   tau(  67) = (   0.6173500   0.5000000   0.4585106  )
        68           H   tau(  68) = (   0.9413255   0.6016277   0.4585106  )
        69           H   tau(  69) = (   0.9413255   0.8983723   0.4585106  )
        70           H   tau(  70) = (   0.5000000   0.5000000   0.1244681  )
        71           Na  tau(  71) = (   0.7500000   0.5000000   0.7500000  )
        72           Na  tau(  72) = (   0.5000000   0.7500000   0.7500000  )
        73           N   tau(  73) = (   0.7500000   0.7500000   0.7500000  )
        74           H   tau(  74) = (   0.8482926   0.7500000   0.7152479  )
        75           H   tau(  75) = (   0.7008532   0.8351245   0.7152479  )
        76           B   tau(  76) = (   0.5000000   0.5000000   0.5000000  )
        77           H   tau(  77) = (   0.6173500   0.5000000   0.9585106  )
        78           H   tau(  78) = (   0.9413255   0.6016277   0.9585106  )
        79           H   tau(  79) = (   0.9413255   0.8983723   0.9585106  )
        80           H   tau(  80) = (   0.5000000   0.5000000   0.6244681  )

     number of k points=     8
                       cart. coord. in units 2pi/alat
        k(    1) = (   0.0000000   0.0000000   0.0000000), wk =   0.2500000
        k(    2) = (   0.0000000   0.0000000  -0.5000000), wk =   0.2500000
        k(    3) = (   0.0000000  -0.5000000  -0.5000000), wk =   0.2500000
        k(    4) = (  -0.5000000  -0.5000000  -0.5000000), wk =   0.2500000
        k(    5) = (  -0.5000000   0.0000000   0.0000000), wk =   0.2500000
        k(    6) = (   0.0000000  -0.5000000   0.0000000), wk =   0.2500000
        k(    7) = (  -0.5000000   0.0000000   0.5000000), wk =   0.2500000
        k(    8) = (  -0.5000000   0.5000000   0.0000000), wk =   0.2500000

     Dense  grid:    23847 G-vectors     FFT dimensions: (  36,  36,  36)

     Estimated max dynamical RAM per process >     217.27 MB

     Check: negative core charge=   -0.001065

     Initial potential from superposition of free atoms

     starting charge  255.89658, renormalised to  256.00000

     negative rho (up, down):  1.188E+00 0.000E+00
     Starting wfcs are  192 randomized atomic wfcs

     total cpu time spent up to now is       19.7 secs

     Self-consistent Calculation

     iteration #  1     ecut=    10.00 Ry     beta= 0.50
     Davidson diagonalization with overlap
     ethr =  1.00E-02,  avg # of iterations =  2.0

     negative rho (up, down):  3.927E-01 0.000E+00

     total cpu time spent up to now is       66.4 secs

     total energy              =   -1623.50141563 Ry
     Harris-Foulkes estimate   =   -1677.52173595 Ry
     estimated scf accuracy    <      88.92137036 Ry

     iteration #  2     ecut=    10.00 Ry     beta= 0.50
     Davidson diagonalization with overlap
     ethr =  1.00E-02,  avg # of iterations =  2.0

     negative rho (up, down):  2.335E-01 0.000E+00

     total cpu time spent up to now is      111.8 secs

     total energy              =   -1629.13352722 Ry
     Harris-Foulkes estimate   =   -1633.64415207 Ry
     estimated scf accuracy    <       7.49102765 Ry

     iteration #  3     ecut=    10.00 Ry     beta= 0.50
     Davidson diagonalization with overlap
     ethr =  2.93E-03,  avg # of iterations =  2.0

     negative rho (up, down):  2.419E-01 0.000E+00

     total cpu time spent up to now is      153.2 secs

     total energy              =   -1629.60289399 Ry
     Harris-Foulkes estimate   =   -1629.74467142 Ry
     estimated scf accuracy    <       0.32461450 Ry

     iteration #  4     ecut=    10.00 Ry     beta= 0.50
     Davidson diagonalization with overlap
     ethr =  1.27E-04,  avg # of iterations =  2.0

     negative rho (up, down):  2.790E-01 0.000E+00

     total cpu time spent up to now is      194.2 secs

     total energy              =   -1629.62676547 Ry
     Harris-Foulkes estimate   =   -1629.62836568 Ry
     estimated scf accuracy    <       0.01241336 Ry

     iteration #  5     ecut=    10.00 Ry     beta= 0.50
     Davidson diagonalization with overlap
     ethr =  4.85E-06,  avg # of iterations =  3.0

     negative rho (up, down):  2.867E-01 0.000E+00

     total cpu time spent up to now is      234.6 secs

     total energy              =   -1629.62659866 Ry
     Harris-Foulkes estimate   =   -1629.62780422 Ry
     estimated scf accuracy    <       0.00105882 Ry

     iteration #  6     ecut=    10.00 Ry     beta= 0.50
     Davidson diagonalization with overlap
     ethr =  4.14E-07,  avg # of iterations =  2.4

     negative rho (up, down):  2.892E-01 0.000E+00

     total cpu time spent up to now is      278.0 secs

     total energy              =   -1629.62665266 Ry
     Harris-Foulkes estimate   =   -1629.62679009 Ry
     estimated scf accuracy    <       0.00008161 Ry

     iteration #  7     ecut=    10.00 Ry     beta= 0.50
     Davidson diagonalization with overlap
     ethr =  3.19E-08,  avg # of iterations =  3.0

     negative rho (up, down):  2.903E-01 0.000E+00

     total cpu time spent up to now is      319.5 secs

     total energy              =   -1629.62661457 Ry
     Harris-Foulkes estimate   =   -1629.62666658 Ry
     estimated scf accuracy    <       0.00000331 Ry

     iteration #  8     ecut=    10.00 Ry     beta= 0.50
     Davidson diagonalization with overlap
     ethr =  1.29E-09,  avg # of iterations =  2.0

     negative rho (up, down):  2.903E-01 0.000E+00

     total cpu time spent up to now is      362.1 secs

     total energy              =   -1629.62662370 Ry
     Harris-Foulkes estimate   =   -1629.62661517 Ry
     estimated scf accuracy    <       0.00000056 Ry

     iteration #  9     ecut=    10.00 Ry     beta= 0.50
     Davidson diagonalization with overlap
     ethr =  2.21E-10,  avg # of iterations =  2.0

     negative rho (up, down):  2.904E-01 0.000E+00

     total cpu time spent up to now is      404.2 secs

     End of self-consistent calculation

          k = 0.0000 0.0000 0.0000 (  2945 PWs)   bands (ev):

   -72.2233 -71.3300 -71.3217 -71.3066 -71.1123 -71.0657 -71.0223 -70.7373
   -70.5697 -70.5632 -70.5500 -70.3529 -70.3092 -70.0671 -69.9790 -69.1918
   -31.0315 -30.8368 -27.7045 -27.6481 -27.6247 -27.5070 -27.4670 -27.3819
   -27.3283 -27.3065 -27.2590 -27.2096 -27.2037 -27.1694 -27.1235 -26.9444
   -26.8609 -26.7760 -26.7547 -26.7061 -26.6973 -26.6784 -26.6591 -26.6340
   -26.5513 -26.4784 -26.4573 -26.4198 -26.2483 -26.1823 -26.1475 -26.0151
   -25.9850 -25.8058 -25.7277 -25.5565 -25.2384 -24.9410 -24.8244 -24.8193
   -24.8157 -24.6496 -24.5796 -24.4869 -24.3440 -23.1237 -22.8844 -22.4718
   -17.5341 -17.5262 -17.5097 -17.4947 -17.4792 -17.4721 -17.4288 -17.3904
    -7.1895  -7.1295  -7.0406  -6.8938  -6.8531  -6.8164  -6.7854  -6.6709
    -6.6379  -6.5943  -6.4808  -6.2759  -6.1400  -6.0475  -5.9683  -5.6461
    -2.7855  -2.6701  -2.6289  -2.3270  -2.1618  -2.0203  -1.9598  -1.9575
    -1.8445  -1.8041  -1.7781  -1.7502  -1.5450  -1.5415  -1.5359  -1.4417
    -1.4403  -1.4353  -1.3469  -1.3371  -1.2672  -1.2020  -1.1354  -0.9575
    -0.9279  -0.8417  -0.8177  -0.7980  -0.7692  -0.7675  -0.7639  -0.4225
     0.8875   0.9968   1.1237   1.1599   1.1885   1.3482   1.3780   1.5613

          k = 0.0000 0.0000-0.5000 (  2946 PWs)   bands (ev):

   -71.5601 -71.5601 -71.2896 -71.2896 -71.2767 -71.2767 -70.7401 -70.7401
   -70.5289 -70.5289 -70.5235 -70.5235 -69.9816 -69.9816 -69.9040 -69.9040
   -28.7336 -28.7336 -28.4856 -28.4856 -28.1863 -28.1863 -28.0550 -28.0550
   -27.8633 -27.8633 -27.8545 -27.8545 -27.8110 -27.8110 -26.8240 -26.8240
   -26.8187 -26.8187 -26.4621 -26.4621 -26.2894 -26.2894 -26.1631 -26.1631
   -26.0284 -26.0284 -25.8896 -25.8896 -25.8635 -25.8635 -25.5121 -25.5121
   -25.1883 -25.1883 -25.1441 -25.1441 -24.9046 -24.9046 -24.8822 -24.8822
   -24.8080 -24.8080 -24.6972 -24.6972 -24.5168 -24.5168 -24.4932 -24.4932
   -17.5177 -17.5177 -17.5107 -17.5107 -17.4764 -17.4764 -17.4362 -17.4362
    -7.0456  -7.0456  -7.0149  -7.0149  -6.9435  -6.9435  -6.7457  -6.7457
    -6.5149  -6.5149  -6.3221  -6.3221  -6.2213  -6.2213  -5.8756  -5.8756
    -2.3889  -2.3889  -2.3815  -2.3815  -2.2404  -2.2404  -2.0806  -2.0806
    -1.8706  -1.8706  -1.8565  -1.8565  -1.8050  -1.8050  -1.5337  -1.5337
    -1.3946  -1.3946  -1.3129  -1.3129  -1.2584  -1.2584  -1.0583  -1.0583
    -0.8965  -0.8965  -0.8020  -0.8020  -0.7978  -0.7978  -0.6452  -0.6452
     1.1021   1.1021   1.1895   1.1895   1.2177   1.2177   1.3460   1.3460

          k = 0.0000-0.5000-0.5000 (  3016 PWs)   bands (ev):

   -71.8796 -71.8796 -71.8792 -71.8792 -71.2042 -71.2042 -71.2029 -71.2029
   -70.8858 -70.8858 -70.8852 -70.8852 -70.4170 -70.4170 -70.4167 -70.4167
   -29.6775 -29.6775 -29.6570 -29.6570 -29.3047 -29.3047 -29.2926 -29.2926
   -28.2055 -28.2055 -28.1817 -28.1817 -27.6362 -27.6362 -27.6285 -27.6285
   -27.3472 -27.3472 -27.3314 -27.3314 -27.1901 -27.1901 -27.1660 -27.1660
   -26.9914 -26.9914 -26.9627 -26.9627 -26.8139 -26.8139 -26.7242 -26.7242
   -26.5052 -26.5052 -26.4404 -26.4404 -26.3625 -26.3625 -26.3043 -26.3043
   -25.6889 -25.6889 -25.6547 -25.6547 -24.8266 -24.8266 -24.8266 -24.8266
   -17.5562 -17.5562 -17.5434 -17.5434 -17.4537 -17.4537 -17.4460 -17.4460
    -7.0044  -7.0044  -6.9959  -6.9959  -6.9414  -6.9414  -6.9190  -6.9190
    -6.4014  -6.4014  -6.3715  -6.3715  -6.2601  -6.2601  -6.2310  -6.2310
    -2.3980  -2.3980  -2.2835  -2.2835  -2.2031  -2.2031  -2.1026  -2.1026
    -1.8225  -1.8225  -1.7631  -1.7631  -1.6696  -1.6696  -1.6696  -1.6696
    -1.6130  -1.6130  -1.4292  -1.4292  -1.2933  -1.2933  -1.0527  -1.0527
    -1.0425  -1.0425  -0.9757  -0.9757  -0.8530  -0.8530  -0.8238  -0.8238
     0.9772   0.9772   1.0264   1.0264   1.1938   1.1938   1.2388   1.2388

          k =-0.5000-0.5000-0.5000 (  3016 PWs)   bands (ev):

   -71.4654 -71.4654 -71.4652 -71.4652 -71.4652 -71.4652 -71.4631 -71.4631
   -70.7068 -70.7068 -70.7055 -70.7055 -70.7049 -70.7049 -70.7047 -70.7047
   -28.5155 -28.5155 -28.4439 -28.4439 -28.3946 -28.3946 -28.3565 -28.3565
   -28.1823 -28.1823 -28.1348 -28.1348 -28.0611 -28.0611 -28.0220 -28.0220
   -27.4660 -27.4660 -27.4281 -27.4281 -27.3394 -27.3394 -27.3319 -27.3319
   -27.3109 -27.3109 -27.2794 -27.2794 -27.2474 -27.2474 -27.2210 -27.2210
   -26.5706 -26.5706 -26.5221 -26.5221 -26.4113 -26.4113 -26.3690 -26.3690
   -25.5388 -25.5388 -25.4291 -25.4291 -25.4159 -25.4159 -25.3801 -25.3801
   -17.5109 -17.5109 -17.5026 -17.5026 -17.4995 -17.4995 -17.4978 -17.4978
    -7.0088  -7.0088  -6.9977  -6.9977  -6.9253  -6.9253  -6.9138  -6.9138
    -6.4072  -6.4072  -6.3526  -6.3526  -6.2659  -6.2659  -6.2380  -6.2380
    -2.3804  -2.3804  -2.2539  -2.2539  -2.1965  -2.1965  -2.0664  -2.0664
    -1.9459  -1.9459  -1.8288  -1.8288  -1.7298  -1.7298  -1.4903  -1.4903
    -1.3947  -1.3947  -1.3869  -1.3868  -1.3022  -1.3022  -1.2873  -1.2873
    -1.0903  -1.0903  -1.0276  -1.0276  -0.8911  -0.8911  -0.8820  -0.8820
     1.1043   1.1043   1.1178   1.1178   1.1392   1.1392   1.1587   1.1587

          k =-0.5000 0.0000 0.0000 (  2946 PWs)   bands (ev):

   -71.4525 -71.4525 -71.2813 -71.2813 -71.0948 -71.0948 -70.7399 -70.7399
   -70.5209 -70.5209 -70.3337 -70.3337 -70.3322 -70.3322 -69.9927 -69.9927
   -29.1946 -29.1946 -28.3853 -28.3853 -27.8262 -27.8262 -27.6290 -27.6290
   -27.4948 -27.4948 -27.4335 -27.4335 -27.3835 -27.3835 -27.2199 -27.2199
   -27.1868 -27.1868 -26.6976 -26.6976 -26.5966 -26.5966 -26.2890 -26.2890
   -26.1946 -26.1946 -25.9624 -25.9624 -25.7366 -25.7366 -25.4368 -25.4368
   -25.2946 -25.2946 -25.1584 -25.1584 -25.0004 -25.0004 -24.9443 -24.9443
   -24.7633 -24.7633 -24.7016 -24.7016 -24.6187 -24.6187 -24.2026 -24.2026
   -17.5091 -17.5091 -17.5040 -17.5040 -17.5032 -17.5032 -17.4502 -17.4502
    -7.1580  -7.1580  -6.9784  -6.9784  -6.8419  -6.8419  -6.7054  -6.7054
    -6.3162  -6.3162  -6.3073  -6.3073  -6.2640  -6.2640  -6.0747  -6.0747
    -2.5566  -2.5566  -2.4852  -2.4852  -2.2870  -2.2870  -1.7775  -1.7775
    -1.7016  -1.7016  -1.6711  -1.6711  -1.6199  -1.6199  -1.4730  -1.4730
    -1.4336  -1.4336  -1.3366  -1.3366  -1.2402  -1.2402  -1.1580  -1.1580
    -1.0583  -1.0583  -0.8855  -0.8855  -0.8071  -0.8071  -0.6803  -0.6803
     1.0023   1.0023   1.2079   1.2079   1.2853   1.2853   1.3655   1.3655

          k = 0.0000-0.5000 0.0000 (  2946 PWs)   bands (ev):

   -71.4436 -71.4436 -71.2835 -71.2835 -71.0947 -71.0947 -70.7508 -70.7508
   -70.5251 -70.5251 -70.3373 -70.3373 -70.3334 -70.3334 -69.9826 -69.9826
   -29.3267 -29.3267 -28.3253 -28.3253 -27.6906 -27.6906 -27.6260 -27.6260
   -27.4970 -27.4970 -27.3720 -27.3720 -27.2576 -27.2576 -27.1212 -27.1212
   -27.1088 -27.1088 -26.8151 -26.8151 -26.5793 -26.5793 -26.3736 -26.3736
   -26.3459 -26.3459 -25.9528 -25.9528 -25.7000 -25.7000 -25.6539 -25.6539
   -25.4507 -25.4507 -25.1815 -25.1815 -25.0492 -25.0492 -24.7843 -24.7843
   -24.7315 -24.7315 -24.6106 -24.6106 -24.5852 -24.5852 -24.2082 -24.2082
   -17.5354 -17.5354 -17.5091 -17.5091 -17.4799 -17.4799 -17.4249 -17.4249
    -7.0843  -7.0843  -7.0828  -7.0828  -6.8271  -6.8271  -6.7385  -6.7385
    -6.4469  -6.4469  -6.3158  -6.3158  -6.2591  -6.2591  -5.9013  -5.9013
    -2.6929  -2.6929  -2.2505  -2.2505  -2.2457  -2.2457  -1.8708  -1.8708
    -1.8190  -1.8190  -1.5939  -1.5939  -1.5053  -1.5053  -1.4759  -1.4759
    -1.3723  -1.3723  -1.3573  -1.3573  -1.1873  -1.1873  -1.0958  -1.0958
    -1.0788  -1.0788  -0.9778  -0.9778  -0.8007  -0.8007  -0.7875  -0.7875
     1.0605   1.0605   1.2335   1.2335   1.2426   1.2426   1.3107   1.3107

          k =-0.5000 0.0000 0.5000 (  3016 PWs)   bands (ev):

   -71.8848 -71.8848 -71.8835 -71.8835 -71.1737 -71.1737 -71.1728 -71.1728
   -70.8830 -70.8830 -70.8825 -70.8825 -70.4440 -70.4440 -70.4404 -70.4404
   -29.5599 -29.5599 -29.5309 -29.5309 -29.4022 -29.4022 -29.3337 -29.3337
   -28.3765 -28.3765 -28.2574 -28.2574 -27.8820 -27.8820 -27.8540 -27.8540
   -27.1856 -27.1856 -27.1671 -27.1671 -27.1399 -27.1399 -27.1339 -27.1339
   -26.9289 -26.9289 -26.9122 -26.9122 -26.7471 -26.7471 -26.7356 -26.7356
   -26.5085 -26.5085 -26.5003 -26.5003 -26.3869 -26.3869 -26.3338 -26.3338
   -25.3137 -25.3137 -25.2983 -25.2983 -25.0944 -25.0944 -25.0901 -25.0901
   -17.5407 -17.5407 -17.5330 -17.5330 -17.4868 -17.4868 -17.4650 -17.4650
    -7.0611  -7.0611  -7.0548  -7.0548  -6.8676  -6.8676  -6.8439  -6.8439
    -6.3777  -6.3777  -6.3549  -6.3549  -6.2875  -6.2875  -6.2646  -6.2646
    -2.4182  -2.4182  -2.3358  -2.3358  -2.2182  -2.2182  -2.0904  -2.0904
    -1.7683  -1.7683  -1.7345  -1.7345  -1.7311  -1.7311  -1.6950  -1.6950
    -1.6051  -1.6051  -1.4532  -1.4532  -1.3614  -1.3614  -1.2120  -1.2120
    -0.9399  -0.9399  -0.9226  -0.9226  -0.7785  -0.7785  -0.7752  -0.7752
     1.0285   1.0285   1.0373   1.0373   1.1637   1.1637   1.2153   1.2153

          k =-0.5000 0.5000 0.0000 (  3016 PWs)   bands (ev):

   -71.9131 -71.9131 -71.9117 -71.9117 -71.5513 -71.5513 -71.5487 -71.5487
   -70.8654 -70.8654 -70.8648 -70.8648 -70.0371 -70.0371 -70.0345 -70.0345
   -29.4723 -29.4723 -29.3052 -29.3052 -29.1678 -29.1678 -29.1462 -29.1462
   -28.9280 -28.9280 -28.9201 -28.9201 -28.4287 -28.4287 -28.4245 -28.4245
   -27.6655 -27.6655 -27.6418 -27.6418 -27.6402 -27.6402 -27.4991 -27.4991
   -27.1021 -27.1021 -27.0955 -27.0955 -27.0929 -27.0929 -26.9132 -26.9132
   -26.6841 -26.6841 -26.5062 -26.5062 -26.3130 -26.3130 -26.1347 -26.1347
   -24.7548 -24.7548 -24.5769 -24.5769 -23.3615 -23.3615 -23.3587 -23.3587
   -17.5250 -17.5250 -17.5176 -17.5176 -17.4923 -17.4923 -17.4808 -17.4808
    -7.1571  -7.1571  -7.0224  -7.0224  -6.7797  -6.7797  -6.7717  -6.7717
    -6.4111  -6.4111  -6.4061  -6.4061  -6.2872  -6.2872  -6.2695  -6.2695
    -2.6801  -2.6801  -2.3228  -2.3228  -2.1834  -2.1834  -1.9874  -1.9874
    -1.7366  -1.7366  -1.6088  -1.6088  -1.6067  -1.6067  -1.5577  -1.5577
    -1.3557  -1.3557  -1.3535  -1.3535  -1.3154  -1.3154  -1.2014  -1.2014
    -1.0829  -1.0829  -1.0503  -1.0503  -0.9976  -0.9976  -0.8915  -0.8915
     0.9869   0.9869   1.1166   1.1166   1.2375   1.2375   1.2601   1.2601

     highest occupied level (ev):     1.5613

!    total energy              =   -1629.62662019 Ry
     Harris-Foulkes estimate   =   -1629.62662381 Ry
     estimated scf accuracy    <       0.00000003 Ry

     The total energy is the sum of the following terms:

     one-electron contribution =   -1203.79501199 Ry
     hartree contribution      =     584.41047975 Ry
     xc contribution           =    -287.51502889 Ry
     ewald contribution        =    -722.72705906 Ry

     convergence has been achieved in   9 iterations

     negative rho (up, down):  2.904E-01 0.000E+00

     Forces acting on atoms (cartesian axes, Ry/au):

     atom    1 type  4   force =     0.01973779    0.10961949    0.02064621
     atom    2 type  4   force =     0.13764589   -0.00928206    0.04378004
     atom    3 type  3   force =    -0.11669587   -0.19407684    0.17178811
     atom    4 type  2   force =     0.01371567    0.02705937   -0.12199979
     atom    5 type  2   force =    -0.06220158    0.07134660   -0.11636535
     atom    6 type  1   force =    -0.00343165   -0.00821412   -0.04026808
     atom    7 type  2   force =     0.08581934    0.00052813   -0.01615385
     atom    8 type  2   force =    -0.03859564    0.07801005   -0.02805953
     atom    9 type  2   force =    -0.03702166   -0.07513942   -0.02557742
     atom   10 type  2   force =     0.00102773    0.00014882    0.11220979
     atom   11 type  4   force =     0.01973760    0.10961961    0.02064621
     atom   12 type  4   force =     0.13764610   -0.00928196    0.04377979
     atom   13 type  3   force =    -0.11669584   -0.19407687    0.17178810
     atom   14 type  2   force =     0.01371571    0.02705937   -0.12199979
     atom   15 type  2   force =    -0.06220159    0.07134662   -0.11636537
     atom   16 type  1   force =    -0.00343160   -0.00821406   -0.04026804
     atom   17 type  2   force =     0.08581936    0.00052814   -0.01615389
     atom   18 type  2   force =    -0.03859561    0.07801005   -0.02805951
     atom   19 type  2   force =    -0.03702167   -0.07513941   -0.02557741
     atom   20 type  2   force =     0.00102773    0.00014878    0.11220982
     atom   21 type  4   force =     0.01973751    0.10961955    0.02064626
     atom   22 type  4   force =     0.13764602   -0.00928192    0.04377980
     atom   23 type  3   force =    -0.11669581   -0.19407691    0.17178814
     atom   24 type  2   force =     0.01371569    0.02705936   -0.12199980
     atom   25 type  2   force =    -0.06220158    0.07134662   -0.11636537
     atom   26 type  1   force =    -0.00343160   -0.00821406   -0.04026805
     atom   27 type  2   force =     0.08581938    0.00052814   -0.01615389
     atom   28 type  2   force =    -0.03859563    0.07801006   -0.02805952
     atom   29 type  2   force =    -0.03702166   -0.07513940   -0.02557741
     atom   30 type  2   force =     0.00102773    0.00014879    0.11220981
     atom   31 type  4   force =     0.01973762    0.10961935    0.02064617
     atom   32 type  4   force =     0.13764574   -0.00928207    0.04377994
     atom   33 type  3   force =    -0.11669586   -0.19407688    0.17178812
     atom   34 type  2   force =     0.01371568    0.02705936   -0.12199979
     atom   35 type  2   force =    -0.06220157    0.07134660   -0.11636535
     atom   36 type  1   force =    -0.00343166   -0.00821413   -0.04026807
     atom   37 type  2   force =     0.08581933    0.00052814   -0.01615385
     atom   38 type  2   force =    -0.03859568    0.07801009   -0.02805955
     atom   39 type  2   force =    -0.03702166   -0.07513942   -0.02557742
     atom   40 type  2   force =     0.00102773    0.00014882    0.11220981
     atom   41 type  4   force =     0.01973755    0.10961937    0.02064613
     atom   42 type  4   force =     0.13764608   -0.00928190    0.04377980
     atom   43 type  3   force =    -0.11669584   -0.19407684    0.17178813
     atom   44 type  2   force =     0.01371570    0.02705937   -0.12199979
     atom   45 type  2   force =    -0.06220158    0.07134661   -0.11636536
     atom   46 type  1   force =    -0.00343160   -0.00821407   -0.04026804
     atom   47 type  2   force =     0.08581933    0.00052813   -0.01615387
     atom   48 type  2   force =    -0.03859559    0.07801003   -0.02805950
     atom   49 type  2   force =    -0.03702167   -0.07513942   -0.02557742
     atom   50 type  2   force =     0.00102772    0.00014879    0.11220982
     atom   51 type  4   force =     0.01973773    0.10961926    0.02064631
     atom   52 type  4   force =     0.13764590   -0.00928202    0.04377998
     atom   53 type  3   force =    -0.11669587   -0.19407678    0.17178810
     atom   54 type  2   force =     0.01371564    0.02705937   -0.12199979
     atom   55 type  2   force =    -0.06220157    0.07134657   -0.11636535
     atom   56 type  1   force =    -0.00343165   -0.00821411   -0.04026806
     atom   57 type  2   force =     0.08581934    0.00052813   -0.01615385
     atom   58 type  2   force =    -0.03859569    0.07801010   -0.02805955
     atom   59 type  2   force =    -0.03702165   -0.07513941   -0.02557741
     atom   60 type  2   force =     0.00102773    0.00014880    0.11220979
     atom   61 type  4   force =     0.01973767    0.10961919    0.02064612
     atom   62 type  4   force =     0.13764586   -0.00928204    0.04377994
     atom   63 type  3   force =    -0.11669588   -0.19407681    0.17178815
     atom   64 type  2   force =     0.01371566    0.02705936   -0.12199979
     atom   65 type  2   force =    -0.06220158    0.07134659   -0.11636536
     atom   66 type  1   force =    -0.00343165   -0.00821413   -0.04026807
     atom   67 type  2   force =     0.08581936    0.00052813   -0.01615386
     atom   68 type  2   force =    -0.03859572    0.07801012   -0.02805957
     atom   69 type  2   force =    -0.03702165   -0.07513941   -0.02557742
     atom   70 type  2   force =     0.00102773    0.00014881    0.11220980
     atom   71 type  4   force =     0.01973758    0.10961930    0.02064623
     atom   72 type  4   force =     0.13764614   -0.00928204    0.04377981
     atom   73 type  3   force =    -0.11669583   -0.19407689    0.17178811
     atom   74 type  2   force =     0.01371574    0.02705936   -0.12199980
     atom   75 type  2   force =    -0.06220159    0.07134665   -0.11636536
     atom   76 type  1   force =    -0.00343160   -0.00821408   -0.04026805
     atom   77 type  2   force =     0.08581937    0.00052813   -0.01615388
     atom   78 type  2   force =    -0.03859560    0.07801003   -0.02805950
     atom   79 type  2   force =    -0.03702167   -0.07513941   -0.02557741
     atom   80 type  2   force =     0.00102773    0.00014879    0.11220981

     Total force =     1.235583     Total SCF correction =     0.000265


     Computing stress (Cartesian axis) and pressure


     negative rho (up, down):  2.904E-01 0.000E+00
          total   stress  (Ry/bohr**3)                   (kbar)     P=-8551.59
  -0.05702473  -0.00009629  -0.00000909      -8388.63    -14.17     -1.34
  -0.00009629  -0.05796479  -0.00026394        -14.17  -8526.91    -38.83
  -0.00000909  -0.00026394  -0.05940800         -1.34    -38.83  -8739.22


     init_run     :     19.20s CPU     19.32s WALL (       1 calls)
     electrons    :    382.77s CPU    384.48s WALL (       1 calls)
     forces       :     12.56s CPU     12.64s WALL (       1 calls)
     stress       :     15.73s CPU     15.76s WALL (       1 calls)

     Called by init_run:
     wfcinit      :     18.31s CPU     18.36s WALL (       1 calls)
     potinit      :      0.03s CPU      0.04s WALL (       1 calls)
     hinit0       :      0.65s CPU      0.65s WALL (       1 calls)

     Called by electrons:
     c_bands      :    346.39s CPU    347.82s WALL (       9 calls)
     sum_band     :     34.21s CPU     34.37s WALL (       9 calls)
     v_of_rho     :      0.24s CPU      0.25s WALL (      10 calls)
     newd         :      2.10s CPU      2.26s WALL (      10 calls)
     mix_rho      :      0.03s CPU      0.03s WALL (       9 calls)

     Called by c_bands:
     init_us_2    :      1.01s CPU      1.06s WALL (     168 calls)
     cegterg      :    343.15s CPU    344.52s WALL (      72 calls)

     Called by sum_band:
     sum_band:bec :      0.12s CPU      0.13s WALL (      72 calls)
     addusdens    :      1.23s CPU      1.37s WALL (       9 calls)

     Called by *egterg:
     h_psi        :    168.41s CPU    169.10s WALL (     243 calls)
     s_psi        :     66.70s CPU     66.74s WALL (     243 calls)
     g_psi        :      0.32s CPU      0.32s WALL (     163 calls)
     cdiaghg      :     23.35s CPU     23.41s WALL (     235 calls)

     Called by h_psi:
     h_psi:pot    :    168.06s CPU    168.29s WALL (     243 calls)
     h_psi:calbec :     69.60s CPU     69.61s WALL (     243 calls)
     vloc_psi     :     31.53s CPU     31.73s WALL (     243 calls)
     add_vuspsi   :     66.92s CPU     66.94s WALL (     243 calls)

     General routines
     calbec       :    109.76s CPU    109.78s WALL (     355 calls)
     fft          :      0.15s CPU      0.15s WALL (     135 calls)
     ffts         :      0.01s CPU      0.01s WALL (       9 calls)
     fftw         :     32.91s CPU     33.10s WALL (   59144 calls)

     Parallel routines

     PWSCF        :   7m10.63s CPU   7m12.58s WALL


   This run was terminated on:   1: 8: 3  14Dec2020            

=------------------------------------------------------------------------------=
   JOB DONE.
=------------------------------------------------------------------------------=
