LAMMPS (3 Mar 2020)

# ---------- 1. Initialize simulation ----------
units metal
atom_style atomic
dimension 3
boundary p p p
read_data /home/modeler/RemLabs/Project/eval_timestep_nvt_fluc/n3_T1800_timestep1.488176e-03_steps13440/20201206-212517/lammps.data
  orthogonal box = (0 0 0) to (17.469 17.469 17.469)
  1 by 1 by 1 MPI processor grid
  reading atoms ...
  217 atoms
  read_data CPU = 0.000947932 secs

pair_style meam/c
pair_coeff * * library.meam Li Si LiSi.meam Li Si
Reading potential file library.meam with DATE: 2012-06-29
Reading potential file LiSi.meam with DATE: 2020-11-07

group Li type 1
1 atoms in group Li

velocity all create 1800 3320 dist gaussian

# ---------- 2. Describe computed properties----------
compute msdli Li msd
thermo_style custom step pe ke etotal temp press density c_msdli[4]
thermo 100

# ---------- 3. Specify ensemble  ----------
# fix 1 all npt temp 1800 1800 0.07440878604078296 tchain 2 iso 1.0 1.0 1.0 pchain 2
fix 1 all nvt temp 1800 1800 0.07440878604078296
# fix 1 all nve

# ---------- 4. Run -------------
timestep 0.0014881757208156593
run 13440
Neighbor list info ...
  update every 1 steps, delay 10 steps, check yes
  max neighbors/atom: 2000, page size: 100000
  master list distance cutoff = 6
  ghost atom cutoff = 6
  binsize = 3, bins = 6 6 6
  2 neighbor lists, perpetual/occasional/extra = 2 0 0
  (1) pair meam/c, perpetual
      attributes: full, newton on
      pair build: full/bin/atomonly
      stencil: full/bin/3d
      bin: standard
  (2) pair meam/c, perpetual, half/full from (1)
      attributes: half, newton on
      pair build: halffull/newton
      stencil: none
      bin: none
Per MPI rank memory allocation (min/avg/max) = 9.27 | 9.27 | 9.27 Mbytes
Step PotEng KinEng TotEng Temp Press Density c_msdli[4] 
       0   -951.04357    50.256344   -900.78722         1800   -114161.75    1.8918427            0 
     100   -915.68805    31.193196   -884.49486    1117.2272   -79916.635    1.8918427   0.05601982 
     200   -908.95474    49.676424   -859.27832    1779.2294   -69087.116    1.8918427   0.44436833 
     300   -903.15502    58.205583   -844.94944    2084.7129   -62892.757    1.8918427   0.13611722 
     400   -902.79227    45.513515   -857.27876    1630.1291   -63885.832    1.8918427  0.035939624 
     500   -906.12775    49.033585   -857.09417    1756.2052   -64008.991    1.8918427   0.24751227 
     600   -900.70667     52.38859   -848.31808    1876.3693   -59317.716    1.8918427   0.24907078 
     700   -905.77673    50.081456   -855.69527    1793.7361   -67401.917    1.8918427   0.18784593 
     800   -905.12072    49.580065   -855.54065    1775.7781   -65876.913    1.8918427   0.14202881 
     900   -902.56255    54.063219   -848.49933    1936.3485   -62321.889    1.8918427   0.13778532 
    1000   -905.60618    46.480003   -859.12618    1664.7451   -66486.578    1.8918427   0.25226574 
    1100   -898.05785    44.705992   -853.35186    1601.2065   -62761.699    1.8918427   0.56206208 
    1200   -902.92636     52.46165   -850.46471     1878.986   -62552.434    1.8918427   0.10939055 
    1300   -904.81933    48.520033   -856.29929    1737.8116   -68016.232    1.8918427   0.12278843 
    1400   -905.77936    51.781938   -853.99743    1854.6412     -69691.5    1.8918427   0.62324603 
    1500   -903.63661    55.057944   -848.57866    1971.9759   -65582.825    1.8918427    2.0464784 
    1600   -907.72566    49.227821   -858.49784     1763.162   -68386.579    1.8918427   0.65191155 
    1700   -904.41037    50.253875    -854.1565    1799.9116   -68416.043    1.8918427  0.043396814 
    1800    -901.3354    49.097545   -852.23785     1758.496   -64157.635    1.8918427   0.22527247 
    1900   -904.83147    47.589276   -857.24219    1704.4753   -68196.601    1.8918427   0.18885153 
    2000   -902.95569    43.591794    -859.3639       1561.3   -68215.101    1.8918427   0.16732404 
    2100   -902.90267     52.38089   -850.52178    1876.0935   -65217.818    1.8918427   0.41107313 
    2200   -907.78986     54.21054   -853.57932    1941.6249   -69979.246    1.8918427   0.40663571 
    2300   -905.37113     45.35102   -860.02011    1624.3091    -68417.48    1.8918427   0.36482875 
    2400    -905.5981    56.798069   -848.80003    2034.3009   -65454.757    1.8918427   0.11243249 
    2500   -901.17275     47.16959   -854.00316    1689.4437   -64778.083    1.8918427   0.07239028 
    2600   -908.55439    47.996023   -860.55837    1719.0435   -73281.991    1.8918427  0.048288701 
    2700   -902.82214    53.433096   -849.38904    1913.7797   -66149.557    1.8918427   0.20574035 
    2800   -903.33623    50.247528    -853.0887    1799.6842    -67326.96    1.8918427   0.49957406 
    2900   -909.11097    52.737332   -856.37364      1888.86   -71364.861    1.8918427   0.05713839 
    3000   -902.04015    56.809619   -845.23053    2034.7145   -65813.676    1.8918427  0.075561735 
    3100   -903.25657    48.945449   -854.31112    1753.0485   -68798.627    1.8918427   0.26337191 
    3200   -905.33793    51.016211   -854.32172    1827.2157   -68810.116    1.8918427  0.056052185 
    3300   -899.93947    55.355522   -844.58395     1982.634   -64201.124    1.8918427  0.017094355 
    3400   -903.36227    50.517884   -852.84438    1809.3674   -66109.912    1.8918427   0.16388296 
    3500    -902.3657    47.665118   -854.70058    1707.1917   -66394.011    1.8918427   0.02540168 
    3600   -901.09639    54.244872   -846.85152    1942.8546   -63153.748    1.8918427  0.061471166 
    3700   -901.72666    48.661907   -853.06475     1742.893   -66273.456    1.8918427  0.089815975 
    3800   -905.47475    50.838877   -854.63587    1820.8642   -69215.193    1.8918427   0.10029924 
    3900   -906.89742    58.174115    -848.7233    2083.5858   -68672.273    1.8918427   0.18867957 
    4000   -895.57658    53.568647   -842.00793    1918.6347   -56808.548    1.8918427   0.12696054 
    4100   -902.66004    49.072513   -853.58753    1757.5995    -66564.13    1.8918427  0.032754196 
    4200   -905.82766    50.607236   -855.22043    1812.5677   -68613.382    1.8918427   0.12047153 
    4300   -896.87893    48.966524   -847.91241    1753.8033   -59008.998    1.8918427    0.8170141 
    4400   -903.10209    50.020794    -853.0813    1791.5634   -67439.337    1.8918427   0.28099658 
    4500   -901.57136    46.115802   -855.45556    1651.7008   -64341.519    1.8918427    1.0734059 
    4600   -899.40322    49.848683   -849.55453     1785.399   -63648.571    1.8918427   0.89008173 
    4700   -901.92155    47.696945    -854.2246    1708.3316   -65717.502    1.8918427   0.38368562 
    4800   -906.05901    49.328805    -856.7302    1766.7789   -66522.784    1.8918427   0.22315022 
    4900    -902.3853    53.746295   -848.63901    1924.9974   -63651.119    1.8918427   0.13096792 
    5000   -901.60574    49.728159   -851.87758    1781.0823   -66211.394    1.8918427   0.22819556 
    5100   -903.52199     50.15683   -853.36516    1796.4358   -65326.272    1.8918427    0.1844073 
    5200   -899.95875    53.292686   -846.66606    1908.7507   -65002.297    1.8918427   0.13025515 
    5300    -901.8429    52.666423   -849.17648    1886.3203    -64871.49    1.8918427  0.095678969 
    5400   -904.94968    49.713026   -855.23666    1780.5403   -68478.616    1.8918427  0.032219269 
    5500   -901.57942    53.548048   -848.03137    1917.8969   -62324.475    1.8918427  0.083712575 
    5600   -898.77709    48.697501   -850.07959    1744.1679   -59286.641    1.8918427  0.069305213 
    5700   -903.42926     48.39263   -855.03663    1733.2485   -67547.829    1.8918427    1.7353777 
    5800   -902.73033    55.067728    -847.6626    1972.3263   -63555.383    1.8918427   0.33255804 
    5900    -905.0821    47.721016   -857.36108    1709.1937    -70715.59    1.8918427    1.1636444 
    6000   -906.97274    52.750981   -854.22176    1889.3488   -67832.345    1.8918427    11.418986 
    6100   -901.99349    52.355423   -849.63807    1875.1814   -66644.942    1.8918427      1.73707 
    6200   -904.08918    52.560799   -851.52838    1882.5372   -69784.323    1.8918427    1.5824359 
    6300   -900.06196    47.972486   -852.08947    1718.2005   -62887.716    1.8918427    4.0953705 
    6400   -901.68525    51.557929   -850.12732     1846.618   -63455.996    1.8918427    10.001938 
    6500   -898.90104     52.33041   -846.57063    1874.2855   -63845.179    1.8918427    3.7481093 
    6600    -900.7244    48.071636   -852.65276    1721.7517   -65644.914    1.8918427    3.7084848 
    6700   -900.08102    44.764718    -855.3163    1603.3099   -66920.123    1.8918427    5.7555783 
    6800   -899.69787    54.795878   -844.90199    1962.5896    -64338.21    1.8918427    4.7177003 
    6900   -900.66993    48.711327   -851.95861    1744.6631   -62874.771    1.8918427   0.58125974 
    7000   -905.77393    53.483251   -852.29067    1915.5761   -69186.121    1.8918427     1.454686 
    7100   -899.96499    55.063405   -844.90159    1972.1715    -61287.08    1.8918427    5.5395315 
    7200   -900.23625    49.178811   -851.05744    1761.4067   -65140.927    1.8918427    8.2307217 
    7300   -899.51033    46.290294   -853.22004    1657.9504    -66381.46    1.8918427    10.619463 
    7400   -898.07258    52.350475    -845.7221    1875.0042   -62417.444    1.8918427    4.1548726 
    7500   -897.43354    50.278616   -847.15493    1800.7977   -61759.579    1.8918427    4.4598314 
    7600   -905.32674    50.717706   -854.60904    1816.5243   -68628.734    1.8918427    6.5135745 
    7700    -902.0902    53.814726   -848.27547    1927.4483   -65424.136    1.8918427    6.8472319 
    7800   -897.75046    50.074507   -847.67595    1793.4872   -62425.464    1.8918427    4.0959146 
    7900   -904.55537    52.568872    -851.9865    1882.8264   -65749.982    1.8918427    6.7686157 
    8000   -905.01885    51.521799   -853.49705     1845.324    -66396.14    1.8918427    4.3192719 
    8100   -900.87444    51.480297   -849.39414    1843.8375    -62246.01    1.8918427    3.8971285 
    8200   -899.12272    50.256575   -848.86615    1800.0083    -63898.28    1.8918427    4.9417072 
    8300   -901.40827    43.585632   -857.82264    1561.0793   -67746.691    1.8918427    4.1596572 
    8400   -900.87966    48.209378   -852.67028    1726.6851   -66707.089    1.8918427    6.7149894 
    8500   -901.77988    51.647077    -850.1328     1849.811    -66516.68    1.8918427    4.5717438 
    8600   -903.06072    47.427105   -855.63361    1698.6669   -70420.452    1.8918427    5.7987811 
    8700   -898.96862    47.053789   -851.91483    1685.2961    -64866.55    1.8918427    2.7416805 
    8800   -897.59716    49.848293   -847.74887    1785.3851   -64609.968    1.8918427    2.2644043 
    8900   -899.23836    46.547166   -852.69119    1667.1507   -65146.068    1.8918427    5.7806003 
    9000   -897.81709    52.492776   -845.32431    1880.1009   -62095.075    1.8918427    4.8164786 
    9100   -901.36852    49.447013    -851.9215    1771.0127   -65103.819    1.8918427    3.9013475 
    9200   -901.65198    46.186921   -855.46506     1654.248   -69592.832    1.8918427    8.6194668 
    9300   -900.68216     57.78917   -842.89299    2069.7985   -64695.693    1.8918427    9.8003201 
    9400   -899.23942    47.586229   -851.65319    1704.3662   -66696.162    1.8918427   0.69107212 
    9500   -905.24128    50.858257   -854.38302    1821.5583   -68487.728    1.8918427   0.17526119 
    9600   -891.09663    46.821573   -844.27506    1676.9789   -56623.169    1.8918427    2.0664037 
    9700    -903.1787      55.0999    -848.0788    1973.4786   -65644.063    1.8918427   0.50828058 
    9800   -902.57916    49.047887   -853.53127    1756.7174   -67627.326    1.8918427    11.440457 
    9900   -903.79972    51.214917   -852.58481    1834.3326   -68242.142    1.8918427    5.8904505 
   10000   -896.42414    50.630342   -845.79379    1813.3952   -61349.537    1.8918427    6.1612337 
   10100    -905.7176     51.24705   -854.47055    1835.4835   -70649.092    1.8918427    3.8313661 
   10200    -904.5818    51.664051   -852.91775    1850.4189   -68999.872    1.8918427    8.8138566 
   10300   -904.17211    59.369352   -844.80276    2126.3949   -67185.314    1.8918427    4.4260626 
   10400   -902.56428    52.018131   -850.54615    1863.1008   -66305.749    1.8918427    3.2065836 
   10500   -903.72518    48.662492   -855.06268     1742.914   -67767.633    1.8918427    9.7996144 
   10600   -900.82544    55.592609   -845.23283    1991.1257   -62440.579    1.8918427     15.44434 
   10700   -902.19245    49.861386   -852.33106     1785.854   -66567.766    1.8918427     18.20296 
   10800    -904.2663    50.206416   -854.05988    1798.2118   -65801.048    1.8918427    15.477286 
   10900   -898.42935    51.851731   -846.57762     1857.141   -62939.083    1.8918427     19.60754 
   11000   -903.59413    56.655378   -846.93875    2029.1902   -66401.734    1.8918427    23.403905 
   11100   -902.54785    49.810049    -852.7378    1784.0153   -66475.944    1.8918427    16.844537 
   11200   -908.49153    53.291886   -855.19965    1908.7221   -70646.532    1.8918427    17.816344 
   11300   -898.69208    52.965242   -845.72684    1897.0229   -62172.872    1.8918427    19.186182 
   11400   -904.41849     50.57631   -853.84218      1811.46   -66939.429    1.8918427    15.575429 
   11500     -903.041    49.407112   -853.63389    1769.5836   -66682.463    1.8918427    18.140423 
   11600    -902.4889     57.15204   -845.33686    2046.9788   -64450.332    1.8918427    17.975818 
   11700   -899.14821    48.334775   -850.81344    1731.1764   -65632.041    1.8918427    18.208102 
   11800   -906.30457    51.506175    -854.7984    1844.7644   -69829.046    1.8918427    14.827595 
   11900   -901.92675     49.80418   -852.12257    1783.8051   -66621.938    1.8918427    17.175994 
   12000    -902.2155    55.599269   -846.61623    1991.3642   -64965.361    1.8918427    17.335154 
   12100   -902.79956    47.208952   -855.59061    1690.8534   -65928.446    1.8918427    17.011496 
   12200   -902.74469    51.792979   -850.95171    1855.0367   -68483.436    1.8918427    20.611842 
   12300   -899.99538    55.437733   -844.55765    1985.5786    -62252.07    1.8918427    18.004552 
   12400   -902.93026    47.761659    -855.1686    1710.6494   -68444.039    1.8918427    14.778922 
   12500   -899.89149    46.959633   -852.93185    1681.9237   -68071.775    1.8918427    13.749678 
   12600   -896.67649    48.667846   -848.00865    1743.1057    -62908.95    1.8918427    16.316439 
   12700   -904.03906    52.125589   -851.91347    1866.9496   -68367.694    1.8918427    8.3730966 
   12800   -901.26087    49.097602   -852.16326     1758.498   -66604.543    1.8918427    7.8715418 
   12900   -900.84179    50.037663   -850.80412    1792.1676   -66436.424    1.8918427    5.9653577 
   13000   -902.19707    55.942452   -846.25462    2003.6557   -67015.867    1.8918427    5.5584116 
   13100   -899.29318     45.81829   -853.47489     1641.045   -65749.339    1.8918427     6.270794 
   13200    -900.1357     44.30672   -855.82898     1586.906   -67158.385    1.8918427    6.2616436 
   13300   -902.93091    55.720767   -847.21014    1995.7158   -67434.986    1.8918427    5.8981234 
   13400   -901.75771    48.831139   -852.92657    1748.9543   -67691.898    1.8918427    5.9555311 
   13440   -904.94869    49.918788    -855.0299      1787.91   -69765.168    1.8918427    5.5458729 
Loop time of 7.42967 on 1 procs for 13440 steps with 217 atoms

Performance: 232.594 ns/day, 0.103 hours/ns, 1808.964 timesteps/s
99.9% CPU use with 1 MPI tasks x no OpenMP threads

MPI task timing breakdown:
Section |  min time  |  avg time  |  max time  |%varavg| %total
---------------------------------------------------------------
Pair    | 7.1236     | 7.1236     | 7.1236     |   0.0 | 95.88
Neigh   | 0.17226    | 0.17226    | 0.17226    |   0.0 |  2.32
Comm    | 0.058306   | 0.058306   | 0.058306   |   0.0 |  0.78
Output  | 0.0038528  | 0.0038528  | 0.0038528  |   0.0 |  0.05
Modify  | 0.055629   | 0.055629   | 0.055629   |   0.0 |  0.75
Other   |            | 0.01604    |            |       |  0.22

Nlocal:    217 ave 217 max 217 min
Histogram: 1 0 0 0 0 0 0 0 0 0
Nghost:    903 ave 903 max 903 min
Histogram: 1 0 0 0 0 0 0 0 0 0
Neighs:    3630 ave 3630 max 3630 min
Histogram: 1 0 0 0 0 0 0 0 0 0
FullNghs:  7260 ave 7260 max 7260 min
Histogram: 1 0 0 0 0 0 0 0 0 0

Total # of neighbors = 7260
Ave neighs/atom = 33.4562
Neighbor list builds = 315
Dangerous builds = 0
Total wall time: 0:00:07
