LAMMPS (3 Mar 2020)

# ---------- 1. Initialize simulation ----------
units metal
atom_style atomic
dimension 3
boundary p p p
read_data /home/modeler/RemLabs/Project/Li_diffusion_constant_T=800/20201204-003744/lammps.data
  orthogonal box = (0 0 0) to (17.469 17.469 17.469)
  1 by 1 by 1 MPI processor grid
  reading atoms ...
  217 atoms
  read_data CPU = 0.000954795 secs

pair_style meam/c
pair_coeff * * library.meam Li Si LiSi.meam Li Si
Reading potential file library.meam with DATE: 2012-06-29
Reading potential file LiSi.meam with DATE: 2020-11-07

group Li type 1
1 atoms in group Li

velocity all create 800 3320 dist gaussian

# ---------- 2. Describe computed properties----------
compute msdli Li msd
thermo_style custom step pe ke etotal temp press density c_msdli[4]
thermo 100

# ---------- 3. Specify ensemble  ----------
#fix 1 all nve
fix 1 all nvt temp 800 800 0.25
#fix 1 all npt temp 800 800 0.25 tchain 2 iso 1.0 1.0 1.0 pchain 2

# ---------- 4. Run -------------
timestep 0.005
run 5000
Neighbor list info ...
  update every 1 steps, delay 10 steps, check yes
  max neighbors/atom: 2000, page size: 100000
  master list distance cutoff = 6
  ghost atom cutoff = 6
  binsize = 3, bins = 6 6 6
  2 neighbor lists, perpetual/occasional/extra = 2 0 0
  (1) pair meam/c, perpetual
      attributes: full, newton on
      pair build: full/bin/atomonly
      stencil: full/bin/3d
      bin: standard
  (2) pair meam/c, perpetual, half/full from (1)
      attributes: half, newton on
      pair build: halffull/newton
      stencil: none
      bin: none
Per MPI rank memory allocation (min/avg/max) = 9.266 | 9.266 | 9.266 Mbytes
Step PotEng KinEng TotEng Temp Press Density c_msdli[4] 
       0   -951.06911    22.336153   -928.73295          800   -119776.44    1.8918427            0 
     100   -936.96652    16.163852   -920.80266    578.93055   -103835.88    1.8918427  0.020208201 
     200   -931.67078    21.873188    -909.7976    783.41826   -98672.645    1.8918427  0.038418419 
     300      -931.21     27.15574   -904.05426    972.62013   -96366.323    1.8918427   0.12196552 
     400    -931.3364     22.48211   -908.85429    805.22764   -98368.011    1.8918427 0.0053273009 
     500   -930.66682    21.685504   -908.98132     776.6961   -97095.718    1.8918427   0.02266127 
     600   -929.57502    24.336725    -905.2383    871.65324   -95959.018    1.8918427      0.11559 
     700   -929.41888    21.067249   -908.35163    754.55245   -95215.622    1.8918427  0.019080972 
     800    -930.1037    21.447298    -908.6564    768.16443   -96290.246    1.8918427  0.032906712 
     900    -927.9526    22.783804   -905.16879    816.03325   -93488.236    1.8918427  0.034104352 
    1000    -930.1731    22.780725   -907.39237    815.92297   -96871.231    1.8918427 0.0083212673 
    1100   -929.62176    21.922945   -907.69881     785.2004   -96216.096    1.8918427   0.10687773 
    1200   -927.30101     22.24164   -905.05937    796.61488   -94490.444    1.8918427  0.023111109 
    1300   -929.79322     22.59848   -907.19474    809.39561   -97212.734    1.8918427   0.19100498 
    1400   -929.90586    21.421347   -908.48452    767.23497   -96464.245    1.8918427  0.035743921 
    1500   -928.03479    23.762617   -904.27217    851.09076   -94749.701    1.8918427  0.026969163 
    1600   -926.86113    21.111199   -905.74993    756.12657   -92788.077    1.8918427  0.030868033 
    1700   -931.61642    23.327611   -908.28881    835.51045   -98749.894    1.8918427  0.011568423 
    1800   -929.42426    21.823571   -907.60069    781.64116   -95648.686    1.8918427  0.039429154 
    1900   -928.50204    23.740818   -904.76122       850.31   -94306.004    1.8918427  0.013510522 
    2000   -930.46212    20.973897   -909.48822    751.20891    -97466.36    1.8918427  0.029470866 
    2100   -931.12726    23.996789   -907.13047    859.47797   -98201.907    1.8918427  0.024422715 
    2200    -929.7652    23.705951   -906.05925    849.06119   -96115.953    1.8918427  0.045965166 
    2300   -928.68981    21.268181   -907.42163    761.74912   -95614.546    1.8918427  0.036200124 
    2400   -930.20446    21.355608   -908.84885    764.88042   -97195.289    1.8918427  0.056364613 
    2500   -930.04095    22.440764   -907.60018     803.7468   -95199.283    1.8918427  0.012427672 
    2600   -928.32731    22.885795   -905.44151    819.68619   -95419.815    1.8918427  0.048183147 
    2700   -932.39158    22.501254   -909.89033    805.91332   -99621.113    1.8918427  0.064926282 
    2800   -929.38856    22.254518   -907.13404    797.07612   -97062.922    1.8918427  0.087115181 
    2900   -927.95937    21.294162   -906.66521    762.67966   -96896.779    1.8918427 0.0036004912 
    3000   -930.64371    19.636136   -911.00757    703.29518   -97155.699    1.8918427  0.077822845 
    3100   -929.62931    22.651698   -906.97762    811.30168   -96773.261    1.8918427  0.021094705 
    3200   -930.07292    22.953556   -907.11936    822.11313   -97514.448    1.8918427  0.099147323 
    3300   -932.85353    21.892358   -910.96117    784.10488   -99806.872    1.8918427  0.026840994 
    3400   -928.16255    20.643042   -907.51951    739.35891   -94395.257    1.8918427  0.073942826 
    3500   -928.18424    21.219205   -906.96503    759.99497   -95074.548    1.8918427   0.14359931 
    3600   -930.90821     22.22813   -908.68008    796.13102   -97481.636    1.8918427  0.042075418 
    3700   -929.81327    21.056688   -908.75658     754.1742   -97054.455    1.8918427  0.035562622 
    3800   -929.95074    24.415075   -905.53567    874.45944   -96646.659    1.8918427  0.082640077 
    3900   -930.45633    22.216003   -908.24033    795.69664    -98195.99    1.8918427 0.0048205533 
    4000   -928.75798    20.916791   -907.84119    749.16361   -96483.683    1.8918427   0.11829387 
    4100   -928.64652    22.336147   -906.31038    799.99978   -95772.247    1.8918427  0.021495177 
    4200   -927.55826    22.551644   -905.00661    807.71811   -94655.365    1.8918427  0.048636567 
    4300   -929.07883    19.939361   -909.13947    714.15562   -97023.294    1.8918427  0.017110591 
    4400   -928.27379    22.123111   -906.15068    792.36959   -96927.324    1.8918427  0.095081092 
    4500    -927.8069    22.869215   -904.93768    819.09236   -96139.637    1.8918427  0.012278496 
    4600   -930.29907    22.124779   -908.17429    792.42935   -96764.435    1.8918427  0.047275202 
    4700    -930.8976    22.646367   -908.25123    811.11072   -97269.578    1.8918427   0.06350454 
    4800   -927.36268     22.65776   -904.70492    811.51879   -94396.928    1.8918427  0.071825196 
    4900   -929.73597    21.644479    -908.0915    775.22674   -97172.905    1.8918427  0.034033851 
    5000   -929.32255    21.849329   -907.47322    782.56372   -96168.235    1.8918427  0.033550613 
Loop time of 2.63372 on 1 procs for 5000 steps with 217 atoms

Performance: 820.132 ns/day, 0.029 hours/ns, 1898.454 timesteps/s
100.0% CPU use with 1 MPI tasks x no OpenMP threads

MPI task timing breakdown:
Section |  min time  |  avg time  |  max time  |%varavg| %total
---------------------------------------------------------------
Pair    | 2.5841     | 2.5841     | 2.5841     |   0.0 | 98.11
Neigh   | 0          | 0          | 0          |   0.0 |  0.00
Comm    | 0.020892   | 0.020892   | 0.020892   |   0.0 |  0.79
Output  | 0.0014624  | 0.0014624  | 0.0014624  |   0.0 |  0.06
Modify  | 0.020787   | 0.020787   | 0.020787   |   0.0 |  0.79
Other   |            | 0.006509   |            |       |  0.25

Nlocal:    217 ave 217 max 217 min
Histogram: 1 0 0 0 0 0 0 0 0 0
Nghost:    950 ave 950 max 950 min
Histogram: 1 0 0 0 0 0 0 0 0 0
Neighs:    3702 ave 3702 max 3702 min
Histogram: 1 0 0 0 0 0 0 0 0 0
FullNghs:  7404 ave 7404 max 7404 min
Histogram: 1 0 0 0 0 0 0 0 0 0

Total # of neighbors = 7404
Ave neighs/atom = 34.1198
Neighbor list builds = 0
Dangerous builds = 0
Total wall time: 0:00:02
