LAMMPS (3 Mar 2020)

    # ---------- Initialize simulation ---------------------
    units metal
    atom_style atomic
    dimension  3
    boundary   p p p
    read_data /home/modeler/RemLabs/Lab4/Problem2A_size_3/temp_1350/lammps.data
  orthogonal box = (0 0 0) to (12.27 12.27 12.27)
  1 by 1 by 1 MPI processor grid
  reading atoms ...
  108 atoms
  read_data CPU = 0.000906784 secs

    pair_style eam
    pair_coeff * * /usr/share/lammps-stable/potentials/Ag_u3.eam
Reading potential file /usr/share/lammps-stable/potentials/Ag_u3.eam with DATE: 2007-06-11

    velocity  all create 1350 87287 dist gaussian

    # ---------- Describe computed properties------------------
    compute msdall all msd
    thermo_style custom step pe ke etotal temp press density c_msdall[4]
    thermo 100

    # ---------- Specify ensemble  ---------------------
    #fix  1 all nve
    fix  1 all nvt temp 1350 1350 0.05

    # --------- Compute RDF ---------------
    compute rdfall all rdf 100 1 1
    fix 2 all ave/time 1 2500 2500 c_rdfall[*] file /home/modeler/RemLabs/Lab4/Problem2A_size_3/temp_1350/lammps.rdf mode vector

    # --------- Run -------------
    timestep 0.001
    run 10000
Neighbor list info ...
  update every 1 steps, delay 10 steps, check yes
  max neighbors/atom: 2000, page size: 100000
  master list distance cutoff = 7.55
  ghost atom cutoff = 7.55
  binsize = 3.775, bins = 4 4 4
  2 neighbor lists, perpetual/occasional/extra = 1 1 0
  (1) pair eam, perpetual
      attributes: half, newton on
      pair build: half/bin/atomonly/newton
      stencil: half/bin/3d/newton
      bin: standard
  (2) compute rdf, occasional, copy from (1)
      attributes: half, newton on
      pair build: copy
      stencil: none
      bin: none
Per MPI rank memory allocation (min/avg/max) = 3.723 | 3.723 | 3.723 Mbytes
Step PotEng KinEng TotEng Temp Press Density c_msdall[4] 
       0       -307.8    18.671628   -289.12837         1350    10796.059    10.472245            0 
     100   -295.75011    11.361014    -284.3891    821.42647    47313.713    10.472245  0.073790908 
     200   -292.10004    18.924078   -273.17596    1368.2527    64168.306    10.472245  0.086767122 
     300   -287.58677    22.428632   -265.15813    1621.6397    81563.914    10.472245   0.10378851 
     400   -288.63671     17.21851    -271.4182    1244.9363    74598.932    10.472245   0.11166392 
     500   -291.28923    20.813304   -270.47593    1504.8479    69675.914    10.472245    0.0822652 
     600   -290.82624    17.838568   -272.98767    1289.7679    66869.231    10.472245   0.09397822 
     700    -288.6439    18.822837   -269.82106    1360.9328    76344.547    10.472245    0.1091805 
     800   -289.21385    19.197895   -270.01596    1388.0503    73840.574    10.472245  0.099952172 
     900   -289.20509    17.628502   -271.57659    1274.5797    71985.337    10.472245    0.1028327 
    1000    -288.6312    20.950138   -267.68106    1514.7413    77790.842    10.472245  0.097567333 
    1100   -287.02748    19.704395   -267.32308    1424.6713    82729.518    10.472245   0.12293544 
    1200   -288.14778     17.91474   -270.23304    1295.2753    77782.895    10.472245   0.12435992 
    1300    -288.1877    19.280273   -268.90743    1394.0064    78078.434    10.472245   0.10443008 
    1400   -289.49397    18.472793   -271.02118    1335.6238    73240.666    10.472245  0.085383777 
    1500   -289.63358    17.492376   -272.14121    1264.7375    72449.654    10.472245   0.10410285 
    1600   -287.10656    19.760894   -267.34567    1428.7564    80912.775    10.472245   0.11866852 
    1700   -288.17356     19.12581   -269.04775    1382.8384    77580.024    10.472245   0.10674836 
    1800   -291.57974    18.931263   -272.64847    1368.7722    66515.774    10.472245  0.093603513 
    1900   -290.04623    18.226264   -271.81997    1317.7992    71646.384    10.472245   0.10683961 
    2000   -289.59052    20.989939   -268.60058     1517.619     73694.24    10.472245  0.099681353 
    2100   -290.27297    18.500507   -271.77246    1337.6276    69819.455    10.472245   0.10215682 
    2200   -287.97719    20.048975   -267.92821    1449.5853    78545.522    10.472245   0.10097925 
    2300   -288.87559    16.496054   -272.37953    1192.7012    74126.207    10.472245   0.10189333 
    2400   -289.99826    17.014136   -272.98412    1230.1597    71757.146    10.472245  0.086118185 
    2500    -287.0388    19.717299    -267.3215    1425.6043    81840.798    10.472245  0.093262927 
    2600   -289.05559    18.314665   -270.74092    1324.1908     74806.89    10.472245  0.097894127 
    2700   -287.68548    17.183605   -270.50188    1242.4126    80555.323    10.472245  0.099365727 
    2800   -287.10959     17.35029    -269.7593    1254.4644    81248.241    10.472245   0.10481322 
    2900   -288.99462    15.375021    -273.6196     1111.648    73360.477    10.472245  0.098246675 
    3000   -290.51433    18.648194   -271.86613    1348.3056    71202.651    10.472245  0.088127579 
    3100   -287.56678    19.421132   -268.14565    1404.1908    80909.183    10.472245   0.10549921 
    3200   -290.40205    19.840916   -270.56113    1434.5421    70673.416    10.472245  0.094452403 
    3300   -291.26853    17.445773   -273.82275    1261.3679    67705.786    10.472245  0.085023251 
    3400   -288.22642    18.543961   -269.68246    1340.7694    76752.925    10.472245   0.10464476 
    3500   -286.90264    17.673224   -269.22941    1277.8132    81695.631    10.472245    0.1152816 
    3600   -287.66282    20.579858   -267.08296    1487.9692    80964.656    10.472245  0.087662483 
    3700   -290.54392    19.677814    -270.8661    1422.7495    71422.879    10.472245  0.096549587 
    3800   -288.39952    17.615394   -270.78412    1273.6319    76327.096    10.472245   0.10648904 
    3900   -290.11597    21.055807   -269.06016    1522.3814    72348.503    10.472245  0.081199161 
    4000    -290.3624    18.639537   -271.72286    1347.6797    70394.544    10.472245  0.086601158 
    4100   -289.06749    19.613469   -269.45402    1418.0972    74701.782    10.472245  0.089525759 
    4200   -289.85691    18.792747   -271.06416    1358.7572    72861.537    10.472245  0.092465721 
    4300   -288.83766     18.41436    -270.4233    1331.3989    75349.284    10.472245   0.10582757 
    4400   -287.67453    20.629511   -267.04502    1491.5593    81788.177    10.472245   0.11155129 
    4500   -286.36254    18.340382   -268.02215    1326.0502    82180.399    10.472245   0.11759506 
    4600   -291.14172      19.4806   -271.66112    1408.4905    68310.625    10.472245  0.086349937 
    4700   -291.17121    15.190683   -275.98053      1098.32    65647.898    10.472245  0.085520924 
    4800   -290.61308    18.243465   -272.36961    1319.0429    67834.792    10.472245  0.086485425 
    4900   -288.92145    19.216189   -269.70526    1389.3729    75346.374    10.472245  0.098315227 
    5000   -286.97498    18.560336   -268.41464    1341.9533    81091.709    10.472245    0.1157056 
    5100   -289.51545    17.185254   -272.33019    1242.5319    70774.809    10.472245   0.10704828 
    5200   -289.69145    16.001806   -273.68964     1156.966     70854.17    10.472245   0.10207063 
    5300   -288.26783    18.100417   -270.16741    1308.7002    76497.405    10.472245   0.10660232 
    5400    -286.8608     17.84606   -269.01474    1290.3096    80954.888    10.472245   0.10997924 
    5500   -288.12799    16.670586    -271.4574    1205.3203    74630.664    10.472245  0.095636053 
    5600   -290.84477    16.425388   -274.41938    1187.5919    67427.006    10.472245  0.083956237 
    5700   -288.48511    18.949156   -269.53595    1370.0659    77646.312    10.472245   0.10134176 
    5800   -289.31718    19.783429   -269.53376    1430.3857    73799.621    10.472245   0.10676495 
    5900   -289.24081     16.98286   -272.25795    1227.8983    72132.018    10.472245   0.10299275 
    6000   -287.37718    19.048153   -268.32903    1377.2236    80525.159    10.472245   0.11702242 
    6100   -289.89955    17.747592   -272.15195    1283.1902    70598.983    10.472245     0.120653 
    6200    -291.7441    20.761412   -270.98268     1501.096    64942.013    10.472245  0.092187187 
    6300   -290.96404     19.28493    -271.6791    1394.3431    67567.823    10.472245  0.091866936 
    6400   -289.25274    21.242795   -268.00995    1535.9011    74680.813    10.472245  0.097724431 
    6500   -287.82126    16.373812   -271.44745    1183.8629    76161.022    10.472245   0.11831649 
    6600   -289.23146    20.108704   -269.12275    1453.9038    73692.667    10.472245   0.10547845 
    6700   -291.34965    17.106745   -274.24291    1236.8555    65985.594    10.472245  0.098696209 
    6800   -289.93552    18.808763   -271.12676    1359.9151    71254.133    10.472245  0.092517391 
    6900   -288.16881     19.08269   -269.08612    1379.7207    78246.715    10.472245    0.1018043 
    7000   -287.52509    16.840411   -270.68468     1217.599    79041.383    10.472245   0.10280342 
    7100   -288.63083    16.549449   -272.08138    1196.5618    73957.152    10.472245  0.095527583 
    7200   -289.55938    18.908019   -270.65136    1367.0916    73789.729    10.472245  0.096165809 
    7300   -287.87804    21.588966   -266.28908      1560.93    81231.449    10.472245    0.1041713 
    7400   -289.82045    18.332972   -271.48748    1325.5144     72261.99    10.472245   0.10719712 
    7500   -288.06071    17.507666   -270.55304     1265.843    76260.674    10.472245   0.10050133 
    7600    -288.6093     19.82289   -268.78641    1433.2388    77806.359    10.472245  0.086139146 
    7700   -291.38501     18.26762   -273.11739    1320.7893    66653.056    10.472245  0.084151399 
    7800   -286.48421    17.199994   -269.28422    1243.5976    82959.045    10.472245   0.10805732 
    7900   -289.46427    19.466701   -269.99757    1407.4855    73698.004    10.472245  0.099926859 
    8000    -290.6404    19.770272   -270.87013    1429.4344    70081.787    10.472245   0.10278425 
    8100   -288.63122    21.789544   -266.84168    1575.4323    76849.109    10.472245   0.11612973 
    8200   -287.38946    18.064142   -269.32532    1306.0774    79346.486    10.472245   0.12150238 
    8300   -290.18232    17.583676   -272.59865    1271.3387    69798.304    10.472245  0.088771945 
    8400   -292.94222    16.603397   -276.33882    1200.4624    60658.672    10.472245  0.078230653 
    8500   -289.86202    18.318244   -271.54378    1324.4495    70998.975    10.472245   0.10181364 
    8600   -288.73667    20.073897   -268.66277    1451.3871    75961.748    10.472245   0.11919887 
    8700   -289.03419     19.73762   -269.29657    1427.0736    72911.155    10.472245   0.12084588 
    8800   -289.46603     18.18094   -271.28509    1314.5222    72859.971    10.472245   0.11388781 
    8900   -291.85144    21.337718   -270.51372    1542.7642     65911.19    10.472245  0.096535325 
    9000   -288.33874    16.102961   -272.23578    1164.2797    75993.457    10.472245   0.12859904 
    9100   -288.69954    20.704054   -267.99548    1496.9489    75902.055    10.472245   0.11176451 
    9200   -290.61011    19.835859   -270.77425    1434.1765    70181.423    10.472245   0.10342922 
    9300     -290.931    18.336149   -272.59485    1325.7441    67409.178    10.472245   0.10002537 
    9400    -290.0237     16.27615   -273.74755    1176.8017    68852.009    10.472245   0.11909762 
    9500   -287.52779    18.576044   -268.95175    1343.0891    78987.121    10.472245   0.13064747 
    9600   -287.54168    20.164742   -267.37694    1457.9555    79683.384    10.472245   0.12041353 
    9700   -291.31795    18.011858   -273.30609    1302.2972    66008.832    10.472245    0.1015613 
    9800   -288.76978    18.172307   -270.59747     1313.898    75082.424    10.472245   0.09607437 
    9900    -289.0802    18.495354   -270.58485     1337.255    73554.858    10.472245   0.10049897 
   10000   -287.48146    17.183899   -270.29757    1242.4339    77756.479    10.472245   0.11431463 
Loop time of 2.63633 on 1 procs for 10000 steps with 108 atoms

Performance: 327.728 ns/day, 0.073 hours/ns, 3793.149 timesteps/s
99.7% CPU use with 1 MPI tasks x no OpenMP threads

MPI task timing breakdown:
Section |  min time  |  avg time  |  max time  |%varavg| %total
---------------------------------------------------------------
Pair    | 1.6674     | 1.6674     | 1.6674     |   0.0 | 63.25
Neigh   | 0.007445   | 0.007445   | 0.007445   |   0.0 |  0.28
Comm    | 0.043948   | 0.043948   | 0.043948   |   0.0 |  1.67
Output  | 0.0026027  | 0.0026027  | 0.0026027  |   0.0 |  0.10
Modify  | 0.90435    | 0.90435    | 0.90435    |   0.0 | 34.30
Other   |            | 0.01062    |            |       |  0.40

Nlocal:    108 ave 108 max 108 min
Histogram: 1 0 0 0 0 0 0 0 0 0
Nghost:    990 ave 990 max 990 min
Histogram: 1 0 0 0 0 0 0 0 0 0
Neighs:    5499 ave 5499 max 5499 min
Histogram: 1 0 0 0 0 0 0 0 0 0

Total # of neighbors = 5499
Ave neighs/atom = 50.9167
Neighbor list builds = 31
Dangerous builds = 0
    
Total wall time: 0:00:02
