LAMMPS (3 Mar 2020)
Reading data file ...
  orthogonal box = (0 0 0) to (17.469 17.469 17.469)
  1 by 1 by 1 MPI processor grid
  reading atoms ...
  217 atoms
  read_data CPU = 0.000950201 secs
Reading potential file library.meam with DATE: 2012-06-29
Reading potential file LiSi.meam with DATE: 2020-11-07
1 atoms in group Li
Neighbor list info ...
  update every 1 steps, delay 10 steps, check yes
  max neighbors/atom: 2000, page size: 100000
  master list distance cutoff = 6
  ghost atom cutoff = 6
  binsize = 3, bins = 6 6 6
  2 neighbor lists, perpetual/occasional/extra = 2 0 0
  (1) pair meam/c, perpetual
      attributes: full, newton on
      pair build: full/bin/atomonly
      stencil: full/bin/3d
      bin: standard
  (2) pair meam/c, perpetual, half/full from (1)
      attributes: half, newton on
      pair build: halffull/newton
      stencil: none
      bin: none
Setting up Verlet run ...
  Unit style    : metal
  Current step  : 0
  Time step     : 0.003
Per MPI rank memory allocation (min/avg/max) = 9.27 | 9.27 | 9.27 Mbytes
Step PotEng KinEng TotEng Temp Press Density c_msdli[4] 
       0   -951.06911    50.256344   -900.81276         1800    -114182.3    1.8918427            0 
     100   -957.02756     41.04986    -915.9777    1470.2571    14742.347    2.2321765   0.46297266 
     200   -952.40527    42.915715   -909.48955    1537.0853    22541.241     2.241742   0.60063682 
     300   -947.90634    43.470479   -904.43586    1556.9549   -24477.077    2.1145591   0.20066031 
     400    -945.2066    43.960399    -901.2462    1574.5021   -3558.1085    2.1625811   0.70271197 
     500   -946.58156     51.11957   -895.46199    1830.9176    22236.837    2.2247173   0.18694459 
     600   -937.86573    45.816325    -892.0494    1640.9746   -8581.8893    2.1306923   0.25105071 
     700   -938.15331    47.316791   -890.83652    1694.7158   -10157.917    2.1281412   0.10482827 
     800   -937.96515    52.922807   -885.04235     1895.503    17793.309    2.1970893   0.13226694 
     900   -942.14922    51.404844   -890.74438    1841.1351   -4006.5465    2.1539628   0.23538226 
    1000   -945.72115    49.654665   -896.06649      1778.45   -15109.652    2.1313346   0.19933029 
    1100   -940.11582    50.651269   -889.46455    1814.1448    13742.875    2.1950215    0.5391449 
    1200   -938.85055    50.308104   -888.54244    1801.8539    4536.9831    2.1685303   0.23735797 
    1300   -941.55382    53.242552   -888.31126    1906.9551   -18371.988    2.1136401   0.11878981 
    1400   -944.19953    46.630092   -897.56943    1670.1208    12099.903     2.200103   0.17439326 
    1500    -940.6249    51.340171   -889.28473    1838.8187    6760.1158     2.182362   0.37997577 
    1600   -939.42969    49.343547   -890.08615    1767.3069   -15275.739    2.1228964   0.58826119 
    1700   -940.19045     51.66173   -888.52872    1850.3358    1302.3495     2.163532  0.060529633 
    1800   -950.89469    51.452444   -899.44224    1842.8399    11733.752    2.2110855   0.58940671 
    1900   -945.46776    51.861463   -893.60629    1857.4895   -15219.214    2.1343848   0.36422074 
    2000   -940.48589    49.881183   -890.60471    1786.5631   -4691.1816    2.1522791   0.50713673 
    2100   -940.64414    53.017627   -887.62652    1898.8991    13698.801    2.1930437   0.43967355 
    2200   -945.04525    49.916753    -895.1285    1787.8371   -8252.2086    2.1487639     0.340913 
    2300   -941.62426    44.902638   -896.72163    1608.2496   -7813.7926    2.1501937   0.16220999 
    2400   -941.65827    53.074158   -888.58411    1900.9239    12386.349    2.1905285   0.23860118 
    2500   -940.55636    50.403181   -890.15318    1805.2592   -2231.0376    2.1586327   0.33269879 
    2600   -939.15682    45.145484   -894.01134    1616.9475   -12906.568    2.1361179   0.17462319 
    2700   -944.43928    46.703883    -897.7354    1672.7637    11303.622    2.2011463   0.14000795 
    2800   -939.94551    51.843813    -888.1017    1856.8574    2990.2299    2.1652612   0.22735507 
    2900   -937.25525    46.512252     -890.743    1665.9002   -12861.888    2.1256956   0.12695447 
    3000   -938.26008    47.627959   -890.63212    1705.8608    9073.1066    2.1745684   0.18102737 
    3100   -946.85933    46.338066   -900.52127    1659.6615    7797.1239    2.1957204   0.27677453 
    3200    -944.8974    47.822803   -897.07459    1712.8394   -13276.272    2.1368047  0.053999714 
    3300    -939.7828    47.705481   -892.07732    1708.6373    4601.0663    2.1723737   0.64910249 
    3400   -940.79104    52.238806   -888.55223    1871.0046    9765.9141     2.179718   0.67541224 
    3500   -937.34861     49.11217   -888.23644    1759.0198    -8259.599    2.1290936   0.76564816 
    3600   -943.84771    44.382769   -899.46494    1589.6298   -2639.7643    2.1620688   0.48106983 
    3700   -948.14605    54.106781   -894.03927    1937.9087    3308.5817    2.1833787   0.18008362 
    3800   -942.07808    52.565334   -889.51275    1882.6996    -3401.607    2.1524391   0.16518506 
    3900    -941.0828    51.354838   -889.72796    1839.3441   -8285.4945    2.1378911    0.2553905 
    4000   -948.45963    49.705612   -898.75402    1780.2747    6478.1466    2.1911029   0.28560163 
    4100   -942.13919    52.811961   -889.32723    1891.5329    -2116.403    2.1583312   0.20213921 
    4200   -940.57078    51.050648   -889.52013    1828.4491   -6263.7282    2.1432643   0.35430301 
    4300   -943.31274    50.219626   -893.09311    1798.6849    2744.8787    2.1714224   0.41232075 
    4400   -944.37827    44.851359   -899.52691     1606.413    7185.3529    2.1858245   0.53859134 
    4500   -939.21629    50.648862   -888.56742    1814.0586   -7455.5436    2.1316668  0.085402117 
    4600   -941.47381    51.763747   -889.71006    1853.9897    982.06473     2.167037  0.082292685 
    4700   -944.02654    50.354918   -893.67162    1803.5306    6649.1963    2.1869871   0.23023836 
    4800   -937.42962    49.914746   -887.51488    1787.7652   -4292.0502    2.1425663  0.074734007 
    4900   -938.83499    53.420674   -885.41431    1913.3348   -4496.4676    2.1441735   0.24040153 
    5000   -938.82165    48.648994   -890.17265    1742.4305    5576.0358    2.1720239   0.39078854 
Loop time of 3.52937 on 1 procs for 5000 steps with 217 atoms

Performance: 367.205 ns/day, 0.065 hours/ns, 1416.685 timesteps/s
100.0% CPU use with 1 MPI tasks x no OpenMP threads

MPI task timing breakdown:
Section |  min time  |  avg time  |  max time  |%varavg| %total
---------------------------------------------------------------
Pair    | 3.3856     | 3.3856     | 3.3856     |   0.0 | 95.93
Neigh   | 0.066438   | 0.066438   | 0.066438   |   0.0 |  1.88
Comm    | 0.022674   | 0.022674   | 0.022674   |   0.0 |  0.64
Output  | 0.0014313  | 0.0014313  | 0.0014313  |   0.0 |  0.04
Modify  | 0.045662   | 0.045662   | 0.045662   |   0.0 |  1.29
Other   |            | 0.007545   |            |       |  0.21

Nlocal:    217 ave 217 max 217 min
Histogram: 1 0 0 0 0 0 0 0 0 0
Nghost:    953 ave 953 max 953 min
Histogram: 1 0 0 0 0 0 0 0 0 0
Neighs:    4117 ave 4117 max 4117 min
Histogram: 1 0 0 0 0 0 0 0 0 0
FullNghs:  8234 ave 8234 max 8234 min
Histogram: 1 0 0 0 0 0 0 0 0 0

Total # of neighbors = 8234
Ave neighs/atom = 37.9447
Neighbor list builds = 112
Dangerous builds = 1
Total wall time: 0:00:03
