LAMMPS (3 Mar 2020)

    # ---------- Initialize simulation ---------------------
    units metal
    atom_style atomic
    dimension  3
    boundary   p p p
    read_data /home/modeler/RemLabs/Lab4/Problem2A_v1_size_3/temp_2240/lammps.data
  orthogonal box = (0 0 0) to (12.27 12.27 12.27)
  1 by 1 by 1 MPI processor grid
  reading atoms ...
  108 atoms
  read_data CPU = 0.000882035 secs

    pair_style eam
    pair_coeff * * /usr/share/lammps-stable/potentials/Ag_u3.eam
Reading potential file /usr/share/lammps-stable/potentials/Ag_u3.eam with DATE: 2007-06-11

    velocity  all create 2240 87287 dist gaussian

    # ---------- Describe computed properties------------------
    compute msdall all msd
    thermo_style custom step pe ke etotal temp press density c_msdall[4]
    thermo 100

    # ---------- Specify ensemble  ---------------------
    #fix  1 all nve
    fix  1 all nvt temp 2240 2240 0.25

    # --------- Compute RDF ---------------
    compute rdfall all rdf 100 1 1
    fix 2 all ave/time 1 125000 125000 c_rdfall[*] file /home/modeler/RemLabs/Lab4/Problem2A_v1_size_3/temp_2240/lammps.rdf mode vector

    # --------- Run -------------
    timestep 0.005
    run 500000
Neighbor list info ...
  update every 1 steps, delay 10 steps, check yes
  max neighbors/atom: 2000, page size: 100000
  master list distance cutoff = 7.55
  ghost atom cutoff = 7.55
  binsize = 3.775, bins = 4 4 4
  2 neighbor lists, perpetual/occasional/extra = 1 1 0
  (1) pair eam, perpetual
      attributes: half, newton on
      pair build: half/bin/atomonly/newton
      stencil: half/bin/3d/newton
      bin: standard
  (2) compute rdf, occasional, copy from (1)
      attributes: half, newton on
      pair build: copy
      stencil: none
      bin: none
Per MPI rank memory allocation (min/avg/max) = 3.723 | 3.723 | 3.723 Mbytes
Step PotEng KinEng TotEng Temp Press Density c_msdall[4] 
       0       -307.8    30.981072   -276.81893         2240    17913.499    10.472245            0 
     100   -287.93221    22.603015   -265.32919     1634.248    81721.793    10.472245   0.10971596 
     200   -277.06547    29.117105   -247.94837    2105.2311    118373.12    10.472245   0.14980444 
     300   -275.15916    36.269427   -238.88974    2622.3598    128254.19    10.472245   0.24322843 
     400   -276.20935     29.96281   -246.24654    2166.3775    123676.22    10.472245   0.18425315 
     500   -278.02581    28.089414   -249.93639    2030.9268    113517.81    10.472245   0.15644483 
     600   -275.84831    33.443656   -242.40465    2418.0503    124629.88    10.472245    0.1844034 
     700   -276.81855     30.77216   -246.04639    2224.8952    120709.99    10.472245   0.21442571 
     800   -279.09449    28.381565   -250.71293    2052.0499    109499.88    10.472245   0.17439752 
     900   -276.94604    30.834637   -246.11141    2229.4124    119204.32    10.472245    0.1664416 
    1000    -276.6178    35.277582   -241.34022    2550.6472    126016.17    10.472245    0.1934692 
    1100   -272.84807    30.389358   -242.45871    2197.2178    131668.13    10.472245   0.25980046 
    1200   -273.25792    26.351765   -246.90615    1905.2909    127704.38    10.472245   0.27890572 
    1300   -270.61221    30.141871   -240.47034     2179.324    139632.24    10.472245   0.24114542 
    1400    -277.9251    28.908186   -249.01691    2090.1258    114682.31    10.472245   0.19350952 
    1500   -277.87122    32.778716   -245.09251    2369.9736    117572.37    10.472245   0.18786205 
    1600     -275.449    33.609161   -241.83984    2430.0167     127481.5    10.472245    0.2290649 
    1700   -279.56327    29.323937   -250.23933    2120.1855    110656.31    10.472245   0.15968825 
    1800   -276.38624    31.085838   -245.30041    2247.5748    121885.33    10.472245   0.16924324 
    1900   -276.09705    32.639938   -243.45711    2359.9397    122420.18    10.472245   0.20969439 
    2000    -276.7339    32.092077   -244.64182    2320.3281    120081.98    10.472245   0.21804008 
    2100   -271.63681    34.970923   -236.66589    2528.4751    140040.94    10.472245   0.27727152 
    2200     -274.124    29.909402    -244.2146    2162.5159    127068.21    10.472245   0.22517711 
    2300   -280.13785    34.022197   -246.11566    2459.8801    112107.25    10.472245    0.1503454 
    2400   -278.06687    29.180218   -248.88666    2109.7943    117129.45    10.472245   0.18744309 
    2500   -272.48947    29.965672    -242.5238    2166.5843    133954.24    10.472245   0.23194069 
    2600   -271.93426    31.932544   -240.00172    2308.7936    137904.04    10.472245   0.28317298 
    2700   -281.15169    31.665763   -249.48593    2289.5047     107478.8    10.472245   0.14732675 
    2800   -276.35913      32.5347   -243.82443    2352.3308    123759.54    10.472245   0.16870349 
    2900   -274.92343    34.246858   -240.67657    2476.1236    128714.44    10.472245   0.19162952 
    3000   -274.56044    24.878755   -249.68168     1798.789    125765.49    10.472245    0.2078458 
    3100   -275.83006    31.546402   -244.28366    2280.8747     123520.6    10.472245   0.23852901 
    3200   -272.48027    29.301098   -243.17918    2118.5342    134544.36    10.472245   0.22169523 
    3300   -277.36194    30.019029   -247.34292    2170.4422    119531.16    10.472245   0.19557157 
    3400   -278.03874    37.967176   -240.07157    2745.1108    121192.08    10.472245   0.16930372 
    3500    -275.3516    30.320695    -245.0309    2192.2533    123659.97    10.472245   0.21545485 
    3600    -280.2949    32.726998    -247.5679    2366.2343    109667.59    10.472245   0.14796664 
    3700   -269.78565    32.143099   -237.64255    2324.0171    142299.93    10.472245   0.22080098 
    3800   -274.79676    30.478997   -244.31776    2203.6989    126590.35    10.472245    0.2105152 
    3900    -275.9486    28.356775   -247.59182    2050.2576    121201.39    10.472245   0.18411125 
    4000   -277.78216    31.929382   -245.85278    2308.5649    117609.48    10.472245   0.17936133 
    4100   -274.28045    34.106517   -240.17393    2465.9766    130777.84    10.472245    0.2086789 
    4200   -280.95842     32.01189   -248.94653    2314.5304    108499.49    10.472245   0.13345574 
    4300   -278.40346    31.179217   -247.22424    2254.3264    113167.66    10.472245   0.16441743 
    4400   -272.31707    29.357466    -242.9596    2122.6097    134890.68    10.472245   0.21992583 
    4500   -270.55342    35.614674   -234.93874    2575.0197    143451.92    10.472245   0.25756042 
    4600   -278.13926    32.830741   -245.30852    2373.7352    118187.13    10.472245   0.15779951 
    4700   -275.70831    30.017809    -245.6905     2170.354    123031.42    10.472245   0.18924334 
    4800   -272.92831    35.578128   -237.35018    2572.3774    133918.94    10.472245   0.27996087 
    4900   -272.91778    28.324203   -244.59358    2047.9026    131020.56    10.472245   0.21390872 
    5000    -278.5415    31.565316   -246.97618    2282.2421    114134.98    10.472245   0.16180762 
    5100   -279.89258    36.592391   -243.30018    2645.7108    114596.09    10.472245    0.1466901 
    5200   -271.16667    33.103782   -238.06289    2393.4767     135253.6    10.472245   0.17840928 
    5300   -276.82623    28.776633    -248.0496    2080.6142    119812.43    10.472245   0.18141371 
    5400   -274.84714    30.575653   -244.27149    2210.6873    126953.87    10.472245   0.19593475 
    5500   -274.35927    35.113115   -239.24615    2538.7559    130765.19    10.472245   0.27943311 
    5600   -276.74023    30.031744   -246.70848    2171.3615    121805.61    10.472245   0.16115825 
    5700   -280.59339    31.691508   -248.90188    2291.3662    108088.03    10.472245   0.17192386 
    5800   -274.13962    33.395872   -240.74375    2414.5954    129658.94    10.472245   0.21569464 
    5900   -275.63773    30.786593   -244.85114    2225.9388    124546.31    10.472245   0.22682944 
    6000   -276.43374    30.193746   -246.23999    2183.0747    121071.38    10.472245   0.19385934 
    6100   -275.84522    26.338165   -249.50706    1904.3076    119027.81    10.472245   0.21152723 
    6200   -275.80536     31.92353   -243.88183    2308.1418    123015.51    10.472245   0.18474077 
    6300   -278.76311    34.708399   -244.05471     2509.494     119183.6    10.472245   0.20158267 
    6400   -280.96743     29.37035   -251.59707    2123.5413    106036.58    10.472245    0.1517452 
    6500   -278.03235    30.707826   -247.32452    2220.2438    117349.19    10.472245   0.16244525 
    6600   -272.73068     30.23358    -242.4971    2185.9547    131442.09    10.472245   0.19577167 
    6700   -279.97151    29.085114    -250.8864     2102.918    108972.69    10.472245   0.18346848 
    6800   -277.71232     31.33174   -246.38058    2265.3541    115896.28    10.472245   0.16172965 
    6900   -274.37518    32.069195   -242.30599    2318.6737    129205.63    10.472245   0.18775366 
    7000   -277.45492    27.868041   -249.58688     2014.921    116780.52    10.472245   0.18289301 
    7100   -276.93768     29.90281   -247.03487    2162.0393    119318.91    10.472245   0.19866814 
    7200     -274.327    31.660022   -242.66698    2289.0896    127961.69    10.472245   0.23263423 
    7300   -278.26895    28.189746   -250.07921     2038.181    113875.91    10.472245   0.20201344 
    7400   -277.92634    29.149694   -248.77665    2107.5873    117256.16    10.472245   0.18096374 
    7500   -275.59587     30.94954   -244.64633    2237.7202    122073.34    10.472245   0.16577566 
    7600   -278.82795    31.306636   -247.52132     2263.539    114365.68    10.472245   0.15630124 
    7700   -278.90177    26.547189   -252.35458    1919.4205    112313.84    10.472245   0.17458061 
    7800   -275.13969    31.238181   -243.90151    2258.5896    127529.79    10.472245   0.20619937 
    7900    -275.3737     30.03007   -245.34363    2171.2405    124760.49    10.472245   0.22116864 
    8000     -279.765    27.906831   -251.85817    2017.7256    109499.59    10.472245   0.16947802 
    8100   -272.76952    30.009527   -242.75999    2169.7552    133031.68    10.472245   0.20733776 
    8200   -274.06771    29.058962   -245.00875    2101.0273     128394.9    10.472245   0.21831731 
    8300   -279.41248    29.885531   -249.52695      2160.79    110724.68    10.472245   0.17628298 
    8400   -275.39179    31.039389    -244.3524    2244.2165    126399.55    10.472245   0.20628766 
    8500   -273.24552    32.044957   -241.20056    2316.9212    131816.63    10.472245   0.24065391 
    8600   -279.82149    29.469037   -250.35245    2130.6766    109981.04    10.472245   0.15698917 
    8700   -275.16683    27.924826     -247.242    2019.0267    124945.31    10.472245    0.1926005 
    8800   -275.95252    33.647206   -242.30532    2432.7674    125100.85    10.472245   0.20837937 
    8900   -279.43638    28.818588   -250.61779    2083.6477    110129.73    10.472245   0.20588676 
    9000   -276.65021    28.130197   -248.52001    2033.8754    116668.22    10.472245   0.22587144 
    9100   -275.23675    31.549232   -243.68752    2281.0793    126499.53    10.472245   0.20482094 
    9200   -282.32539    34.412428   -247.91296    2488.0947    105927.65    10.472245   0.17578857 
    9300   -278.85006    29.338952   -249.51111    2121.2711    112619.57    10.472245   0.19793642 
    9400    -277.0588    33.262512   -243.79628    2404.9532    120554.61    10.472245   0.19590193 
    9500    -276.5771    30.800449   -245.77665    2226.9406    122029.08    10.472245   0.19692717 
    9600   -276.98103    26.555889   -250.42514    1920.0495    116709.36    10.472245   0.20000628 
    9700   -273.68685     31.90965    -241.7772    2307.1383    130671.62    10.472245     0.172525 
    9800   -277.21561    29.557627   -247.65799    2137.0818    115575.87    10.472245   0.16180922 
    9900   -276.61332    28.888445   -247.72488    2088.6984    119144.38    10.472245   0.18549638 
   10000   -271.03682    33.292905   -237.74391    2407.1507    138717.59    10.472245   0.26524816 
   10100   -276.03789    30.309947   -245.72794    2191.4762     125217.8    10.472245   0.19007795 
   10200   -277.37814    29.709816   -247.66833    2148.0854    115300.89    10.472245   0.19343522 
   10300   -276.99992    37.425452   -239.57447     2705.943    122504.42    10.472245   0.14265492 
   10400   -279.03228    33.151876    -245.8804    2396.9539    114821.27    10.472245   0.18565539 
   10500   -279.35005    32.169682   -247.18037    2325.9391     112185.7    10.472245   0.18249619 
   10600   -275.82547    32.330522   -243.49494    2337.5683    121673.36    10.472245   0.19785875 
   10700   -276.12923    31.103599   -245.02563     2248.859    121781.25    10.472245   0.19067466 
   10800   -276.35961    26.447154   -249.91246    1912.1878    119735.73    10.472245   0.20497595 
   10900   -277.24398    31.594102   -245.64988    2284.3234    118514.67    10.472245   0.23846325 
   11000   -276.10049    32.326087   -243.77441    2337.2476    124558.87    10.472245   0.18300965 
   11100   -280.64605    28.404277   -252.24177    2053.6921    107874.42    10.472245   0.14746605 
   11200   -274.70825    28.599301   -246.10895    2067.7927    124355.03    10.472245   0.22208193 
   11300    -278.2059    34.270536   -243.93536    2477.8356    117763.25    10.472245   0.15702604 
   11400   -278.85749    27.282795   -251.57469    1972.6065    112162.58    10.472245   0.16739192 
   11500   -278.86725    31.049085   -247.81817    2244.9175    113657.79    10.472245   0.14861044 
   11600   -277.19563    33.056502   -244.13913    2390.0582    122616.94    10.472245   0.16633342 
   11700   -272.59678    30.828921   -241.76786    2228.9992    133879.51    10.472245   0.23233312 
   11800   -277.70995    29.755923   -247.95403     2151.419    114671.84    10.472245   0.17803902 
   11900   -275.36669    30.254788    -245.1119    2187.4881    124483.43    10.472245   0.18944312 
   12000    -271.4949    28.849321   -242.64558    2085.8697    136438.64    10.472245   0.24096613 
   12100   -279.57555    31.929811   -247.64574     2308.596    112518.61    10.472245   0.15488886 
   12200   -282.83141    28.761258   -254.07015    2079.5026    100639.99    10.472245    0.1384642 
   12300   -275.16323    27.494022    -247.6692    1987.8786    122544.78    10.472245   0.20147879 
   12400   -274.49665    32.052008   -242.44464    2317.4311    126657.69    10.472245   0.22308012 
   12500   -275.63934    29.275177   -246.36416    2116.6601    123134.99    10.472245   0.24949662 
   12600   -279.87498    27.333022   -252.54196     1976.238    110635.18    10.472245   0.17453474 
   12700   -273.68089    31.193794    -242.4871    2255.3803    130425.74    10.472245   0.19074128 
   12800   -274.83242     29.21232    -245.6201    2112.1153    126605.35    10.472245   0.17526365 
   12900   -281.66182    30.443508   -251.21832     2201.133    104089.06    10.472245   0.14327978 
   13000   -274.62319     33.86581   -240.75738    2448.5729    129096.41    10.472245    0.2051714 
   13100   -276.78268    29.618565   -247.16412    2141.4877    123308.67    10.472245   0.19220174 
   13200   -277.29885    30.170483   -247.12837    2181.3927    117001.35    10.472245   0.18961022 
   13300   -276.72358    37.908121   -238.81546     2740.841    121416.85    10.472245   0.21406126 
   13400   -274.54319    29.599846   -244.94334    2140.1344    125021.44    10.472245    0.1945801 
   13500    -275.9471    29.246784   -246.70031    2114.6072    122575.88    10.472245   0.19992769 
   13600   -274.17765    34.895742   -239.28191    2523.0393    132798.79    10.472245   0.18963145 
   13700   -270.92837    29.859149   -241.06922    2158.8825    137056.87    10.472245   0.23958935 
   13800   -277.40262    30.654276   -246.74834     2216.372    118957.24    10.472245   0.18449325 
   13900   -275.83965    28.937763   -246.90189    2092.2642    121729.08    10.472245   0.21275766 
   14000   -270.12273    29.384924   -240.73781     2124.595     142847.2    10.472245   0.24179953 
   14100   -281.07026    32.732656   -248.33761    2366.6434    108868.65    10.472245   0.15221599 
   14200   -274.42452    28.326392   -246.09813    2048.0608    125296.03    10.472245   0.20994981 
   14300   -275.36253    30.092735    -245.2698    2175.7713    122678.06    10.472245   0.20251876 
   14400   -274.72026     32.92683   -241.79343    2380.6826    127980.18    10.472245   0.22363934 
   14500   -270.68722    30.640722   -240.04649     2215.392    139306.94    10.472245   0.21136796 
   14600   -275.67029    30.784973   -244.88532    2225.8216     124534.6    10.472245   0.17281744 
   14700   -277.62235    29.616673   -248.00568     2141.351       117659    10.472245   0.20210017 
   14800   -269.81687    28.959694   -240.85718      2093.85    143667.17    10.472245   0.24733847 
   14900    -274.0414     32.78446   -241.25694     2370.389    130350.89    10.472245   0.24853068 
   15000   -280.99594    31.583503   -249.41244    2283.5571    108285.68    10.472245   0.18844593 
   15100   -273.33119    30.721626   -242.60957    2221.2415    131516.01    10.472245   0.22229844 
   15200   -274.24424    29.534685   -244.70955    2135.4231    126699.07    10.472245   0.17627953 
   15300   -280.78316    29.569337   -251.21382    2137.9285    107951.19    10.472245   0.14391198 
   15400   -272.69188    29.428888     -243.263    2127.7737    134618.59    10.472245   0.18092092 
   15500   -278.65717     32.29231   -246.36487    2334.8054    114114.86    10.472245    0.1776402 
   15600   -278.19695    26.859424   -251.33753    1941.9958    114512.91    10.472245   0.17345673 
   15700   -276.41931    29.809249   -246.61006    2155.2747    121866.71    10.472245   0.18578722 
   15800   -273.72066    30.441446   -243.27921    2200.9839    129903.95    10.472245   0.22510243 
   15900   -271.72311    29.407693   -242.31541    2126.2412    135217.61    10.472245   0.32933862 
   16000   -275.49779    30.328155   -245.16963    2192.7927    123939.87    10.472245    0.2117897 
   16100   -277.34641    27.053848   -250.29256     1956.053    116931.19    10.472245   0.15059676 
   16200   -273.53154    33.363774   -240.16777    2412.2747    135092.97    10.472245   0.23480067 
   16300   -277.39374    31.459515   -245.93422    2274.5925    120382.62    10.472245    0.2105713 
   16400   -276.80964      29.0664   -247.74324     2101.565    119807.03    10.472245   0.17068172 
   16500   -274.44351    34.576459   -239.86705    2499.9544    129514.57    10.472245   0.19771323 
   16600    -278.8416      31.9515    -246.8901    2310.1641    112472.37    10.472245   0.15857644 
   16700   -277.87896    31.814354   -246.06461    2300.2481    118362.32    10.472245   0.15427534 
   16800   -274.61756    34.368635   -240.24892    2484.9284    128624.01    10.472245   0.19133445 
   16900   -276.88866     33.79357   -243.09509    2443.3499    124846.73    10.472245   0.17711644 
   17000   -272.14238    24.633189   -247.50919    1781.0341    132404.25    10.472245   0.23222928 
   17100   -273.14359    32.021397   -241.12219    2315.2178    131949.92    10.472245   0.20185264 
   17200   -273.11243     32.49043     -240.622      2349.13    133849.94    10.472245    0.2480615 
   17300   -276.15066    28.638167   -247.51249    2070.6028    118463.44    10.472245   0.17310618 
   17400   -276.62554    33.736542     -242.889    2439.2266    121544.59    10.472245   0.20337266 
   17500   -274.37656    35.572545   -238.80402    2571.9737    128808.49    10.472245   0.22218466 
   17600   -277.45833     31.74376   -245.71457    2295.1441    119130.84    10.472245   0.20180266 
   17700   -276.41644    31.269906   -245.14653    2260.8833    119132.57    10.472245   0.20317759 
   17800   -275.26164    34.728304   -240.53334    2510.9332    128909.47    10.472245   0.20565814 
   17900   -278.93533    31.981929    -246.9534    2312.3642    114803.69    10.472245   0.19493078 
   18000   -278.12456    30.385439   -247.73912    2196.9344    117656.44    10.472245   0.17585662 
   18100   -275.15382    35.533322    -239.6205    2569.1377    129348.32    10.472245   0.19977481 
   18200   -273.49646    29.957299   -243.53916     2165.979    129053.93    10.472245   0.26693813 
   18300   -278.28222    30.213728   -248.06849    2184.5194    112563.97    10.472245   0.17010749 
   18400   -280.20026    26.484463   -253.71579    1914.8853    105652.01    10.472245   0.12992578 
   18500   -276.23643    31.430456   -244.80597    2272.4915    122660.39    10.472245   0.19017403 
   18600   -274.87074    29.463625   -245.40711    2130.2852    126144.34    10.472245   0.19439455 
   18700   -279.41653    29.176837    -250.2397    2109.5498     110800.9    10.472245   0.17549981 
   18800   -274.77597    29.319916   -245.45605    2119.8948     124396.7    10.472245   0.18311585 
   18900   -273.66927    31.418675    -242.2506    2271.6397    130162.94    10.472245   0.25376981 
   19000   -280.35284    29.775268   -250.57757    2152.8178    110026.14    10.472245   0.16443652 
   19100   -279.19113    30.343128     -248.848    2193.8752    112259.36    10.472245   0.19653551 
   19200   -279.71543    34.435301   -245.28013    2489.7484     112186.6    10.472245   0.15130777 
   19300   -278.13707     33.31378   -244.82329      2408.66    116207.39    10.472245   0.20473711 
   19400   -276.06508    35.258842   -240.80624    2549.2923    124511.53    10.472245   0.21841627 
   19500    -277.0365     27.66097   -249.37553    1999.9493    119414.73    10.472245   0.19960927 
   19600   -276.19172    30.250413    -245.9413    2187.1718    121147.39    10.472245   0.22773361 
   19700   -277.82992    34.101643   -243.72828    2465.6242    121093.96    10.472245   0.20688623 
   19800   -276.00246    28.659468   -247.34299    2072.1429    123766.48    10.472245   0.19890806 
   19900   -280.87965    28.160491   -252.71916    2036.0658    108374.99    10.472245   0.16151436 
   20000   -277.18441     31.31228   -245.87213    2263.9471    121014.37    10.472245   0.23117519 
   20100   -274.59431    32.582738   -242.01157     2355.804    125217.99    10.472245   0.23254541 
   20200   -277.94959    29.210664   -248.73892    2111.9956    119748.42    10.472245   0.20480514 
   20300   -276.98235    29.384713   -247.59764    2124.5797    118309.13    10.472245   0.21326164 
   20400   -275.99821    33.894003   -242.10421    2450.6114     126855.3    10.472245   0.19638777 
   20500   -278.45252    31.249898   -247.20263    2259.4367    114000.86    10.472245   0.17897137 
   20600   -277.78052    25.583513     -252.197    1849.7446    113508.61    10.472245   0.23517517 
   20700   -276.35971    32.168576   -244.19114    2325.8592    123064.13    10.472245   0.19854691 
   20800    -274.9553    31.488965   -243.46634    2276.7218    128209.94    10.472245   0.22737156 
   20900   -278.89119    28.053176   -250.83802    2028.3067    111573.75    10.472245   0.17341892 
   21000   -273.05578    30.104547   -242.95123    2176.6254     131635.1    10.472245   0.20645575 
   21100   -279.48745    35.128434   -244.35902    2539.8634    114195.77    10.472245    0.1588205 
   21200   -281.50792    32.071537   -249.43638    2318.8431    106481.68    10.472245   0.15955764 
   21300   -272.64001     32.23927   -240.40074    2330.9706     132742.2    10.472245   0.19871736 
   21400   -276.01489    29.427544   -246.58735    2127.6765    123089.59    10.472245   0.18326075 
   21500   -276.06352    29.898944   -246.16458    2161.7598    124091.44    10.472245   0.19512947 
   21600   -274.71065     36.20296   -238.50769    2617.5541    129371.52    10.472245   0.21788816 
   21700   -275.61894    30.635208   -244.98373    2214.9933    123355.19    10.472245   0.25202064 
   21800   -275.71514    29.801086   -245.91406    2154.6844    124621.72    10.472245   0.22057715 
   21900   -281.05882    28.687743   -252.37108    2074.1873    108581.73    10.472245   0.13159019 
   22000   -275.74395    30.594428   -245.14953    2212.0448    123593.83    10.472245   0.19539362 
   22100    -273.8396    28.835672   -245.00393    2084.8829    130336.62    10.472245   0.20121017 
   22200   -274.05305    25.960845    -248.0922    1877.0265    128116.01    10.472245   0.18796714 
   22300   -276.73775    28.379475   -248.35828    2051.8988    118684.25    10.472245   0.18801857 
   22400   -273.18809    32.631465   -240.55662    2359.3271    132496.76    10.472245   0.20594699 
   22500   -276.93679    32.332835   -244.60395    2337.7355    122196.88    10.472245   0.22219434 
   22600   -273.22221    28.018403   -245.20381    2025.7925    129069.52    10.472245    0.2857988 
   22700   -276.62793    32.093514   -244.53442    2320.4321    119054.71    10.472245   0.21053882 
   22800   -279.11253    27.875785   -251.23675    2015.4809    110205.56    10.472245   0.17010151 
   22900   -275.08294    31.065064   -244.01788    2246.0729    124639.36    10.472245    0.2299042 
   23000   -274.73975    30.391786   -244.34797    2197.3933    125898.29    10.472245   0.20582997 
   23100   -274.42957    23.828962   -250.60061    1722.8866    122910.88    10.472245   0.22876151 
   23200   -274.73856    32.168113   -242.57044    2325.8257    126306.96    10.472245   0.18557741 
   23300   -278.39764    35.153386   -243.24426    2541.6676    117141.72    10.472245   0.23388527 
   23400   -279.37523    29.208894   -250.16634    2111.8676    110145.83    10.472245   0.16305261 
   23500   -278.15482    31.511974   -246.64285    2278.3854    114454.51    10.472245     0.169006 
   23600   -273.38656     28.76643   -244.62013    2079.8765    130188.11    10.472245   0.21329958 
   23700   -269.92779    32.533325   -237.39446    2352.2314    143248.66    10.472245   0.26320675 
   23800   -278.04218     32.18072   -245.86146    2326.7372    117181.76    10.472245   0.17719615 
   23900   -277.58842    32.252387   -245.33603    2331.9189    117375.63    10.472245   0.18934452 
   24000   -276.53571    37.032647   -239.50307    2677.5423    123699.29    10.472245   0.15500879 
   24100   -276.92334    29.422924   -247.50041    2127.3425    117372.46    10.472245   0.15980789 
   24200   -275.25612    27.901248   -247.35487    2017.3219    124221.35    10.472245      0.20054 
   24300   -274.29219    35.397569   -238.89462    2559.3226    130828.09    10.472245   0.21568791 
   24400   -276.49727    30.541982   -245.95529    2208.2529    123202.32    10.472245   0.20945469 
   24500   -275.35908    28.748201   -246.61088    2078.5585    121896.08    10.472245    0.1770555 
   24600   -268.20882    30.646939   -237.56188    2215.8415    147254.35    10.472245   0.26968604 
   24700    -276.1749    30.820359   -245.35454    2228.3801    121892.47    10.472245   0.20697751 
   24800   -278.27149    32.817064   -245.45442    2372.7463     116029.3    10.472245   0.17890951 
   24900   -270.41678    32.610355   -237.80642    2357.8008    139861.27    10.472245   0.26923627 
   25000   -272.56252    28.763147   -243.79937    2079.6391    134354.94    10.472245   0.21833889 
   25100   -276.63578    28.981174    -247.6546     2095.403    118696.06    10.472245   0.20549691 
   25200   -271.38698    30.387838   -240.99914    2197.1079    133489.28    10.472245   0.21346733 
   25300   -277.84135    29.372864   -248.46849     2123.723    116744.05    10.472245   0.17337337 
   25400   -275.89338     30.03639   -245.85699    2171.6975    121481.18    10.472245   0.17206998 
   25500    -274.2479     32.60598   -241.64192    2357.4844    129928.76    10.472245   0.21159984 
   25600   -278.05391    31.339021   -246.71489    2265.8805    115751.24    10.472245   0.18645445 
   25700   -277.58937    28.493748   -249.09562     2060.161    117188.63    10.472245   0.14139384 
   25800   -273.93723    33.842378   -240.09485    2446.8788     132338.2    10.472245   0.18138212 
   25900   -275.81982     31.40592    -244.4139    2270.7175    121991.26    10.472245   0.18615658 
   26000    -278.4345     29.08771   -249.34679    2103.1058    113686.04    10.472245   0.16538118 
   26100   -277.82689    30.664257   -247.16263    2217.0936    115110.66    10.472245    0.1612658 
   26200   -275.91792    33.870707   -242.04722     2448.927    125207.46    10.472245   0.18492902 
   26300    -278.3868    28.542858   -249.84395    2063.7118    114919.28    10.472245   0.18908119 
   26400   -278.59141    28.631679   -249.95973    2070.1337    110424.99    10.472245   0.17545494 
   26500   -274.09718    32.193195   -241.90398    2327.6392    128557.03    10.472245   0.23680432 
   26600    -276.3615    29.053945   -247.30756    2100.6645     121502.8    10.472245   0.23391785 
   26700   -276.39498    29.357931   -247.03704    2122.6434    119961.34    10.472245    0.1790326 
   26800    -274.7306    35.753123   -238.97748    2585.0299    128195.53    10.472245   0.18851679 
   26900   -273.20199    26.988056   -246.21394    1951.2962    131182.82    10.472245   0.20544827 
   27000   -278.83865    33.216787   -245.62187    2401.6472    114654.74    10.472245    0.1743689 
   27100    -271.0012     34.10897   -236.89223     2466.154    138904.84    10.472245   0.21436147 
   27200   -280.36103    35.850683   -244.51035    2592.0837    113157.68    10.472245   0.16638566 
   27300   -275.97626    28.701598   -247.27466     2075.189    121787.49    10.472245   0.22065019 
   27400   -271.34654     31.80999   -239.53655    2299.9326    135158.13    10.472245   0.19923194 
   27500   -277.13772    31.001809   -246.13591    2241.4994    119992.04    10.472245   0.18453396 
   27600    -278.2517    30.738891   -247.51281    2222.4898    115459.52    10.472245   0.17598839 
   27700   -274.10472    29.520558   -244.58417    2134.4017    127692.79    10.472245   0.20081089 
   27800   -278.07219    33.102563   -244.96963    2393.3885    116735.76    10.472245   0.18913275 
   27900   -276.50343    27.849989   -248.65344    2013.6158    120393.24    10.472245   0.17251285 
   28000   -280.56008     29.49644   -251.06364    2132.6578    107570.16    10.472245   0.15616049 
   28100   -274.07933    28.813455   -245.26588    2083.2765    128505.85    10.472245   0.21538688 
   28200   -278.73608    33.196292   -245.53979    2400.1653    116429.92    10.472245   0.15997975 
   28300   -279.86736    29.159494   -250.70787    2108.2959    110575.09    10.472245      0.16662 
   28400   -277.04582    34.606531   -242.43929    2502.1288    123462.46    10.472245   0.19321561 
   28500   -280.16924    34.723298   -245.44594    2510.5712    109336.34    10.472245   0.19578347 
   28600   -279.36999    28.600131   -250.76986    2067.8527    111246.34    10.472245   0.14381903 
   28700   -277.95375    26.904486   -251.04927    1945.2539    113532.43    10.472245   0.16190248 
   28800   -276.01545    32.570395   -243.44505    2354.9116    122397.49    10.472245   0.18903025 
   28900    -277.1214    30.600324   -246.52108    2212.4711    120935.04    10.472245   0.19987516 
   29000   -277.96941    26.764212    -251.2052    1935.1117     115954.6    10.472245   0.19303289 
   29100    -276.5753    32.658662   -243.91664    2361.2935    123025.35    10.472245   0.21088293 
   29200   -277.42447    34.516369    -242.9081    2495.6098    120157.71    10.472245    0.1694201 
   29300    -281.1903    31.174499    -250.0158    2253.9852    108373.08    10.472245   0.13555249 
   29400   -277.20706    32.858476   -244.34859    2375.7405       119037    10.472245    0.1611446 
   29500   -279.22522    37.603113   -241.62211    2718.7883    115364.54    10.472245   0.16037085 
   29600   -278.37856     29.93729   -248.44127    2164.5323    115062.58    10.472245   0.18162205 
   29700   -275.42156    29.519374   -245.90219     2134.316    125848.01    10.472245    0.1998551 
   29800   -275.68185    30.614659    -245.0672    2213.5076    122881.19    10.472245   0.19986408 
   29900   -272.41624    30.929343    -241.4869    2236.2599    134262.69    10.472245   0.23433299 
   30000   -278.25477    37.162256   -241.09251    2686.9133    121171.44    10.472245   0.18072998 
   30100   -276.13528    28.118571   -248.01671    2033.0349    120715.14    10.472245   0.22020622 
   30200   -270.35587    28.800211   -241.55566    2082.3189    136348.14    10.472245    0.2701915 
   30300    -277.6085    30.276074   -247.33243    2189.0271    117961.89    10.472245   0.16957535 
   30400   -280.02251    32.642423   -247.38009    2360.1194    114145.54    10.472245   0.16277143 
   30500   -273.32776    31.857199   -241.47056    2303.3459     130177.6    10.472245   0.20586379 
   30600   -277.37283    28.178334   -249.19449    2037.3559    116591.54    10.472245    0.1877194 
   30700   -280.80892    29.251516    -251.5574    2114.9493    106799.46    10.472245   0.16701861 
   30800   -279.03145    35.224376   -243.80707    2546.8003    117234.19    10.472245   0.16292963 
   30900   -275.86226    34.064434   -241.79783    2462.9339    126750.01    10.472245   0.18846344 
   31000   -279.84467     30.23623   -249.60844    2186.1463    110870.85    10.472245   0.14486954 
   31100   -272.85483    30.035791   -242.81904    2171.6541    130064.11    10.472245    0.2054334 
   31200   -274.60576    31.099403   -243.50636    2248.5556    126687.03    10.472245   0.20690339 
   31300   -277.83218    30.610071    -247.2221    2213.1759    116892.46    10.472245   0.17041349 
   31400   -276.22419     27.33227   -248.89192    1976.1836    120257.34    10.472245   0.19645756 
   31500   -270.97117    29.015958   -241.95522     2097.918    139197.09    10.472245   0.23006305 
   31600   -274.12915    29.665148     -244.464    2144.8558    129108.23    10.472245   0.16763492 
   31700   -282.74888     32.65843   -250.09045    2361.2767    103375.93    10.472245   0.14901372 
   31800   -275.70556    32.575879   -243.12968    2355.3081    124941.64    10.472245   0.18990723 
   31900   -273.29978    28.088258   -245.21153    2030.8432    128553.25    10.472245   0.23629513 
   32000    -275.8617    34.018763   -241.84294    2459.6318    125319.72    10.472245   0.16725023 
   32100   -275.74526    35.010426   -240.73483    2531.3313    127338.97    10.472245   0.22062239 
   32200   -278.51802    31.520178   -246.99784    2278.9786    114863.58    10.472245   0.16260644 
   32300   -277.98159    34.262394    -243.7192    2477.2468    119964.29    10.472245   0.16865589 
   32400   -270.58706    31.809849   -238.77721    2299.9224    141055.64    10.472245   0.27944309 
   32500   -273.68381    29.374455   -244.30935     2123.838    128071.66    10.472245   0.31743261 
   32600   -272.79031     30.24546   -242.54485    2186.8136    132904.53    10.472245    0.2393348 
   32700   -278.18029    28.142063   -250.03823    2034.7334    112147.43    10.472245   0.17313638 
   32800    -274.5771     27.50166   -247.07544    1988.4308       125317    10.472245   0.19651463 
   32900   -275.93681    31.813174   -244.12364    2300.1628    123415.48    10.472245     0.229946 
   33000   -275.42111     28.50686   -246.91425     2061.109    123107.75    10.472245   0.16567126 
   33100   -276.73389    27.168501   -249.56539    1964.3427    119200.62    10.472245   0.20387096 
   33200   -274.02897     31.26182   -242.76715    2260.2987    126494.51    10.472245   0.27573226 
   33300   -275.53033    31.233909   -244.29642    2258.2807    124279.42    10.472245   0.20178397 
   33400    -280.5944    29.046067   -251.54833    2100.0949    107366.43    10.472245    0.1608072 
   33500   -273.87368    31.110874   -242.76281     2249.385    128992.97    10.472245   0.20198913 
   33600   -278.69721    33.563137   -245.13407     2426.689    115670.33    10.472245   0.15529258 
   33700   -280.34529    31.245568   -249.09972    2259.1237    108238.27    10.472245   0.15489261 
   33800   -270.43755    30.335439   -240.10211    2193.3194    141302.59    10.472245   0.22727497 
   33900   -275.48653    28.006211   -247.48032     2024.911    121368.39    10.472245   0.22884731 
   34000   -275.95983    29.719879   -246.23995     2148.813     121534.3    10.472245   0.17773347 
   34100   -271.07644    35.056897   -236.01954    2534.6912    140443.08    10.472245    0.2297261 
   34200   -272.46345     31.40394   -241.05951    2270.5743    134802.63    10.472245   0.21207813 
   34300   -277.79353    30.263783   -247.52975    2188.1385    115764.08    10.472245   0.16637421 
   34400   -278.88962    30.252571   -248.63705    2187.3278    111158.72    10.472245   0.19263377 
   34500   -273.15085     32.85698   -240.29387    2375.6323     132530.7    10.472245   0.28360789 
   34600   -277.38481    30.054807      -247.33     2173.029    116963.04    10.472245   0.19367427 
   34700   -279.62419    32.076437   -247.54775    2319.1974    111264.21    10.472245     0.163686 
   34800   -277.23003    34.510119   -242.71991    2495.1579    122433.19    10.472245   0.17792901 
   34900   -276.94259    32.814598   -244.12799     2372.568    123037.99    10.472245   0.15292454 
   35000   -277.32852    27.225813   -250.10271    1968.4865    116680.99    10.472245   0.20767372 
   35100   -276.81144    34.462761   -242.34868    2491.7339    121856.46    10.472245   0.22951838 
   35200   -273.00729    30.116148   -242.89114    2177.4641     128866.8    10.472245    0.2547366 
   35300   -273.07282    27.990434   -245.08238    2023.7703    127118.66    10.472245   0.25999318 
   35400   -276.18895    30.335555    -245.8534    2193.3277    121449.12    10.472245   0.16955365 
   35500   -277.72759    32.510055   -245.21754    2350.5489    118042.54    10.472245   0.20785962 
   35600   -271.33412    34.778116     -236.556    2514.5347    139722.29    10.472245   0.20538413 
   35700   -273.42221    28.776085   -244.64613    2080.5746    130545.34    10.472245   0.25265124 
   35800   -273.10033     26.61762   -246.48271    1924.5128    131445.36    10.472245   0.20395045 
   35900   -272.66539    33.112282   -239.55311    2394.0912    132770.49    10.472245    0.1850366 
   36000   -276.03227    29.516943   -246.51533    2134.1403    120102.11    10.472245   0.19354429 
   36100   -277.95819    30.826924   -247.13127    2228.8548    119341.51    10.472245   0.16400182 
   36200   -274.14404    33.041667   -241.10237    2388.9856    129072.45    10.472245   0.20982474 
   36300   -270.34554    30.700397   -239.64515    2219.7066    137958.87    10.472245   0.28512642 
   36400   -275.41257    30.490047   -244.92252    2204.4978    125373.79    10.472245   0.16448251 
   36500   -279.73923    32.014858   -247.72437     2314.745    111348.88    10.472245   0.15479988 
   36600   -273.50953     28.87231   -244.63722    2087.5319    131076.86    10.472245   0.21906408 
   36700    -275.8855    35.486045   -240.39946    2565.7195     125781.2    10.472245   0.19554899 
   36800   -276.44559    28.587444   -247.85815    2066.9354    119150.66    10.472245   0.19223029 
   36900   -275.92669    29.772452   -246.15424    2152.6141    122200.21    10.472245   0.23845757 
   37000   -274.22337    29.998334   -244.22504    2168.9459       126919    10.472245   0.23473199 
   37100   -280.42799     36.70673   -243.72126    2653.9778    112710.51    10.472245   0.15849946 
   37200   -277.00434    28.638342   -248.36599    2070.6155    117426.11    10.472245    0.2085147 
   37300   -277.10814    34.210312   -242.89783    2473.4812     120452.6    10.472245   0.17316421 
   37400   -276.47122    31.968394   -244.50283    2311.3856       122421    10.472245   0.19063797 
   37500   -281.83247    32.550009   -249.28246    2353.4377    106488.34    10.472245   0.13476729 
   37600   -274.69335    32.308481   -242.38487    2335.9746    127226.98    10.472245   0.17989152 
   37700   -277.40417    31.768276    -245.6359    2296.9166    118742.07    10.472245    0.1575373 
   37800   -279.88014    23.940071   -255.94007    1730.9201     107073.1    10.472245   0.16286369 
   37900   -280.25644    31.811991   -248.44445    2300.0773    108235.27    10.472245   0.15476923 
   38000   -279.35794    36.493591   -242.86435    2638.5674    115119.44    10.472245   0.17926811 
   38100   -279.38585    31.803179   -247.58267    2299.4402    111129.39    10.472245   0.17324845 
   38200   -281.66282    31.026424    -250.6364    2243.2791    106143.95    10.472245   0.14243429 
   38300   -275.52159    31.499524   -244.02207    2277.4852    126198.33    10.472245   0.18257553 
   38400   -279.38246    31.996713   -247.38575    2313.4331    113034.74    10.472245   0.15019201 
   38500   -280.65323    27.887488   -252.76574    2016.3271    106428.59    10.472245   0.16482544 
   38600   -277.25008    34.125984   -243.12409    2467.3842    121784.84    10.472245   0.17691743 
   38700   -275.53567    28.832772    -246.7029    2084.6732    124772.73    10.472245   0.17671522 
   38800   -277.41938    27.800476    -249.6189    2010.0359    119448.31    10.472245    0.1602173 
   38900   -271.41525    30.325242   -241.09001    2192.5821    138887.89    10.472245   0.26131797 
   39000      -278.17     30.17842   -247.99158    2181.9665    117610.46    10.472245   0.21961036 
   39100   -278.02302    30.939996   -247.08302    2237.0301    118162.72    10.472245    0.1974867 
   39200   -271.91587    29.780017   -242.13586    2153.1611    134997.81    10.472245   0.22221708 
   39300   -278.49226    29.060232   -249.43202     2101.119    112137.92    10.472245   0.19061131 
   39400   -276.58127    28.849839   -247.73144    2085.9072    121225.51    10.472245   0.16531831 
   39500   -276.75181    34.113846   -242.63796    2466.5065    122831.74    10.472245   0.22519807 
   39600   -276.10634    29.637984   -246.46835    2142.8918    122186.99    10.472245   0.21215681 
   39700   -277.93272    27.173066   -250.75965    1964.6728    114379.74    10.472245   0.18296501 
   39800   -274.92449    30.810982   -244.11351    2227.7022    126826.66    10.472245   0.19661601 
   39900   -274.43614    29.512039    -244.9241    2133.7857    125322.09    10.472245   0.22719861 
   40000   -276.48443    24.710228    -251.7742    1786.6042    118087.95    10.472245   0.18563521 
   40100   -273.74223    29.788558   -243.95367    2153.7786    129401.25    10.472245   0.20658692 
   40200   -274.76919    30.291954   -244.47724    2190.1753    127398.85    10.472245   0.20279995 
   40300   -278.91562    27.140505   -251.77511    1962.3186    110667.28    10.472245   0.15188656 
   40400   -275.56549    31.394611   -244.17088    2269.8998    123338.06    10.472245   0.21465612 
   40500   -275.13794    32.141441    -242.9965    2323.8973    126338.08    10.472245   0.20008849 
   40600    -278.5998    27.964361   -250.63544    2021.8852    112881.52    10.472245   0.17966989 
   40700   -276.72812    34.899098   -241.82902     2523.282    121895.75    10.472245   0.19081554 
   40800    -274.9315    29.310465   -245.62103    2119.2114     125643.3    10.472245   0.17440847 
   40900    -276.7603     28.96292   -247.79738    2094.0832    120368.86    10.472245   0.20808722 
   41000    -270.5189    30.747053   -239.77185    2223.0799    141169.05    10.472245   0.22902714 
   41100   -277.59667    30.550136   -247.04653    2208.8424    118660.95    10.472245   0.17165708 
   41200   -278.86045    31.692834   -247.16761     2291.462    112883.49    10.472245   0.16307988 
   41300   -271.45288    34.972831   -236.48005     2528.613    137770.94    10.472245   0.25673274 
   41400   -275.84457    33.031264    -242.8133    2388.2334    125641.98    10.472245   0.19822296 
   41500   -277.93442    30.011259   -247.92316    2169.8804    117120.09    10.472245   0.16198805 
   41600   -277.22039    33.372017   -243.84837    2412.8706    121128.19    10.472245   0.17549536 
   41700   -274.70873    33.780114   -240.92862    2442.3769    129153.09    10.472245   0.21254103 
   41800   -276.54248    28.397654   -248.14482    2053.2132    119238.97    10.472245   0.19165182 
   41900   -277.36959    31.846973   -245.52262    2302.6066     119591.3    10.472245   0.16230729 
   42000   -271.53195    35.506597   -236.02535    2567.2055       139442    10.472245   0.22992485 
   42100   -276.36107    32.749263   -243.61181    2367.8442    124564.78    10.472245   0.18862106 
   42200   -278.49506    32.418105   -246.07695    2343.9007    115341.61    10.472245    0.1934034 
   42300    -277.2079    30.298721   -246.90918    2190.6645    118492.19    10.472245   0.15742462 
   42400   -274.12736    34.443904   -239.68346    2490.3704    132413.44    10.472245   0.22166095 
   42500   -277.99501    30.332705    -247.6623    2193.1216    118223.33    10.472245   0.19210514 
   42600    -276.9062     29.11245   -247.79375    2104.8945    117677.61    10.472245   0.17171646 
   42700   -276.77064    33.278348   -243.49229    2406.0982    123723.55    10.472245   0.16154992 
   42800   -280.64758    32.777428   -247.87016    2369.8805    108087.25    10.472245   0.15703334 
   42900    -283.2317    31.527808   -251.70389    2279.5303    101267.69    10.472245    0.1524723 
   43000   -272.85625    29.551157    -243.3051     2136.614    131046.96    10.472245   0.22944219 
   43100   -277.55683    34.325148   -243.23168    2481.7841    122279.21    10.472245   0.17992564 
   43200   -277.50077    28.273465    -249.2273    2044.2341    117191.71    10.472245   0.18699894 
   43300   -273.20507    30.353738   -242.85134    2194.6424    133168.95    10.472245   0.23355229 
   43400   -278.32033    33.019463   -245.30087    2387.3802    117527.87    10.472245   0.18195841 
   43500   -277.65717    29.144103   -248.51306    2107.1831    116431.19    10.472245   0.16392943 
   43600    -276.8875    35.893737   -240.99376    2595.1966    121934.34    10.472245   0.21758229 
   43700   -276.15665    31.064638   -245.09202    2246.0421    122920.07    10.472245   0.22394919 
   43800   -278.52688    31.123147   -247.40373    2250.2724    113833.67    10.472245   0.14685198 
   43900   -275.41175    34.868243   -240.54351    2521.0511     128018.8    10.472245   0.17369927 
   44000   -274.26828    32.531488    -241.7368    2352.0986    129847.24    10.472245   0.24805797 
   44100   -277.97058    29.764853   -248.20573    2152.0647    113158.35    10.472245   0.18063909 
   44200   -273.95444    32.078252   -241.87619    2319.3286    130937.67    10.472245   0.21818312 
   44300   -275.46278    29.312067   -246.15072    2119.3273    126423.64    10.472245   0.18446135 
   44400   -278.86718    28.859744   -250.00743    2086.6233    111893.02    10.472245    0.1619769 
   44500   -272.30888    28.956326   -243.35255    2093.6064    133129.29    10.472245    0.2460757 
   44600   -275.91942     30.58975   -245.32967    2211.7066     123592.7    10.472245   0.22940841 
   44700   -277.37993    28.560312   -248.81962    2064.9738    116081.42    10.472245   0.19090443 
   44800   -279.62209    29.701367   -249.92072    2147.4745    111587.83    10.472245   0.15497869 
   44900   -272.09454     29.28339   -242.81115    2117.2539    134391.44    10.472245   0.22901735 
   45000   -274.99102    27.775279   -247.21574    2008.2141    123784.93    10.472245    0.2061981 
   45100   -278.13008    26.080335   -252.04975    1885.6659    114444.81    10.472245   0.16054683 
   45200   -277.35566    31.129999   -246.22566    2250.7678    118773.88    10.472245   0.18944111 
   45300   -276.50574    32.903797   -243.60194    2379.0173    122469.91    10.472245   0.19279465 
   45400   -273.03441     29.42761    -243.6068    2127.6813    128686.53    10.472245   0.22402238 
   45500   -279.09012    28.832516    -250.2576    2084.6547    112846.75    10.472245   0.17175078 
   45600   -274.86719    33.155693    -241.7115    2397.2299    128239.94    10.472245   0.22313186 
   45700   -276.25873    31.594764   -244.66397    2284.3713    122160.55    10.472245   0.19068145 
   45800   -278.08616    31.356407   -246.72975    2267.1376    117127.79    10.472245   0.20123914 
   45900   -273.98117    34.747932   -239.23324    2512.3524    130339.12    10.472245   0.22841223 
   46000   -277.25919    31.600188     -245.659    2284.7635    118581.06    10.472245   0.21315414 
   46100   -277.30832    32.082137   -245.22618    2319.6095    119305.06    10.472245    0.1930192 
   46200   -275.39982      34.1738   -241.22602    2470.8413    125929.61    10.472245   0.20234956 
   46300   -275.57458    27.382219   -248.19236     1979.795    123618.85    10.472245   0.19393632 
   46400   -277.05444    31.622558   -245.43188    2286.3809    120803.35    10.472245   0.17246516 
   46500   -270.84247    33.452695   -237.38977    2418.7038    141233.75    10.472245   0.32878836 
   46600   -277.86993    34.075894   -243.79404    2463.7625    119574.25    10.472245   0.19150004 
   46700   -274.76857    28.366764   -246.40181    2050.9798    125564.63    10.472245   0.20486698 
   46800   -274.33709    36.373638   -237.96345    2629.8945     131335.9    10.472245   0.22796542 
   46900   -274.24067    33.369906   -240.87076     2412.718    128536.67    10.472245   0.20081911 
   47000   -275.77927    29.083778   -246.69549    2102.8215     121251.5    10.472245   0.18936398 
   47100   -277.77078    29.825714   -247.94507    2156.4651    115645.17    10.472245   0.17575118 
   47200   -275.94854    36.210723   -239.73781    2618.1154    125278.88    10.472245   0.19031922 
   47300    -277.4845    29.649392    -247.8351    2143.7166    115565.85    10.472245   0.19503661 
   47400   -274.39845    27.762748    -246.6357    2007.3081    124147.12    10.472245   0.21913596 
   47500   -275.08345    31.961396   -243.12205    2310.8796    127719.79    10.472245   0.23798207 
   47600   -275.38657    27.251014   -248.13555    1970.3086    120010.73    10.472245   0.18574265 
   47700   -277.29443     29.65337   -247.64106    2144.0043    117452.57    10.472245   0.18165478 
   47800   -272.92677    31.856746   -241.07003    2303.3132    131847.61    10.472245   0.23185962 
   47900   -273.23796    26.521325   -246.71664    1917.5505    126763.77    10.472245   0.19803672 
   48000   -277.12427    27.289629   -249.83464    1973.1005    117199.46    10.472245   0.22211542 
   48100   -272.19342    28.774466   -243.41896    2080.4575    133954.35    10.472245   0.25267702 
   48200    -278.4295    34.713577   -243.71593    2509.8684    117781.95    10.472245   0.19814277 
   48300   -279.66256    29.726128   -249.93643    2149.2648    111772.52    10.472245   0.14793994 
   48400   -277.46679    36.504248   -240.96255    2639.3378    121089.13    10.472245   0.19962833 
   48500   -276.08225    33.060158   -243.02209    2390.3226    123605.51    10.472245    0.1870522 
   48600   -278.51604    31.642638   -246.87341    2287.8327    115358.84    10.472245   0.17162245 
   48700    -277.0695    30.947431   -246.12206    2237.5677    118646.87    10.472245   0.20542083 
   48800   -276.52336    31.393414   -245.12995    2269.8133     121370.4    10.472245   0.22411417 
   48900   -276.90582    31.727866   -245.17796    2293.9949    116398.49    10.472245   0.22274617 
   49000   -277.25054    32.202866   -245.04767    2328.3385    119032.17    10.472245   0.21657396 
   49100   -272.57599    30.973418   -241.60257    2239.4466     131737.8    10.472245   0.21995758 
   49200   -277.94011    29.725695   -248.21442    2149.2335    115713.11    10.472245   0.21886275 
   49300   -276.24415    29.983151     -246.261    2167.8482    118527.37    10.472245   0.20626082 
   49400    -273.3005    32.996636   -240.30386    2385.7298    132344.01    10.472245   0.23831593 
   49500   -275.37657    29.586637   -245.78993    2139.1793    123557.42    10.472245   0.19469982 
   49600    -279.9613    32.615828   -247.34547    2358.1965    111759.86    10.472245   0.18745914 
   49700    -270.8802    33.739198     -237.141    2439.4186    139898.45    10.472245   0.24578373 
   49800   -277.11499    31.236165   -245.87883    2258.4438     119687.8    10.472245   0.19239032 
   49900   -276.97311    30.204763   -246.76835    2183.8712     119102.7    10.472245   0.20433742 
   50000   -271.84956    32.912831   -238.93673    2379.6705    140470.11    10.472245    0.2422803 
   50100   -276.02921    27.401394   -248.62782    1981.1814    120704.52    10.472245   0.23500979 
   50200   -276.35184    33.505611   -242.84623    2422.5298    123470.56    10.472245   0.16746538 
   50300   -276.73369    30.254306   -246.47938    2187.4533    122416.94    10.472245   0.20510499 
   50400   -279.97022    29.848994   -250.12122    2158.1483    110660.13    10.472245   0.16136963 
   50500   -273.57924    27.977294   -245.60194    2022.8202    127469.88    10.472245   0.20261519 
   50600   -276.45442    32.485923    -243.9685    2348.8041    121639.28    10.472245   0.17662217 
   50700   -275.96988     28.64734   -247.32254     2071.266    121519.44    10.472245   0.19292079 
   50800   -276.94659    28.823537   -248.12306    2084.0054    119608.66    10.472245   0.14828183 
   50900   -271.34126    30.511728   -240.82953    2206.0654     137113.4    10.472245   0.25092701 
   51000   -277.31878    32.542791   -244.77599    2352.9158    121627.06    10.472245   0.20806937 
   51100   -275.35339    28.244054   -247.10934    2042.1076    122849.37    10.472245   0.21895436 
   51200   -276.42166      34.5701   -241.85156    2499.4947    122814.04    10.472245   0.21082928 
   51300   -277.69262    32.695108   -244.99751    2363.9286    119185.72    10.472245   0.18208707 
   51400   -280.22803    32.315778   -247.91226    2336.5023    109134.07    10.472245   0.15444826 
   51500   -274.36744      33.2236   -241.14384    2402.1398     130403.7    10.472245   0.22307993 
   51600   -272.88722    31.731269   -241.15595    2294.2409    131272.76    10.472245    0.2063852 
   51700   -280.73042    32.865655   -247.86477    2376.2596    108787.53    10.472245   0.15175937 
   51800   -274.29908    31.571255   -242.72782    2282.6716    128242.44    10.472245    0.2116374 
   51900   -275.38885    33.138734   -242.25012    2396.0037    125734.65    10.472245   0.18298719 
   52000   -278.57424    28.550266   -250.02397    2064.2473    114083.07    10.472245   0.16143968 
   52100   -270.49444    27.912668   -242.58177    2018.1477     138974.6    10.472245   0.24940133 
   52200   -273.65495    30.937479   -242.71747    2236.8482    132349.47    10.472245   0.24584677 
   52300   -278.79075    28.499679   -250.29107    2060.5898    113478.59    10.472245   0.18410374 
   52400   -279.48783     29.97793    -249.5099    2167.4706    112886.02    10.472245   0.16529336 
   52500   -275.99495    31.071965   -244.92298    2246.5718    123786.72    10.472245   0.17916862 
   52600   -275.47242    34.854071   -240.61835    2520.0264    128930.03    10.472245   0.19464696 
   52700   -274.71761    28.219211    -246.4984    2040.3113    126468.46    10.472245   0.19256057 
   52800    -278.3778     31.78347   -246.59433    2298.0152    117025.98    10.472245   0.14869644 
   52900   -273.85898    36.388374   -237.47061    2630.9599    133489.89    10.472245   0.18590351 
   53000   -279.07202    31.379833   -247.69219    2268.8314    112756.06    10.472245   0.14666345 
   53100   -280.94211     34.18119   -246.76092    2471.3757    108974.85    10.472245   0.14841894 
   53200   -274.78079    35.529813   -239.25098    2568.8841    129889.04    10.472245   0.18875886 
   53300   -275.54111    29.547672   -245.99344    2136.3621    122877.63    10.472245   0.20082357 
   53400   -277.30177    31.215417   -246.08635    2256.9437    117317.16    10.472245   0.16133705 
   53500   -275.13321    34.557576   -240.57564    2498.5892    126186.66    10.472245   0.21408341 
   53600   -277.02573    33.125136   -243.90059    2395.0206    123488.05    10.472245   0.21751841 
   53700   -280.61429    32.425977   -248.18831    2344.4698    108248.63    10.472245   0.17018157 
   53800   -275.14029    35.004293     -240.136    2530.8878    129364.28    10.472245   0.17444488 
   53900   -275.85113    30.504373   -245.34676    2205.5336    123545.96    10.472245   0.20134576 
   54000   -275.53196    28.385767   -247.14619    2052.3538    120894.96    10.472245   0.21621544 
   54100   -275.86556     31.19042   -244.67514    2255.1363    124740.28    10.472245    0.1827336 
   54200   -276.20569    31.301669   -244.90402    2263.1799    123165.14    10.472245   0.17447585 
   54300    -278.7651    30.110858   -248.65425    2177.0817    114314.04    10.472245   0.14922273 
   54400   -277.79407    28.555483   -249.23859    2064.6245     116072.2    10.472245   0.17915452 
   54500   -273.78766    30.983546   -242.80411    2240.1789    127337.28    10.472245   0.18753273 
   54600   -275.80204    28.751183   -247.05086    2078.7742    121075.73    10.472245   0.18102743 
   54700   -280.66137    27.490466   -253.17091    1987.6215    107453.85    10.472245    0.1453077 
   54800   -276.68689    32.021336   -244.66555    2315.2134    121714.53    10.472245   0.16554097 
   54900   -274.97648    29.755398   -245.22108    2151.3811    125269.98    10.472245   0.17722692 
   55000   -279.79841    28.115968   -251.68245    2032.8467    110016.69    10.472245   0.15720633 
   55100   -274.70518    30.780514   -243.92467    2225.4992    126897.58    10.472245     0.242769 
   55200   -275.00201     32.11398   -242.88803    2321.9118    124675.92    10.472245   0.28333259 
   55300   -281.56564    31.014109   -250.55153    2242.3887    107382.48    10.472245    0.1629047 
   55400   -279.87231    32.421028   -247.45128     2344.112    111131.29    10.472245   0.19362701 
   55500   -273.88737    29.357731   -244.52964    2122.6289    128559.54    10.472245   0.20839908 
   55600   -276.65487    30.772679   -245.88219    2224.9327    122439.13    10.472245   0.17643176 
   55700   -280.26054    29.749074   -250.51147    2150.9238    108873.06    10.472245   0.14928704 
   55800   -274.83061    32.873977   -241.95664    2376.8613     128627.4    10.472245   0.17551294 
   55900   -279.08276    32.425434   -246.65733    2344.4306    113823.23    10.472245   0.14718751 
   56000   -280.55272    33.794377   -246.75835    2443.4082    110379.33    10.472245   0.14300021 
   56100   -273.81578    33.989964   -239.82582    2457.5496     131317.3    10.472245   0.26623204 
   56200    -277.2624    30.296151   -246.96625    2190.4787    119652.66    10.472245   0.17508227 
   56300   -276.50458    30.424312   -246.08027     2199.745    121568.97    10.472245   0.19219356 
   56400   -270.32787    30.801113   -239.52676    2226.9886    141574.27    10.472245   0.25273964 
   56500   -278.26289    30.467793    -247.7951    2202.8888    116154.45    10.472245   0.16672266 
   56600   -278.20012      31.9898   -246.21033    2312.9333    115004.37    10.472245   0.17931433 
   56700   -273.31695    36.346504   -236.97045    2627.9326    134818.26    10.472245   0.20295176 
   56800   -273.21031    29.448612   -243.76169    2129.1998     132955.1    10.472245   0.23016464 
   56900    -277.5917    30.618459   -246.97325    2213.7823    117065.99    10.472245   0.17763285 
   57000   -280.20554     26.28735   -253.91819    1900.6336    108364.78    10.472245   0.13476402 
   57100   -277.25301    31.653067   -245.59995    2288.5867    118724.36    10.472245   0.22472199 
   57200   -273.17899    28.663868   -244.51512    2072.4611    128662.75    10.472245     0.223109 
   57300   -276.57513     26.61928   -249.95585    1924.6328    118656.58    10.472245   0.19967604 
   57400   -277.31519    32.141306   -245.17388    2323.8875    119417.05    10.472245   0.15338033 
   57500   -275.77649    32.059585    -243.7169    2317.9789    123360.49    10.472245   0.19237835 
   57600   -275.81692    26.300798   -249.51613    1901.6059    118766.97    10.472245   0.19065606 
   57700     -282.873    28.916525   -253.95648    2090.7287    99709.379    10.472245   0.14235833 
   57800   -277.02217    30.483447   -246.53873    2204.0206    120783.14    10.472245   0.17069829 
   57900   -274.88826    32.371218   -242.51704    2340.5106    124735.55    10.472245   0.24131244 
   58000    -271.4788    28.747028   -242.73177    2078.4737    133269.67    10.472245   0.20747386 
   58100   -278.24304    28.179189   -250.06386    2037.4177    113607.37    10.472245   0.21104592 
   58200    -276.1541    32.780946   -243.37316    2370.1349    122857.97    10.472245    0.2044614 
   58300   -274.49809    30.543142   -243.95495    2208.3367     128869.8    10.472245   0.19765708 
   58400   -277.46466    29.757348   -247.70731    2151.5221    115977.39    10.472245   0.20842956 
   58500   -277.72364    31.898717   -245.82493    2306.3478    118547.73    10.472245   0.19573109 
   58600    -274.0352    33.700456   -240.33474    2436.6175    131776.81    10.472245   0.21961449 
   58700   -278.44791    28.670771   -249.77714    2072.9602    111303.09    10.472245   0.15819669 
   58800    -276.8972    30.771963   -246.12524     2224.881    120360.64    10.472245   0.19366934 
   58900   -276.06759    33.668901   -242.39869     2434.336    123968.29    10.472245   0.18074249 
   59000   -276.03722    29.327044   -246.71017    2120.4102    123730.52    10.472245   0.17738548 
   59100   -281.44182    28.322111   -253.11971    2047.7513    101803.24    10.472245    0.1523023 
   59200   -276.85352     31.28928   -245.56424    2262.2842    122240.55    10.472245   0.16910163 
   59300   -274.51488    30.012234   -244.50264    2169.9509    128823.44    10.472245   0.23664768 
   59400   -278.25765    29.813773   -248.44388    2155.6017    115693.36    10.472245   0.20249585 
   59500   -271.97793      27.9058   -244.07213    2017.6511    131855.83    10.472245   0.24035138 
   59600    -275.2409    33.471885   -241.76901    2420.0913    126782.87    10.472245   0.15310247 
   59700   -279.55101    34.101464   -245.44955    2465.6113     112275.5    10.472245   0.15784014 
   59800   -277.83547     32.81141   -245.02406    2372.3375    119205.45    10.472245    0.1814275 
   59900   -275.65813    34.293018   -241.36511    2479.4611    127739.68    10.472245   0.25166634 
   60000   -272.66638    28.744368   -243.92201    2078.2814    132402.09    10.472245   0.22496476 
   60100   -278.14117      28.7441   -249.39707     2078.262    112773.21    10.472245   0.18880541 
   60200   -273.28281    31.073877   -242.20893    2246.7101    129452.92    10.472245     0.251021 
   60300    -275.4574    32.287424   -243.16998    2334.4522    124870.37    10.472245   0.20640178 
   60400   -277.24486    28.561571   -248.68328    2065.0648    118405.02    10.472245   0.17638997 
   60500   -274.14707    34.060228   -240.08685    2462.6298     131091.7    10.472245   0.19110402 
   60600   -275.61061    30.693186   -244.91742    2219.1852    124650.04    10.472245   0.18906621 
   60700   -277.11348    29.227802   -247.88568    2113.2347    115885.92    10.472245   0.18667671 
   60800    -274.0446    36.648857   -237.39574    2649.7934    129995.68    10.472245   0.19828022 
   60900   -274.16342    29.627904   -244.53552     2142.163     125471.5    10.472245   0.22231951 
   61000   -276.23024    27.772032   -248.45821    2007.9794    121725.66    10.472245   0.18900526 
   61100    -274.0012    34.567189   -239.43401    2499.2842    130746.87    10.472245   0.19029252 
   61200    -273.0113    29.073443   -243.93785    2102.0742     134075.2    10.472245   0.28948066 
   61300   -275.16206    30.807982   -244.35408    2227.4853    125912.56    10.472245   0.22436345 
   61400   -275.55353     30.56876   -244.98478    2210.1889    122648.61    10.472245   0.25476521 
   61500   -272.86009    27.457197    -245.4029    1985.2161    130477.48    10.472245   0.22615444 
   61600    -276.0636    32.223891   -243.83971    2329.8586    123634.76    10.472245    0.1993941 
   61700   -270.60466    29.705505   -240.89915    2147.7737    137829.98    10.472245   0.24639582 
   61800   -279.53217    32.025538   -247.50663    2315.5172    111745.54    10.472245   0.17012566 
   61900    -279.0175    31.991924   -247.02558    2313.0869    117069.99    10.472245   0.15341484 
   62000   -269.18943    30.464939   -238.72449    2202.6825     143948.6    10.472245   0.32429794 
   62100   -274.61862    28.527837   -246.09079    2062.6257    127220.56    10.472245   0.19950246 
   62200   -275.43782    29.004595   -246.43322    2097.0964    123991.82    10.472245   0.21098449 
   62300   -270.82477    29.907425   -240.91734     2162.373    140053.82    10.472245   0.22531095 
   62400    -271.0852    29.657791   -241.42741    2144.3239    136703.61    10.472245   0.29165317 
   62500   -276.16054    27.294553   -248.86599    1973.4566    119753.07    10.472245   0.26141313 
   62600   -274.13332      30.2951   -243.83822    2190.4028    130723.89    10.472245   0.19603757 
   62700   -272.88752    28.062522   -244.82499    2028.9824    130730.09    10.472245   0.23733419 
   62800   -276.36026    30.790323   -245.56993    2226.2084    122131.66    10.472245    0.1970059 
   62900   -277.65359    28.009322   -249.64426    2025.1359       116663    10.472245   0.18486537 
   63000   -276.31457    31.239227   -245.07535    2258.6652    121302.44    10.472245   0.18229931 
   63100   -275.97884    34.415289   -241.56355    2488.3015    124480.82    10.472245   0.19019569 
   63200    -278.3282    27.782941   -250.54526    2008.7681     111495.6    10.472245   0.16617567 
   63300   -279.95787     32.85984   -247.09803    2375.8391    111551.06    10.472245   0.21044785 
   63400   -272.70276    31.670131   -241.03263    2289.8205    132473.82    10.472245   0.22417164 
   63500   -278.95912     29.56455   -249.39457    2137.5824    112518.02    10.472245   0.20066064 
   63600   -275.93866    29.632111   -246.30655    2142.4671    121443.52    10.472245   0.23447437 
   63700   -273.95979    31.092291    -242.8675    2248.0414    130151.07    10.472245   0.21454202 
   63800   -279.78381    29.345805     -250.438    2121.7666    110118.55    10.472245    0.2033834 
   63900   -271.15009     30.62825   -240.52184    2214.4902    137165.67    10.472245   0.22411977 
   64000    -277.1394    32.316702    -244.8227    2336.5691    121816.36    10.472245   0.18059603 
   64100   -278.71228    30.609147   -248.10314     2213.109    116377.97    10.472245   0.16764814 
   64200   -274.44713    35.269369   -239.17776    2550.0534    131217.14    10.472245   0.20115027 
   64300   -277.20545    32.740248    -244.4652    2367.1923    119293.38    10.472245   0.18335783 
   64400   -276.69169    31.289717   -245.40198    2262.3157    121034.01    10.472245    0.1865951 
   64500   -270.84283    30.058546   -240.78428    2173.2994    140898.04    10.472245   0.30652795 
   64600   -273.01353    33.263841   -239.74969    2405.0492    133434.74    10.472245   0.23867875 
   64700   -277.02124    33.176846   -243.84439    2398.7593    120123.33    10.472245   0.19116045 
   64800   -275.81222    28.048662   -247.76356    2027.9803    121273.07    10.472245   0.18960052 
   64900   -280.82638    29.172134   -251.65425    2109.2098    107077.33    10.472245   0.15047001 
   65000   -275.59099    30.053717   -245.53727    2172.9502    124352.02    10.472245    0.1926636 
   65100   -273.80231    28.083677   -245.71864     2030.512    126337.84    10.472245   0.24979156 
   65200   -279.94026    30.036574   -249.90369    2171.7108    110295.06    10.472245   0.15849945 
   65300   -277.81768    32.857633   -244.96005    2375.6795     120145.4    10.472245   0.18375672 
   65400   -273.87568    31.054122   -242.82156    2245.2817    129917.23    10.472245   0.22942485 
   65500   -283.13043    31.856877   -251.27356    2303.3227    99651.194    10.472245   0.12799353 
   65600   -277.31302    26.691655   -250.62137    1929.8657    116115.16    10.472245    0.1726853 
   65700   -279.59828    36.024547   -243.57373    2604.6544    114522.55    10.472245   0.19758562 
   65800    -273.2006    31.623995   -241.57661    2286.4848     133581.8    10.472245   0.26437836 
   65900   -278.83571    28.493202   -250.34251    2060.1215    112792.72    10.472245   0.14581134 
   66000   -275.18159    30.591494   -244.59009    2211.8327    124372.73    10.472245   0.21618831 
   66100   -275.30498     30.82844   -244.47654    2228.9644    124819.18    10.472245   0.19588025 
   66200   -276.03354    26.827088   -249.20645    1939.6578    120663.29    10.472245   0.19835277 
   66300   -280.40376    28.810717   -251.59304    2083.0785    108267.07    10.472245   0.18640901 
   66400   -274.19473    29.793581   -244.40115    2154.1418    129659.91    10.472245   0.17825677 
   66500   -276.71833    30.487356   -246.23098    2204.3033    120302.31    10.472245   0.18439173 
   66600   -279.41113    28.143112   -251.26801    2034.8092    111865.37    10.472245   0.15395595 
   66700   -273.91704    31.813411   -242.10363      2300.18    130956.73    10.472245   0.19285118 
   66800   -274.23354    28.693007   -245.54054    2074.5679    127440.52    10.472245   0.21549144 
   66900   -278.01467    29.359007   -248.65567    2122.7211    115515.06    10.472245    0.1902739 
   67000   -275.04556    35.844471   -239.20109    2591.6346    128509.65    10.472245   0.23350566 
   67100   -274.99188    28.648885     -246.343    2071.3778    123469.91    10.472245   0.20837805 
   67200   -276.57951    28.843416   -247.73609    2085.4428    119967.15    10.472245   0.19013632 
   67300   -272.83018    36.146887    -236.6833    2613.4999    135341.47    10.472245   0.22275415 
   67400   -276.32515    32.981341   -243.34381    2384.6239    122433.33    10.472245   0.15288336 
   67500   -275.80093    27.842516   -247.95842    2013.0755    124005.01    10.472245    0.1576334 
   67600    -275.5623    33.962241   -241.60006    2455.5452    123657.87    10.472245   0.17664988 
   67700   -275.35646    33.368441   -241.98802    2412.6121    123718.29    10.472245   0.16767852 
   67800   -279.95073     31.56895   -248.38178    2282.5049    108742.02    10.472245   0.16755731 
   67900   -275.54639    32.468225   -243.07817    2347.5245    127269.96    10.472245      0.18569 
   68000   -277.04602     31.76941   -245.27661    2296.9986    121621.53    10.472245    0.2026876 
   68100   -279.57695    29.731236   -249.84572    2149.6341    112552.54    10.472245   0.13953023 
   68200   -274.30215    32.569037   -241.73311    2354.8134    129075.58    10.472245    0.1998798 
   68300   -275.26228    29.429964   -245.83231    2127.8515    123558.16    10.472245   0.19559655 
   68400   -278.53558    30.756764   -247.77882    2223.7821     115664.4    10.472245   0.22562502 
   68500   -274.28273    35.352833    -238.9299     2556.088    132558.88    10.472245   0.24992613 
   68600   -278.79653    31.907175   -246.88936    2306.9593    112755.92    10.472245   0.17271194 
   68700   -276.76273    29.800497   -246.96223    2154.6418    119076.76    10.472245   0.17304264 
   68800   -272.63148    36.036748   -236.59473    2605.5366    137272.31    10.472245   0.20982501 
   68900    -275.8494    32.697649   -243.15175    2364.1123    124759.28    10.472245   0.17836386 
   69000   -276.98301    29.698881   -247.28413    2147.2948    117506.45    10.472245   0.15645407 
   69100   -274.48535    30.065408   -244.41994    2173.7955    127792.45    10.472245   0.19807523 
   69200   -274.75203    33.420613   -241.33142    2416.3842    127284.37    10.472245   0.20403642 
   69300   -280.69366    31.641871   -249.05179    2287.7773    109600.42    10.472245   0.14543381 
   69400   -275.00159    29.094502   -245.90709    2103.5969    124465.21    10.472245   0.21434006 
   69500   -277.82261    33.762305   -244.06031    2441.0893    119127.28    10.472245   0.17621175 
   69600   -274.71508    28.484502   -246.23057    2059.4925    124834.44    10.472245    0.2215254 
   69700   -272.83764    31.290182   -241.54746    2262.3493    133478.56    10.472245   0.23564198 
   69800   -272.80505     32.38407   -240.42098    2341.4399    133276.33    10.472245   0.22862352 
   69900   -276.21411    29.034853   -247.17926    2099.2841    121858.72    10.472245   0.18301805 
   70000    -272.6552    30.183104    -242.4721    2182.3052    134116.39    10.472245   0.24810673 
   70100     -275.712    36.266046   -239.44596    2622.1153    129880.75    10.472245   0.20782817 
   70200   -275.24132    29.219054   -246.02227    2112.6022    123087.11    10.472245   0.18781358 
   70300   -275.39793    28.787897   -246.61004    2081.4286     125218.5    10.472245   0.19399993 
   70400   -277.44004    36.407338    -241.0327    2632.3311    121410.26    10.472245   0.17481919 
   70500   -275.05813    29.847372   -245.21075    2158.0311    125289.68    10.472245   0.20811753 
   70600   -277.70347    30.608045   -247.09543    2213.0293    115999.74    10.472245   0.19229022 
   70700   -276.30618    36.969512   -239.33666    2672.9775    125053.01    10.472245   0.20604004 
   70800   -273.77075     30.06621   -243.70454    2173.8535    126738.06    10.472245   0.24822117 
   70900   -278.21001    31.768588   -246.44142    2296.9392    114247.58    10.472245   0.20267252 
   71000    -277.1986    31.671244   -245.52736     2289.901     119288.4    10.472245   0.18769231 
   71100    -272.2211    29.352216   -242.86889    2122.2302    134802.17    10.472245   0.31725202 
   71200   -278.73368    30.468485   -248.26519    2202.9388    112934.94    10.472245   0.21368631 
   71300   -278.44191    30.369228   -248.07268    2195.7624    114664.02    10.472245   0.17671029 
   71400   -275.12011    34.261101   -240.85901    2477.1534    128492.86    10.472245   0.16944118 
   71500   -279.40789     32.27639    -247.1315    2333.6544    111824.56    10.472245   0.15180697 
   71600   -276.00356     33.45664   -242.54692    2418.9891    125076.14    10.472245   0.16870858 
   71700   -271.41467    31.065786   -240.34888     2246.125     135756.3    10.472245   0.23788508 
   71800   -276.59586    30.020534   -246.57532     2170.551    120181.16    10.472245   0.19845821 
   71900   -279.90076    31.366276   -248.53448    2267.8511    111305.88    10.472245   0.20681697 
   72000   -274.18575    32.038213   -242.14754    2316.4337    130785.78    10.472245   0.20800531 
   72100   -272.24376    26.295411   -245.94835    1901.2164    131127.71    10.472245   0.30051592 
   72200   -280.58687    27.487425   -253.09945    1987.4016    107133.23    10.472245   0.14853453 
   72300   -276.63837    30.640097   -245.99827    2215.3468    121082.02    10.472245   0.17285913 
   72400   -274.30837    30.587271    -243.7211    2211.5273    126858.37    10.472245   0.23109298 
   72500   -281.73452     34.29914   -247.43538    2479.9037    106165.63    10.472245   0.20486907 
   72600   -277.18903    29.060589   -248.12844    2101.1449    117057.75    10.472245    0.1945006 
   72700   -274.26085    32.462074   -241.79878    2347.0797    133056.36    10.472245   0.23627864 
   72800   -273.73238    25.289482    -248.4429    1828.4855    123684.62    10.472245   0.26250751 
   72900   -272.77914     32.69483   -240.08431    2363.9085    133910.35    10.472245   0.25572811 
   73000   -275.56653    32.708417   -242.85811    2364.8909    124642.24    10.472245   0.20400824 
   73100   -277.79509    30.093237   -247.70185    2175.8076    117820.51    10.472245    0.1932206 
   73200   -275.12408    36.667515   -238.45656    2651.1425    132390.83    10.472245   0.20562122 
   73300   -277.34168    33.667656   -243.67402     2434.246    121691.21    10.472245   0.18291603 
   73400   -277.91879    31.560108   -246.35868    2281.8656     117275.5    10.472245   0.19663276 
   73500    -271.4908    33.919072   -237.57173    2452.4239    138831.77    10.472245   0.26311401 
   73600   -271.98063    32.026432    -239.9542    2315.5819    135598.66    10.472245   0.22848678 
   73700   -275.55689    29.152707   -246.40419    2107.8052    123156.17    10.472245     0.206397 
   73800   -278.77254    32.664925   -246.10762    2361.7463    114253.98    10.472245   0.17512341 
   73900   -271.64183    34.123449   -237.51838    2467.2008    136449.24    10.472245   0.28400494 
   74000   -277.40945    31.898091   -245.51136    2306.3026    121045.13    10.472245   0.15908238 
   74100   -279.43976    32.890051   -246.54971    2378.0235    115734.23    10.472245   0.16872299 
   74200   -275.49218    35.042663   -240.44951     2533.662    126880.81    10.472245   0.20389489 
   74300   -278.26963    31.973554   -246.29608    2311.7587    117101.49    10.472245   0.17128479 
   74400   -273.85696    26.193462    -247.6635    1893.8453     126637.3    10.472245   0.21749346 
   74500   -273.09731    31.677636   -241.41968    2290.3631    133125.29    10.472245   0.19681024 
   74600   -275.97665    31.083259   -244.89339    2247.3884    120667.47    10.472245   0.23308969 
   74700   -276.29172    29.084029   -247.20769    2102.8396    122648.13    10.472245   0.20525214 
   74800   -278.64128    27.351156   -251.29013    1977.5491    110906.81    10.472245   0.15700979 
   74900   -275.46834    32.061033   -243.40731    2318.0836    126113.72    10.472245   0.16808014 
   75000   -275.36539     32.10007   -243.26532    2320.9061    124532.21    10.472245   0.22963221 
   75100   -281.23271    28.983767   -252.24894    2095.5904    105849.08    10.472245   0.14832624 
   75200   -276.36323    29.930462   -246.43277    2164.0386    122429.81    10.472245   0.15672039 
   75300   -274.91279      29.5645   -245.34829    2137.5788    124490.06    10.472245   0.17164211 
   75400    -278.6583    27.359772   -251.29853     1978.172    113039.18    10.472245   0.17811509 
   75500    -275.7297     29.42648   -246.30321    2127.5996    122326.65    10.472245   0.23073503 
   75600   -272.15819    28.900205   -243.25799    2089.5488    134627.94    10.472245   0.21070029 
   75700   -278.96524    28.507408   -250.45783    2061.1486    109738.25    10.472245   0.19157438 
   75800   -277.87625    32.485869   -245.39038    2348.8002    120704.42    10.472245   0.16674762 
   75900   -276.72833    32.153284   -244.57505    2324.7535    122654.04    10.472245    0.1820093 
   76000    -275.4781    29.344293   -246.13381    2121.6573    122548.71    10.472245   0.19607345 
   76100   -280.05049    30.092857   -249.95764    2175.7801    110787.55    10.472245   0.17821257 
   76200    -277.2509    35.362209   -241.88869    2556.7659    121742.06    10.472245   0.22608444 
   76300   -276.19523    32.697121   -243.49811    2364.0742    124275.52    10.472245   0.19197715 
   76400    -278.0961    30.476481   -247.61962     2203.517    115887.87    10.472245   0.19072121 
   76500   -275.88284    30.402312   -245.48053    2198.1544    121334.57    10.472245   0.19412941 
   76600   -269.88376     29.06455   -240.81921    2101.4312    140031.83    10.472245   0.22329737 
   76700   -278.83002      30.6179   -248.21212    2213.7419     113356.3    10.472245   0.17864929 
   76800   -278.68124    32.951189   -245.73005    2382.4439    117454.79    10.472245   0.15424961 
   76900   -272.58116    33.886967   -238.69419    2450.1027    135147.63    10.472245   0.27635812 
   77000   -274.81647    32.803786   -242.01268    2371.7863    129218.62    10.472245   0.17803487 
   77100   -277.69286    30.444854     -247.248    2201.2303    118881.66    10.472245   0.16650826 
   77200   -278.21991     32.33007   -245.88984    2337.5356    115618.39    10.472245   0.18202097 
[...]
  481400    -271.5471    23.371333   -248.17577     1689.799    133991.49    10.472245   0.22328719 
  481500   -279.70239    31.745511   -247.95688    2295.2707    113706.95    10.472245   0.14596807 
  481600   -271.60583    28.768295   -242.83753    2080.0114    133389.96    10.472245   0.23344082 
  481700   -273.15659    33.399064   -239.75753    2414.8262    132617.54    10.472245   0.19649747 
  481800   -275.83981    26.682456   -249.15735    1929.2006    123211.72    10.472245    0.1651405 
  481900   -274.80868    30.427941   -244.38074    2200.0074    126540.42    10.472245   0.15907665 
  482000   -276.12963    34.066771   -242.06286    2463.1029    120937.76    10.472245   0.19444768 
  482100   -280.96605    30.334196   -250.63185    2193.2295    105362.37    10.472245   0.14667183 
  482200   -274.57529    30.950848   -243.62444    2237.8148    129419.81    10.472245   0.21289144 
  482300   -277.40822    34.636548   -242.77167    2504.2991     117910.9    10.472245   0.19678353 
  482400    -277.0384    26.697312   -250.34109    1930.2747    117221.22    10.472245   0.18683413 
  482500   -276.08926    31.780926   -244.30834    2297.8313    122260.04    10.472245   0.23480388 
  482600   -276.79027    33.436403   -243.35387    2417.5259    122214.79    10.472245   0.21197867 
  482700    -276.0916    30.835212   -245.25639     2229.454    124609.64    10.472245   0.21225744 
  482800   -278.00016    32.551652   -245.44851    2353.5564    120307.41    10.472245   0.19527384 
  482900   -275.02351    29.204083   -245.81942    2111.5198    124940.12    10.472245   0.18442909 
  483000   -277.78396    25.542737   -252.24122    1846.7964    113929.26    10.472245   0.15888664 
  483100   -275.37525    30.936887   -244.43837    2236.8053    124248.65    10.472245   0.16329863 
  483200   -276.35215     30.98654   -245.36561    2240.3954    122824.63    10.472245   0.15254558 
  483300   -282.10754    30.177772   -251.92976    2181.9196    103186.76    10.472245   0.13177882 
  483400   -272.78185    31.117447   -241.66441    2249.8602    131341.54    10.472245   0.19962485 
  483500   -274.48438    30.810487   -243.67389    2227.6663    125918.02    10.472245   0.21045712 
  483600    -278.0592    29.612268   -248.44693    2141.0325    115717.85    10.472245   0.22105629 
  483700   -275.72441    37.926975   -237.79743    2742.2042    129736.42    10.472245   0.19458352 
  483800    -276.5739    32.413241   -244.16066     2343.549       121894    10.472245   0.20068157 
  483900   -276.38677    28.380759   -248.00601    2051.9916    119642.84    10.472245   0.20640198 
  484000   -267.35542    29.412439   -237.94298    2126.5844    148069.07    10.472245   0.28181133 
  484100   -276.93392    32.313731   -244.62019    2336.3542    120369.07    10.472245   0.20596343 
  484200   -279.17124    32.137673   -247.03357    2323.6249    113787.17    10.472245    0.1674429 
  484300   -271.36982    33.181152   -238.18867    2399.0707    141166.46    10.472245   0.25421151 
  484400    -276.3654    33.376348   -242.98905    2413.1838    121982.49    10.472245   0.17662769 
  484500   -277.08805    30.909693   -246.17836    2234.8392     118541.9    10.472245   0.18397219 
  484600   -276.68266    32.201851   -244.48081    2328.2651     118790.1    10.472245   0.18053405 
  484700   -275.62123    35.246475   -240.37476    2548.3981    126584.41    10.472245   0.20094127 
  484800   -279.80962    31.053215   -248.75641    2245.2161    110658.98    10.472245   0.15546141 
  484900   -276.60395    30.484242    -246.1197    2204.0781    118114.52    10.472245   0.19384063 
  485000   -276.37275    32.257404   -244.11534    2332.2816    123128.52    10.472245   0.21499741 
  485100   -275.98608    30.782331   -245.20375    2225.6306    120013.56    10.472245   0.16730267 
  485200   -280.61677    29.648124   -250.96864    2143.6249    107490.61    10.472245   0.16694228 
  485300   -276.06745    33.826535   -242.24092    2445.7333    123997.28    10.472245   0.20462784 
  485400   -273.07623    28.249663   -244.82656    2042.5131    130674.12    10.472245   0.22396457 
  485500   -278.36641    29.710329   -248.65608    2148.1225    113422.43    10.472245   0.19652856 
  485600   -276.59483    30.910585   -245.68425    2234.9037    121487.69    10.472245   0.18445619 
  485700   -274.58916    31.354031   -243.23513    2266.9658    128430.23    10.472245   0.17531706 
  485800   -276.12837     25.90688   -250.22149    1873.1247    120023.96    10.472245   0.17424243 
  485900    -276.6901    32.758069   -243.93203    2368.4809    121182.35    10.472245   0.17605733 
  486000   -275.98141    35.128834   -240.85257    2539.8924    124301.22    10.472245   0.24240191 
  486100   -278.42945    30.027606   -248.40185    2171.0623    114350.22    10.472245    0.1577585 
  486200   -276.52147    28.217374    -248.3041    2040.1785    118694.78    10.472245   0.19438797 
  486300   -272.54042    28.372629   -244.16779    2051.4039    132256.13    10.472245   0.20742717 
  486400   -273.95645    29.129708   -244.82674    2106.1423    129378.58    10.472245   0.19816716 
  486500   -279.64028    29.437171   -250.20311    2128.3725    111290.89    10.472245     0.155994 
  486600   -281.27913    29.956681   -251.32245    2165.9343    106481.15    10.472245   0.15818713 
  486700   -274.75559    30.240845   -244.51474      2186.48     124787.2    10.472245   0.20285496 
  486800   -270.45841    27.708526   -242.74989    2003.3877    138582.17    10.472245   0.23260497 
  486900   -281.54061     31.02775   -250.51286     2243.375     104271.9    10.472245   0.13636119 
  487000   -276.09104    31.391416   -244.69962    2269.6688    124069.28    10.472245   0.21317174 
  487100   -275.95505    31.727339   -244.22771    2293.9568    124654.75    10.472245   0.19513332 
  487200   -279.25393    28.014142   -251.23979    2025.4845    111864.75    10.472245   0.15445359 
  487300   -279.47424    25.752667   -253.72157    1861.9748    108425.11    10.472245   0.14457344 
  487400   -277.44467     33.26952   -244.17515    2405.4599    120050.64    10.472245    0.2013699 
  487500   -273.05057    30.504186   -242.54639    2205.5201    132379.87    10.472245   0.21442914 
  487600   -280.95167    30.762852   -250.18881    2224.2223    109024.09    10.472245   0.15601881 
  487700   -277.43673    32.157754   -245.27898    2325.0767    120172.09    10.472245   0.17666363 
  487800   -273.31081    28.909523   -244.40129    2090.2224    130854.99    10.472245   0.23731648 
  487900    -277.1259    31.584815   -245.54109     2283.652    119342.44    10.472245   0.20627575 
  488000   -278.53263    28.559513   -249.97311     2064.916    111800.71    10.472245   0.18343146 
  488100   -272.89169    31.474868   -241.41683    2275.7026    132372.49    10.472245   0.23826632 
  488200   -271.18851     27.16031    -244.0282    1963.7505    133288.73    10.472245   0.27266895 
  488300   -275.60672    27.030048   -248.57667    1954.3323     120195.3    10.472245    0.1886682 
  488400   -277.74989    25.845012   -251.90488    1868.6515    114564.02    10.472245   0.17674593 
  488500   -271.98464    28.060388   -243.92425    2028.8281    137103.61    10.472245   0.25246115 
  488600   -275.32194     32.26346   -243.05848    2332.7195    126118.42    10.472245    0.2080474 
  488700   -280.76173    30.263103   -250.49863    2188.0893    106820.85    10.472245   0.15946507 
  488800   -274.66911    30.990613    -243.6785    2240.6899    128540.35    10.472245   0.20997095 
  488900   -276.60148    32.936091   -243.66539    2381.3522    123108.93    10.472245   0.20966148 
  489000   -276.53048    25.028587   -251.50189    1809.6222    118637.55    10.472245   0.17653108 
  489100   -273.93393    30.028077   -243.90585    2171.0964    129278.26    10.472245   0.22440595 
  489200   -271.33845       25.605   -245.73346    1851.2981     133100.3    10.472245   0.25372683 
  489300   -276.62765    28.155615   -248.47203    2035.7133    118800.49    10.472245   0.20141672 
  489400   -273.85047    33.117398   -240.73307    2394.4611    130221.66    10.472245   0.16855984 
  489500   -273.97374    28.024585   -245.94915    2026.2395    127220.02    10.472245   0.17715122 
  489600   -275.87789    29.336835   -246.54106     2121.118    122499.21    10.472245   0.19319811 
  489700   -275.47256    33.251734   -242.22082    2404.1739    125205.06    10.472245   0.20319978 
  489800   -273.50043     35.97327   -237.52716     2600.947    134295.79    10.472245   0.22616608 
  489900   -278.61977    32.984409   -245.63536    2384.8457    115489.14    10.472245   0.18621382 
  490000   -275.95694    31.471598   -244.48534    2275.4662    123069.79    10.472245   0.16773138 
  490100   -269.37586    31.259911   -238.11595    2260.1607    143201.94    10.472245     0.245707 
  490200   -276.67859    28.703391    -247.9752    2075.3186    122145.95    10.472245   0.17865146 
  490300   -276.91008    30.991345   -245.91874    2240.7428     119653.4    10.472245   0.20322711 
  490400   -271.55002    32.693569   -238.85646    2363.8173    137821.41    10.472245   0.20225238 
  490500   -275.75323    31.248382   -244.50485    2259.3272    124426.34    10.472245   0.17390322 
  490600   -276.91627    30.502081   -246.41419    2205.3679    119334.05    10.472245   0.17848533 
  490700   -277.71287    32.370103   -245.34277      2340.43    120805.74    10.472245   0.16441958 
  490800   -272.67743    30.460361   -242.21707    2202.3515    131650.27    10.472245    0.2332883 
  490900   -276.24696    27.271773   -248.97519    1971.8095    120125.67    10.472245   0.23308376 
  491000   -276.13469    32.376156   -243.75853    2340.8677     123837.2    10.472245   0.19082782 
  491100   -274.39224    32.487002   -241.90524    2348.8821    130109.08    10.472245   0.20004536 
  491200   -277.86098    30.745382    -247.1156    2222.9591    117620.24    10.472245   0.20431881 
  491300    -271.2892    30.305918   -240.98328    2191.1849    135878.45    10.472245   0.20748786 
  491400   -272.88953     32.42397   -240.46556    2344.3248    132680.26    10.472245   0.21177937 
  491500   -279.28107    32.610916   -246.67015    2357.8414    113610.25    10.472245   0.17087638 
  491600   -276.52394    30.894939   -245.62901    2233.7724    123206.79    10.472245   0.19098818 
  491700   -270.96173    32.548399   -238.41333    2353.3213    139210.76    10.472245   0.25392969 
  491800    -280.7921    33.780244   -247.01186    2442.3864    111967.74    10.472245    0.1321309 
  491900   -277.61918    32.613705   -245.00548     2358.043     118345.3    10.472245   0.16821194 
  492000   -271.34735     32.94935     -238.398    2382.3109     139122.5    10.472245   0.23026796 
  492100   -278.68022    30.064969   -248.61525    2173.7638    112874.59    10.472245   0.15776239 
  492200   -276.36538    30.220239   -246.14514    2184.9901    120773.47    10.472245   0.17772035 
  492300   -273.86447    33.267825   -240.59665    2405.3373     130458.6    10.472245   0.18331922 
  492400   -275.09216    29.642136   -245.45002     2143.192    125061.79    10.472245   0.18403294 
  492500   -278.00645    31.111877   -246.89457    2249.4575    117284.36    10.472245   0.18237965 
  492600   -273.55769    31.341468   -242.21622    2266.0575    130904.34    10.472245   0.20251834 
  492700   -276.46166    32.680075   -243.78159    2362.8417    123370.62    10.472245   0.17937178 
  492800   -280.47995    31.074962   -249.40499    2246.7885    107247.71    10.472245   0.16905904 
  492900   -274.87649    31.650424   -243.22606    2288.3956    126192.85    10.472245   0.21320706 
  493000   -274.16524    30.507717   -243.65752    2205.7754    126409.16    10.472245   0.20020395 
  493100   -278.59362     32.35739   -246.23623    2339.5109    113740.96    10.472245   0.15300788 
  493200   -275.53142    30.516325    -245.0151    2206.3978    125317.72    10.472245   0.18917984 
  493300   -273.16438     29.30904   -243.85534    2119.1084    132541.91    10.472245     0.221264 
  493400   -276.90439    30.298406   -246.60598    2190.6417    120736.43    10.472245    0.1950311 
  493500   -276.85761    26.470092   -250.38752    1913.8462    116696.85    10.472245   0.18484933 
  493600   -275.21915    33.702697   -241.51645    2436.7795    126899.05    10.472245   0.18401523 
  493700   -277.85939    31.844694    -246.0147    2302.4418    120417.43    10.472245    0.1901045 
  493800   -275.93917    26.198466    -249.7407    1894.2071    119202.82    10.472245   0.21931207 
  493900   -275.13136    29.516001   -245.61536    2134.0722    124007.34    10.472245   0.20102148 
  494000    -273.9793    33.341477   -240.63782    2410.6625    129910.12    10.472245   0.20293437 
  494100   -276.95343    29.177582   -247.77585    2109.6037    119836.25    10.472245   0.19695678 
  494200   -277.08356    30.561061   -246.52249    2209.6323    118389.61    10.472245   0.22388724 
  494300   -271.73041    30.108039   -241.62237    2176.8778    140401.69    10.472245   0.21358185 
  494400   -277.24265    31.052962   -246.18968    2245.1979    116978.79    10.472245    0.1779386 
  494500   -277.07904    31.306512   -245.77252    2263.5301    116639.57    10.472245   0.17016443 
  494600   -274.32098    35.755459   -238.56552    2585.1988    132947.75    10.472245    0.2310288 
  494700   -273.59855    29.699895   -243.89865    2147.3681     127370.4    10.472245   0.21139778 
  494800   -278.00661     31.05023   -246.95638    2245.0003    116298.65    10.472245   0.16114541 
  494900   -274.05144    30.322268   -243.72917    2192.3671    128995.29    10.472245   0.19264954 
  495000    -273.0386    31.192919   -241.84568    2255.3171    130515.44    10.472245   0.21911796 
  495100   -278.78432    30.411184   -248.37314    2198.7959     115074.6    10.472245   0.15047503 
  495200   -279.48259    34.627724   -244.85486     2503.661       113981    10.472245   0.15717913 
  495300   -271.19246    35.017869    -236.1746    2531.8694    138283.62    10.472245   0.21884359 
  495400   -275.40817    31.058171   -244.34999    2245.5745    122750.52    10.472245   0.21730257 
  495500   -275.07351    28.198332   -246.87518    2038.8018    125669.17    10.472245   0.18238879 
  495600   -275.93542    34.354014   -241.58141    2483.8712    125120.73    10.472245   0.18073965 
  495700   -270.24839    28.618661   -241.62973    2069.1925     142747.6    10.472245   0.25942471 
  495800   -276.45805    27.439376   -249.01868    1983.9276    119658.69    10.472245   0.19452074 
  495900   -275.11736    32.014959    -243.1024    2314.7524    127309.28    10.472245   0.22214573 
  496000   -274.26079    30.707374   -243.55342    2220.2111    126995.09    10.472245     0.188581 
  496100   -276.30969    25.936218   -250.37347    1875.2459    118678.67    10.472245   0.18107551 
  496200   -275.82853     32.84532   -242.98321    2374.7893    125143.82    10.472245   0.15290506 
  496300   -278.40422    32.625598   -245.77862    2358.9029    114878.06    10.472245   0.15773311 
  496400    -281.8296    28.731042   -253.09856    2077.3179     104406.9    10.472245   0.14660823 
  496500   -277.98667    32.224434   -245.76224    2329.8978    116182.73    10.472245   0.19250789 
  496600   -274.39882    32.830621    -241.5682    2373.7265    130181.98    10.472245   0.20704024 
  496700   -278.76349    28.325825   -250.43766    2048.0198    112495.75    10.472245    0.1737847 
  496800   -276.24225    29.664842   -246.57741    2144.8337    120126.36    10.472245   0.17758907 
  496900   -274.28408    31.163009   -243.12107    2253.1545    129389.74    10.472245   0.20806449 
  497000   -281.19945    31.340315   -249.85914    2265.9741    106604.92    10.472245   0.14139437 
  497100   -281.26166    32.121873   -249.13979    2322.4825    106667.42    10.472245   0.17274395 
  497200   -276.61758    33.087932   -243.52965    2392.3307    120098.87    10.472245   0.20970486 
  497300   -277.18673    36.585327    -240.6014       2645.2    122263.67    10.472245   0.19300266 
  497400   -271.82849    30.912315   -240.91618    2235.0287    136588.92    10.472245   0.20625333 
  497500   -278.05256    30.623392   -247.42917    2214.1389    117780.56    10.472245   0.15634654 
  497600   -277.22459    35.657488   -241.56711    2578.1153    119311.41    10.472245   0.15661798 
  497700   -276.20983    33.466795   -242.74304    2419.7233    124125.28    10.472245   0.16727339 
  497800    -277.0257    29.317433   -247.70826    2119.7153    119050.63    10.472245   0.19067897 
  497900     -272.959    30.719247   -242.23975    2221.0695    133010.31    10.472245    0.2119448 
  498000   -279.32393    29.323806   -250.00013     2120.176    112744.71    10.472245    0.1505578 
  498100   -277.78682     30.93503   -246.85179    2236.6711    118532.59    10.472245   0.16725148 
  498200   -275.01782    31.899401   -243.11842    2306.3973     129685.2    10.472245   0.18005401 
  498300   -274.77953    29.717224   -245.06231    2148.6211    123889.04    10.472245    0.1801057 
  498400   -282.12732     28.78705   -253.34027    2081.3674    102107.01    10.472245    0.1176272 
  498500   -278.69063    31.229526    -247.4611    2257.9638    114621.94    10.472245   0.16541644 
  498600    -277.9262    32.596188   -245.33001    2356.7765    118480.09    10.472245   0.17477613 
  498700   -277.49985    30.184445   -247.31541    2182.4021    117371.61    10.472245   0.19309946 
  498800   -272.77925    28.694507   -244.08474    2074.6763     131178.4    10.472245   0.24464717 
  498900    -271.6562    31.606828   -240.04937    2285.2436    134904.77    10.472245   0.22544959 
  499000   -281.14301    31.842254   -249.30076    2302.2654       105655    10.472245   0.14502368 
  499100   -273.82817    30.057238   -243.77093    2173.2048    130892.82    10.472245   0.20328949 
  499200   -274.92859    32.413293   -242.51529    2343.5528     126487.7    10.472245   0.27593075 
  499300   -280.73269    30.134905   -250.59778    2178.8203    108141.77    10.472245   0.15980504 
  499400   -275.34431    30.040469   -245.30384    2171.9923    123367.36    10.472245   0.14172562 
  499500   -276.55915    33.475094   -243.08406    2420.3233    123150.62    10.472245   0.21801316 
  499600   -277.73368    28.178017   -249.55566    2037.3329    114778.73    10.472245   0.16830851 
  499700   -276.49888    30.570227   -245.92865     2210.295     120906.8    10.472245   0.15192942 
  499800   -280.15429    36.441493    -243.7128    2634.8005    112774.71    10.472245   0.15378054 
  499900   -279.51304     34.78812   -244.72492     2515.258    113791.13    10.472245   0.14751866 
  500000   -280.20904    27.349101   -252.85994    1977.4005    108571.12    10.472245   0.15087355 
Loop time of 160.192 on 1 procs for 500000 steps with 108 atoms

Performance: 1348.383 ns/day, 0.018 hours/ns, 3121.256 timesteps/s
100.0% CPU use with 1 MPI tasks x no OpenMP threads

MPI task timing breakdown:
Section |  min time  |  avg time  |  max time  |%varavg| %total
---------------------------------------------------------------
Pair    | 94.405     | 94.405     | 94.405     |   0.0 | 58.93
Neigh   | 6.7652     | 6.7652     | 6.7652     |   0.0 |  4.22
Comm    | 2.5773     | 2.5773     | 2.5773     |   0.0 |  1.61
Output  | 0.093341   | 0.093341   | 0.093341   |   0.0 |  0.06
Modify  | 55.929     | 55.929     | 55.929     |   0.0 | 34.91
Other   |            | 0.4226     |            |       |  0.26

Nlocal:    108 ave 108 max 108 min
Histogram: 1 0 0 0 0 0 0 0 0 0
Nghost:    994 ave 994 max 994 min
Histogram: 1 0 0 0 0 0 0 0 0 0
Neighs:    5558 ave 5558 max 5558 min
Histogram: 1 0 0 0 0 0 0 0 0 0

Total # of neighbors = 5558
Ave neighs/atom = 51.463
Neighbor list builds = 29125
Dangerous builds = 17
    
Total wall time: 0:02:40
