LAMMPS (3 Mar 2020)
Reading data file ...
  orthogonal box = (0 0 0) to (17.469 17.469 17.469)
  1 by 1 by 1 MPI processor grid
  reading atoms ...
  217 atoms
  read_data CPU = 0.00101812 secs
Reading potential file library.meam with DATE: 2012-06-29
Reading potential file LiSi.meam with DATE: 2020-11-07
1 atoms in group Li
216 atoms in group Si
Neighbor list info ...
  update every 1 steps, delay 10 steps, check yes
  max neighbors/atom: 2000, page size: 100000
  master list distance cutoff = 6
  ghost atom cutoff = 6
  binsize = 3, bins = 6 6 6
  2 neighbor lists, perpetual/occasional/extra = 2 0 0
  (1) pair meam/c, perpetual
      attributes: full, newton on
      pair build: full/bin/atomonly
      stencil: full/bin/3d
      bin: standard
  (2) pair meam/c, perpetual, half/full from (1)
      attributes: half, newton on
      pair build: halffull/newton
      stencil: none
      bin: none
Setting up Verlet run ...
  Unit style    : metal
  Current step  : 0
  Time step     : 0.003
Per MPI rank memory allocation (min/avg/max) = 8.895 | 8.895 | 8.895 Mbytes
Step Temp E_pair E_mol TotEng Press Volume 
       0         1500   -951.04357            0   -909.16328   -115839.99    5330.9442 
    3200    1537.9798   -949.52174            0   -906.58105    11316.568    4554.9305 
Loop time of 2.28975 on 1 procs for 3200 steps with 217 atoms

Performance: 362.241 ns/day, 0.066 hours/ns, 1397.533 timesteps/s
100.0% CPU use with 1 MPI tasks x no OpenMP threads

MPI task timing breakdown:
Section |  min time  |  avg time  |  max time  |%varavg| %total
---------------------------------------------------------------
Pair    | 2.2265     | 2.2265     | 2.2265     |   0.0 | 97.24
Neigh   | 0.015978   | 0.015978   | 0.015978   |   0.0 |  0.70
Comm    | 0.013886   | 0.013886   | 0.013886   |   0.0 |  0.61
Output  | 2.4499e-05 | 2.4499e-05 | 2.4499e-05 |   0.0 |  0.00
Modify  | 0.02873    | 0.02873    | 0.02873    |   0.0 |  1.25
Other   |            | 0.004608   |            |       |  0.20

Nlocal:    217 ave 217 max 217 min
Histogram: 1 0 0 0 0 0 0 0 0 0
Nghost:    957 ave 957 max 957 min
Histogram: 1 0 0 0 0 0 0 0 0 0
Neighs:    4164 ave 4164 max 4164 min
Histogram: 1 0 0 0 0 0 0 0 0 0
FullNghs:  8328 ave 8328 max 8328 min
Histogram: 1 0 0 0 0 0 0 0 0 0

Total # of neighbors = 8328
Ave neighs/atom = 38.3779
Neighbor list builds = 27
Dangerous builds = 0
Setting up Verlet run ...
  Unit style    : metal
  Current step  : 3200
  Time step     : 0.003
Per MPI rank memory allocation (min/avg/max) = 9.665 | 9.665 | 9.665 Mbytes
Step PotEng KinEng TotEng Temp Press Density c_msdli[4] c_msdsi[4] 
    3200   -949.52174    42.940689   -906.58105    1537.9798    11316.568    2.2141519            0 3.4638207e-32 
    3300   -950.17131    36.057938   -914.11338    1291.4646   -1874.6344    2.1851833  0.033230414   0.11690572 
    3400   -951.86903    39.038812   -912.83022    1398.2287   -12714.721    2.1610888  0.084979236   0.10220962 
    3500   -951.98244    43.700268   -908.28217    1565.1851   -129.01028     2.190868   0.24493246   0.10253733 
    3600   -948.46334    40.324103   -908.13924    1444.2631      15224.9    2.2206272   0.36070785   0.12346133 
    3700   -954.80465    38.395782   -916.40887    1375.1977    2949.2174    2.2067274    0.1696387  0.083428756 
    3800   -950.36287    40.989366    -909.3735    1468.0905   -12236.111    2.1578664   0.11784533   0.11311695 
    3900   -950.79788    42.577404   -908.22048    1524.9682   -3829.7237    2.1792579    0.2807283   0.11913989 
    4000   -952.56884    42.782032   -909.78681    1532.2973    10046.675     2.217843   0.26172039   0.10598479 
    4100   -952.97833    36.663083   -916.31524    1313.1387    6729.1692    2.2162188  0.053242719  0.097900727 
    4200    -947.7541    40.280577   -907.47353    1442.7042   -8564.6513    2.1612353  0.057324902   0.11121244 
    4300   -949.85046    41.620088   -908.23037    1490.6806   -4459.7546    2.1767122   0.17671831  0.090184963 
    4400   -949.33844    39.620167   -909.71828    1419.0507    8441.6636    2.2115036   0.34493378   0.11387871 
    4500   -955.09019    39.533703   -915.55648    1415.9539    6542.6621    2.2142204   0.16102677   0.10600138 
    4600   -950.21265    40.604491   -909.60816    1454.3056   -4432.2787    2.1737855  0.063601335  0.095935747 
    4700   -948.00471    39.950075   -908.05463    1430.8668   -5358.5499    2.1725188   0.13315133     0.128667 
    4800   -951.30454    42.160152   -909.14438    1510.0238    3885.5959    2.1990855  0.058989674   0.11651041 
    4900   -949.67083    37.898209   -911.77262    1357.3764    8471.3297    2.2078551   0.22201458   0.11183207 
    5000   -955.80531    36.833721   -918.97159    1319.2503    -3914.759    2.1923402   0.13377997   0.09590506 
    5100   -952.60049    38.085544   -914.51495    1364.0861   -6061.2872    2.1781327  0.048731159     0.104917 
    5200   -952.73061    42.019145   -910.71146    1504.9734    5449.0974    2.2050822 0.00026642105   0.11026332 
    5300   -949.27041     41.10931    -908.1611    1472.3864    9326.8575    2.2082966  0.031267542   0.10149324 
    5400   -951.13059    42.245244   -908.88534    1513.0715   -3663.6283    2.1756816   0.10800821   0.12141422 
    5500   -954.02388    36.597573    -917.4263    1310.7923    -5705.392     2.182775   0.13597396   0.09114341 
    5600   -951.77219     40.62068   -911.15151    1454.8855     449.3882    2.1909974  0.071834546   0.10333396 
    5700    -949.6878    41.984189   -907.70361    1503.7214    7677.3153    2.2038467   0.18758797    0.1098198 
    5800   -950.56998    39.699761   -910.87022    1421.9015    1922.6909    2.1948071   0.22689504   0.12450096 
    5900   -956.53125    39.810185   -916.72106    1425.8565   -6943.6152    2.1848797   0.13627037   0.10697114 
    6000    -952.1454    43.024532   -909.12086    1540.9827   -5294.7543    2.1767678   0.15904448   0.11418434 
    6100    -949.5515    41.318908    -908.2326    1479.8934    5675.1212    2.2008027   0.12348117   0.10333715 
    6200   -954.85949    40.801705   -914.05779    1461.3691    4346.7022    2.2125121   0.08423187   0.10464061 
    6300   -952.59507    38.860429   -913.73464    1391.8396   -3583.5686    2.1841794    0.1225594   0.12614883 
    6400   -949.51558    41.379292   -908.13629    1482.0562   -7998.0005    2.1669725   0.11016889   0.11916993 
    6500   -949.98767    40.728243   -909.25942     1458.738    1529.3329    2.1923003   0.22034664   0.13024791 
    6600   -953.52135    40.760387   -912.76096    1459.8892    7647.0258    2.2151407   0.13862717  0.099270488 
    6700   -955.66628    36.245549   -919.42074    1298.1841    678.23586    2.2050372   0.21274785   0.10806396 
    6800   -951.14383    40.807046   -910.33678    1461.5604   -10424.084    2.1623658  0.041803385   0.13105216 
    6900   -950.76712    41.087323    -909.6798    1471.5989    1261.7962      2.18809  0.036902451   0.12173113 
    7000   -952.67021    44.723559   -907.94665    1601.8357    9422.5617    2.2118451  0.043769856   0.11893709 
    7100   -951.73315    39.976802   -911.75635    1431.8241    582.16866    2.1931442  0.045279321  0.095693402 
    7200   -955.52727    39.207475   -916.31979    1404.2696   -6252.1278    2.1791899  0.075185683   0.11221658 
    7300   -952.39567     42.43406   -909.96161    1519.8342   -3881.5351    2.1821015   0.17916095   0.12789252 
    7400   -951.31117      43.0654   -908.24577    1542.4465     4530.836    2.1976868   0.23056521   0.12091998 
    7500   -953.94588    40.520395   -913.42549    1451.2936    1095.9047    2.1991314   0.24379715   0.12383495 
    7600   -951.43919    36.191954   -915.24723    1296.2645   -221.80305    2.1913858    0.1159541   0.10948118 
    7700   -948.34424    39.633532   -908.71071    1419.5294    380.97101    2.1798205  0.022857405   0.11550543 
    7800   -951.91412    43.088803   -908.82532    1543.2846    70.708761    2.1848856  0.082846412    0.1166211 
    7900   -953.69125    38.568393   -915.12286      1381.38    1660.5302    2.1986755   0.22919872   0.10514218 
    8000   -953.00639    39.486889    -913.5195    1414.2772    239.11018     2.195971  0.084460211   0.10496245 
    8100   -952.31256    43.805257    -908.5073    1568.9455    -1020.736    2.1873579  0.033324065   0.10761821 
    8200   -950.50822    41.168593   -909.33963    1474.5097    -1657.394    2.1820888   0.15741188   0.12738426 
    8300   -955.93307    41.445461   -914.48761    1484.4261   -2896.5578    2.1895764  0.054173786    0.1102535 
    8400   -957.55338    42.252632   -915.30075     1513.336    411.65377    2.2013957   0.19865486   0.10814766 
    8500   -949.02443    39.966903   -909.05753    1431.4695    2598.2412    2.1918111   0.13752277   0.11684755 
    8600   -951.34651     42.43785   -908.90866    1519.9699   -1574.3592    2.1795013  0.045920381   0.10926273 
    8700   -953.27778    41.920386   -911.35739    1501.4362   -5135.5897    2.1784536  0.093924289   0.11958601 
    8800   -955.72718    38.485729   -917.24145    1378.4193    4616.1697    2.2095458   0.16190692   0.10491692 
    8900   -951.33488    41.911246   -909.42363    1501.1088    5015.3709    2.2004137  0.097265621   0.10252019 
    9000   -949.64116    40.980092   -908.66107    1467.7583   -3305.4084    2.1749769  0.022180655   0.10138064 
    9100   -951.96403    42.726547   -909.23748      1530.31   -9644.4025      2.16412   0.15460563   0.11757249 
    9200   -955.74812     38.24924   -917.49888    1369.9491    9164.9743    2.2186982   0.26265662   0.11550377 
    9300   -954.38203    44.696836   -909.68519    1600.8786     9979.908     2.215833   0.34026319   0.11042802 
    9400   -951.31519    42.842118   -908.47308    1534.4493   -8149.0703    2.1665338   0.11104468   0.11068238 
    9500   -950.00651     40.45436   -909.55215    1448.9285   -14945.422    2.1509422   0.15646387   0.11832824 
    9600   -956.81384    39.543108   -917.27073    1416.2907    3140.0818     2.209592  0.022431948    0.1051897 
    9700   -950.62481    41.636562   -908.98825    1491.2707    11660.208     2.214291  0.045083273   0.10689087 
    9800   -951.10256    42.490672   -908.61189    1521.8618    330.38832    2.1875541  0.079342997   0.12088431 
    9900   -952.59984    41.822801   -910.77704     1497.941   -7236.9489    2.1717414   0.16781738   0.10089837 
   10000   -958.56451    40.569552   -917.99496    1453.0542    -2313.511    2.1976882  0.035514222  0.090361039 
   10100   -948.12176    38.024913   -910.09685    1361.9145    4803.3367    2.1976377   0.26581385     0.121596 
   10200   -953.11822    44.195936   -908.92228    1582.9381   -899.02915    2.1947336   0.23369796   0.11760701 
   10300   -953.21667    43.556697   -909.65998    1560.0429   -2892.2723    2.1822081  0.036781429   0.12661954 
   10400   -954.27393    38.484996   -915.78893     1378.393   -4727.0816    2.1870406   0.11234873    0.1220081 
   10500   -954.34475    39.671615   -914.67314    1420.8934    1417.0093    2.1968605  0.053226858  0.096235549 
   10600   -950.47708    41.356746   -909.12034    1481.2486    7170.2797    2.2021017    0.1037667   0.11310424 
   10700   -947.72965     38.90281   -908.82684    1393.3576     1189.956    2.1881449   0.15887727   0.11631575 
   10800   -952.66429    41.451902   -911.21238    1484.6568   -8467.2017    2.1728147  0.053181247   0.11323898 
   10900   -955.36991    38.657221   -916.71269    1384.5615    654.88542     2.198493   0.13905697    0.1061235 
   11000    -953.4221    43.996685   -909.42541    1575.8017    9297.3341    2.2177589   0.23587391   0.11226889 
   11100   -952.19384    43.838517   -908.35532    1570.1367     816.9094     2.191468   0.19457666   0.11641631 
   11200   -948.73129    38.678179   -910.05311    1385.3121   -15703.923    2.1427761   0.14376175   0.13952152 
   11300   -955.90564    38.367191   -917.53844    1374.1737   -5476.0987    2.1875452   0.16274237   0.11435717 
   11400   -951.75773    42.414276   -909.34345    1519.1256    14483.645    2.2247689   0.14796929   0.10237951 
   11500   -949.78073    41.470574   -908.31015    1485.3256    7325.2963    2.2028262    0.1832807   0.11155782 
   11600   -952.60785    41.851918   -910.75593    1498.9839   -8982.3709    2.1662405   0.04203601   0.11509677 
   11700    -953.8354    35.836989   -917.99841     1283.551   -3608.6862    2.1869156   0.21636953   0.11164112 
   11800   -951.77655    42.017043   -909.75951    1504.8981     1246.144    2.1946465   0.29425469   0.11793926 
   11900   -950.62606    42.385924   -908.24014    1518.1101    5894.7216    2.1989653   0.15099634   0.10532352 
   12000   -949.89622    39.447901   -910.44832    1412.8808   -1414.0967    2.1855621    0.2575043   0.12013297 
   12100   -957.82527    39.676689   -918.14858    1421.0751   -6343.8157    2.1874698  0.073120576   0.11088038 
   12200    -952.2743    41.978299     -910.296    1503.5104   -2568.9922    2.1814766    0.3621582   0.11632124 
   12300   -954.79768    46.500997   -908.29668    1665.4971    3062.8812    2.2009178  0.042086599   0.10912872 
   12400   -953.49393    42.734327   -910.75961    1530.5886    2613.6694    2.1979465   0.10126155   0.10880773 
   12500   -954.79685    36.486935   -918.30991    1306.8297   -4546.2062    2.1896887  0.010164425   0.10767591 
   12600   -951.08273    40.486656   -910.59608    1450.0852   -7839.2828     2.170663  0.091911372   0.12307786 
   12700   -949.79277    41.155207   -908.63757    1474.0303    5643.8627    2.2033583   0.28361062   0.12263893 
   12800   -954.03058     45.27618    -908.7544    1621.6286    9234.3309    2.2156926  0.088266976   0.11178637 
   12900   -952.89373    38.683828    -914.2099    1385.5144   -8528.1839     2.175154   0.15812109   0.11180978 
   13000    -955.4045    39.914115   -915.49039    1429.5789   -16356.264    2.1606561   0.13761058   0.12379767 
   13100   -951.81712    41.843477   -909.97364    1498.6816    5050.3151    2.2059804   0.25045519   0.13569303 
   13200   -951.65618    43.795804   -907.86038    1568.6069    10303.437     2.216052  0.041478414   0.11601422 
   13300   -953.54881    41.979536   -911.56927    1503.5547   -4165.6578    2.1862463   0.14172696   0.12009223 
   13400   -955.30657    38.414329   -916.89224     1375.862   -4953.1622    2.1880648  0.023008424   0.11231577 
   13500   -950.50548    41.400219   -909.10526    1482.8057   -613.75978    2.1869036  0.011350587   0.11626193 
   13600   -945.49181    36.967915    -908.5239    1324.0566     6090.957     2.195453   0.14073877   0.13291443 
   13700   -951.94841    39.135441   -912.81297    1401.6896    3424.9873    2.1982629  0.067858949   0.10888587 
   13800   -955.12034    38.656254   -916.46409    1384.5268   -980.16909    2.1945528   0.12515453   0.10337382 
   13900   -951.63083    42.475657   -909.15517     1521.324   -3625.7482    2.1804102  0.027448658   0.12174342 
   14000   -950.78477    41.954244   -908.83052    1502.6489   -646.25995    2.1866988   0.42195509   0.12259079 
   14100   -953.35834    42.229963   -911.12838    1512.5241    2400.7261    2.1965719   0.41475796   0.12752296 
   14200   -952.93542    35.100702   -917.83472    1257.1799    4382.7638    2.2094485 0.0086013389   0.12801101 
   14300   -947.76129    37.766227   -909.99507    1352.6493   -1676.4063    2.1795304  0.082918983   0.12108068 
   14400   -951.12897     42.20553   -908.92344     1511.649   -5361.0044    2.1758398  0.039300176   0.12247885 
   14500   -951.08512    41.598077   -909.48705    1489.8923    3273.2639      2.19673  0.081540667     0.120765 
   14600   -958.38904     40.97706   -917.41198    1467.6497    9753.0795    2.2270727   0.24015312   0.10745187 
   14700   -950.92798    41.320013   -909.60797     1479.933   -5004.8607    2.1746974   0.14343963   0.10910617 
   14800   -950.37279    41.557328   -908.81546    1488.4328    -10381.73    2.1599981  0.061064064   0.12049331 
   14900   -950.53743    41.528993   -909.00844    1487.4179    3425.1562    2.1936897   0.10652758   0.11500357 
   15000   -954.79727    37.668258   -917.12901    1349.1404    13902.071    2.2349315    0.2704083   0.11228484 
   15100   -952.44372    42.591752   -909.85197    1525.4821   -2348.3089    2.1846015   0.12035005   0.12585962 
   15200   -950.35407    41.636907   -908.71717     1491.283   -8395.5538    2.1660914  0.084507476   0.12162408 
   15300   -950.76826    41.609651   -909.15861    1490.3068    223.20855      2.18867 0.0088608563   0.11217316 
   15400   -955.16701    38.237454   -916.92955    1369.5269    7317.8002    2.2193208  0.024048631   0.10724694 
   15500   -955.67246    44.863582   -910.80888    1606.8508   -1061.6929    2.1952819  0.034642913   0.11656936 
   15600   -954.04849    45.297363   -908.75113    1622.3873   -4407.0325    2.1821615   0.13517032   0.11806273 
   15700   -952.47941    43.349893   -909.12952     1552.636   -2809.2251    2.1849567   0.22246784   0.11864123 
   15800   -953.12925    37.438488   -915.69077    1340.9109    1710.0598    2.1973316  0.049612924   0.10439428 
   15900   -952.06295    38.038415   -914.02454    1362.3981    2418.7023    2.1994686   0.30593737   0.12407686 
   16000   -950.26686    41.301982   -908.96488    1479.2872    3247.7016    2.1902896   0.47438882   0.11968529 
   16100   -951.64789     43.24363   -908.40426      1548.83   -2451.6668    2.1802367   0.16028532   0.11921471 
   16200   -956.04136     41.77115   -914.27021    1496.0911   -5641.4799    2.1845521  0.038926632   0.11256022 
   16300   -956.22056    42.075668   -914.14489    1506.9978    2107.5329    2.1979569  0.063697714  0.091945961 
   16400   -952.63502     44.32571   -908.30931    1587.5862    4979.4972    2.1989407    0.0593807   0.10823299 
   16500   -953.32373    44.442043   -908.88168    1591.7528   -2395.5469    2.1833501  0.093372879   0.10738027 
   16600    -954.0988     38.23289   -915.86591    1369.3635   -10685.597    2.1653952  0.096622281  0.097772489 
   16700   -950.79204    39.595284   -911.19675    1418.1595   -4478.1214    2.1742466  0.068490825   0.11208691 
   16800   -952.50124    45.925783   -906.57545     1644.895    14598.241    2.2216226   0.31331593   0.10196606 
   16900    -952.4535    41.941126   -910.51237     1502.179    5871.7885    2.2032015   0.27643555   0.11526863 
   17000   -954.72151     40.45375   -914.26776    1448.9066   -12027.565    2.1633551  0.069218785   0.12240333 
   17100   -958.87141    38.294285   -920.57712    1371.5624    -7873.303    2.1849792   0.20410624   0.10028442 
   17200   -954.52359    42.826674   -911.69692    1533.8961    2220.4092    2.1988099   0.02764652   0.10823146 
   17300   -952.97854    43.087989   -909.89055    1543.2555    6353.4467     2.205404  0.010366783   0.11111368 
   17400   -952.03337    43.248432   -908.78494     1549.002   -4021.9062    2.1769972   0.35139173   0.12160963 
   17500   -949.29711    43.806559   -905.49055    1568.9921    -8027.529    2.1605896   0.15263688   0.11822102 
   17600   -951.58756    49.167229   -902.42033    1760.9918   -2685.4962    2.1782596 0.0098102605   0.11121568 
   17700   -952.25095    40.235386   -912.01556    1441.0856    14413.308    2.2217378   0.55877403   0.10204412 
   17800    -952.1105    41.607755   -910.50275    1490.2389   -123.96192    2.1884788   0.11142274    0.1064706 
   17900    -950.2505    40.841382   -909.40912    1462.7902     -8870.44    2.1622761   0.10035699   0.12397289 
   18000   -947.91827    41.868769    -906.0495    1499.5875   -389.12139    2.1779899  0.016361339   0.13070879 
   18100    -953.2496    41.636697    -911.6129    1491.2755    4906.3387    2.2033292  0.040589465   0.11367583 
   18200   -951.23816    37.957487   -913.28067    1359.4995    2433.8703    2.1960301  0.053343149   0.11272757 
   18300   -948.68931    39.267887   -909.42143    1406.4333   -1141.2761    2.1799961  0.020850545   0.12559941 
   18400   -952.17986     45.00735   -907.17251    1612.0001   -2435.8287    2.1818142  0.027277636   0.12732766 
   18500   -954.17301    38.740398   -915.43261    1387.5406    1287.8289    2.1992104   0.13971464    0.1145747 
   18600   -954.24663    42.427195   -911.81943    1519.5882   -2655.4111    2.1881293   0.16333316   0.11483504 
   18700   -951.53566    43.804435   -907.73122     1568.916   -1069.2573    2.1834882   0.10129359   0.10663431 
   18800   -952.73182    42.020361   -910.71145    1505.0169    659.29607    2.1897849   0.20531635   0.12021816 
   18900   -955.59829    39.686015   -915.91227    1421.4091    3915.2265    2.2065363   0.13930449   0.11805804 
   19000    -951.0183    43.571702    -907.4466    1560.5803   -3011.6816    2.1796173  0.068994053   0.12148189 
   19100   -947.97198     38.79068    -909.1813    1389.3415   -417.69176    2.1786961  0.066860745   0.12157244 
   19200   -955.61961    41.893731   -913.72588    1500.4815    168.72612    2.1991427   0.15522404   0.12062167 
   19300   -950.58699     40.82184   -909.76515    1462.0903    9452.7562    2.2097409   0.14428156   0.11948153 
   19400   -948.00437    41.567894   -906.43647    1488.8112   -489.15101    2.1839348    0.2682156   0.11933817 
   19500   -950.95994    40.805853   -910.15409    1461.5177   -16667.635    2.1477711 0.0087399955   0.12576873 
   19600   -951.56269    42.869426   -908.69327    1535.4274   -4216.8873    2.1767321   0.10709331   0.10573354 
   19700   -943.62401    43.466362   -900.15765    1556.8074    14353.584    2.2117444  0.036890978   0.12011172 
   19800   -948.84272    41.146552   -907.69616    1473.7203    7665.1716    2.2059447   0.21690612   0.12877881 
   19900   -953.72293    42.936266   -910.78666    1537.8213   -11685.128    2.1666348   0.42930157   0.10803273 
   20000   -947.45927     41.95425   -905.50502    1502.6491   -6488.5376    2.1633693  0.020804258   0.11665169 
   20100   -946.85907    44.169725   -902.68935    1581.9994    4283.2799    2.1888869   0.14670543   0.12239966 
   20200    -953.0621    43.451751   -909.61035    1556.2841    5401.6009    2.2050407  0.046383318    0.1190942 
   20300   -952.24145    43.093109   -909.14834    1543.4389   -1771.5989    2.1825392  0.090115763   0.11693522 
   20400   -944.43724    40.853819   -903.58342    1463.2356   -2879.9955    2.1636448   0.15174567   0.14324551 
   20500   -951.14691    48.003533   -903.14337    1719.3125   -3406.8025    2.1755663   0.23869599   0.11942976 
   20600   -952.56696    43.138861    -909.4281    1545.0776    7177.3493    2.2024255  0.051774908  0.098526957 
   20700   -950.62679    41.701851   -908.92494    1493.6091    4207.9231    2.1967997   0.10044559   0.11663321 
   20800   -949.26918    40.193319   -909.07586    1439.5789   -4365.7346     2.170816   0.30111207   0.10904951 
   20900   -956.68677    38.593943   -918.09283    1382.2951   -5703.3512     2.184384   0.11509269  0.097231652 
   21000   -954.95264    42.546356   -912.40628    1523.8562   -759.39665    2.1923698  0.042935739   0.11172005 
   21100    -952.7103    44.444131   -908.26617    1591.8276    9456.9625    2.2106924   0.35379775  0.098007701 
   21200   -951.03697    41.944205   -909.09276    1502.2893     1572.067    2.1870147  0.023383266   0.11371802 
   21300   -953.64053    37.105694   -916.53484    1328.9914    -15403.09    2.1564681   0.24540024   0.12173101 
   21400   -952.12045    39.926286   -912.19417    1430.0148   -6663.7481    2.1729165   0.26773578   0.10216307 
   21500   -953.58185     46.45511   -907.12674    1663.8536    13752.825    2.2252718   0.13350571    0.1114501 
   21600   -952.59437    42.757232   -909.83714     1531.409    7672.9741    2.2093369    0.4411121   0.12244083 
   21700   -954.16405    40.012755   -914.15129    1433.1118   -10148.392    2.1731403   0.17425397   0.11077898 
   21800   -953.52252    36.326271   -917.19625    1301.0753   -3787.9917    2.1895777   0.10828027   0.11274116 
   21900    -951.4914    41.345219   -910.14618    1480.8358    5578.8946    2.1996944   0.30972756   0.11460442 
   22000    -950.9857    42.350149   -908.63555    1516.8287    3018.8762    2.1964907  0.069213192   0.10637026 
   22100   -951.44503    42.844562   -908.60046    1534.5368   -4153.4516    2.1794469   0.23047857   0.11627869 
   22200   -956.61525    39.049731   -917.56552    1398.6197   -2075.2593    2.1953099   0.19588329   0.10892669 
   22300   -952.69579    40.460793   -912.23499    1449.1589   -1109.7332    2.1917805  0.013162041   0.11266486 
   22400   -950.30814    41.893669   -908.41447    1500.4793    3182.1253    2.1952945   0.19797295   0.12010962 
   22500   -947.81906    39.608062     -908.211    1418.6171     3141.453    2.1917929  0.020453448   0.12484168 
   22600   -956.22237    39.208553   -917.01382    1404.3082   -1832.7833    2.1985111   0.16700807   0.11156264 
   22700   -951.28768    40.476885   -910.81079    1449.7352   -7166.6601    2.1760616  0.038231229     0.127049 
   22800   -949.04961    40.967305    -908.0823    1467.3003    594.90413    2.1895629  0.055788591   0.12567019 
   22900   -952.45802    41.601666   -910.85635    1490.0208    8188.7714    2.2117209   0.23280633   0.10754629 
   23000   -956.64441    40.099876   -916.54453    1436.2322    1369.6472    2.2059635   0.26639837   0.11674173 
   23100   -952.94346     44.98399   -907.95947    1611.1634    -13679.66    2.1574721  0.029581946   0.12896432 
   23200   -951.19237    42.081666   -909.11071    1507.2127   -6751.0072    2.1693831  0.050925364   0.12727522 
   23300   -953.20498    41.118363   -912.08661    1472.7107    11987.607    2.2192703  0.075489042   0.11910114 
   23400   -955.49494    40.909826   -914.58511    1465.2416    9723.8946    2.2193168  0.029237217   0.10501961 
   23500   -945.10626    39.866957    -905.2393    1427.8898   -8669.0175    2.1538921  0.065808935   0.12445252 
   23600   -950.53164    41.861854   -908.66978    1499.3398   -8199.2066    2.1672174  0.044048325   0.12394598 
   23700   -953.69286    43.748965    -909.9439    1566.9293    4676.1329    2.2036068   0.18189013   0.11012346 
   23800   -955.81389    42.819327   -912.99457     1533.633    6309.3718    2.2118223   0.10744804   0.10034034 
   23900   -958.74503    38.864433    -919.8806     1391.983   -443.40626     2.204563   0.21502582   0.09799394 
   24000   -951.51207    39.654518   -911.85756     1420.281   -6475.4638    2.1727417  0.015723959    0.1168998 
   24100   -951.94271      42.4517   -909.49102    1520.4659   -1901.7466    2.1865763  0.069002646   0.11950628 
   24200   -948.61964    41.937156   -906.68249    1502.0368    7954.3837    2.2036079    0.3002909   0.12124062 
   24300   -953.12516    43.777498   -909.34766    1567.9512   -139.85335    2.1934826  0.029956372   0.11501773 
   24400   -953.22917    39.054625   -914.17455     1398.795   -5109.0846    2.1812379   0.43472789   0.11502312 
   24500   -950.43821    40.745529   -909.69269    1459.3571     205.7078    2.1883606  0.084100984   0.12263994 
   24600   -949.53981    42.595816   -906.94399    1525.6277    4905.3271    2.1973834   0.16205402   0.10929259 
   24700   -951.51509    37.329726   -914.18537    1337.0154     1792.437    2.1976755  0.036150585   0.10671488 
   24800   -952.77162    39.999758   -912.77186    1432.6463   -7780.2025    2.1746751  0.070456992   0.11657605 
   24900   -954.95565    46.859553    -908.0961    1678.3392   -2835.7795    2.1840864  0.093456729  0.099408242 
   25000   -955.33229    46.349234   -908.98306    1660.0615    7414.5413    2.2121989  0.052635569   0.11508771 
   25100   -954.27329     38.24258   -916.03071    1369.7105    6589.9333    2.2134122  0.055506936   0.12359821 
   25200   -950.09356    42.988569   -907.10499    1539.6947   -16560.076    2.1437161   0.23522354    0.1227649 
   25300   -947.90251    39.559133   -908.34338    1416.8647   -6434.9269    2.1655157  0.058145397   0.11085768 
   25400   -953.19665    43.895505   -909.30115    1572.1778    13240.456    2.2240568 0.0095360507  0.099456171 
   25500   -954.19614    38.641747    -915.5544    1384.0072    9674.7192    2.2199576   0.13347233   0.10766158 
   25600   -952.54365     36.70616   -915.83749    1314.6816   -5224.4131    2.1847979  0.093331137   0.11345027 
   25700   -950.20572    40.190366   -910.01536    1439.4731   -7206.0585    2.1725823   0.16506005   0.11707584 
   25800   -952.66517    43.475091   -909.19008    1557.1201    484.02527    2.1950656  0.029266139   0.10539897 
   25900   -950.95284    42.789213   -908.16362    1532.5545    4232.4999    2.2031897   0.13867893    0.1198619 
   26000   -945.59512    47.075637   -898.51949    1686.0786   -753.67904    2.1744708   0.16722774   0.12380715 
   26100   -947.47764    41.149505   -906.32813     1473.826    333.18984    2.1832491   0.14294676   0.12429602 
   26200   -951.01748    41.696069   -909.32141     1493.402    -3753.052    2.1834167  0.053251187   0.12182662 
   26300   -948.50572    38.948795   -909.55692    1395.0046    3023.1956    2.1940393   0.26273984   0.10880934 
   26400   -949.08178    44.838071   -904.24371    1605.9371    5861.9348    2.1984271  0.063135265   0.10474579 
   26500   -950.31838    47.221061   -903.09732    1691.2872   -2339.3248    2.1798054 0.0024113331   0.11433034 
   26600   -951.05373    41.990416   -909.06332    1503.9444   -11036.672    2.1619139   0.10772105   0.11670481 
   26700   -951.92613    41.929218   -909.99691    1501.7525   -2921.7101    2.1859334  0.069671551   0.10883437 
   26800    -951.4617    45.505965   -905.95574    1629.8586    14865.717    2.2260031   0.09522697   0.12285045 
   26900   -947.89774    45.513511   -902.38423    1630.1289    3989.6882    2.1915814   0.20800866   0.12401434 
   27000   -949.33017    39.464364   -909.86581    1413.4704   -11838.052    2.1586775  0.006466516   0.12383665 
   27100    -949.2818    39.570042   -909.71176    1417.2554   -3999.2252    2.1764018   0.27958306   0.10298288 
   27200   -952.87176    47.868523   -905.00324    1714.4769    4244.9676    2.2021527   0.24644663   0.10696792 
   27300   -944.84429    42.072239   -902.77205     1506.875    4548.1848    2.1865352   0.28745228   0.12447902 
   27400   -948.35364    38.030981   -910.32266    1362.1318   -1451.1891    2.1828754   0.14960072   0.11607985 
   27500   -951.94574     42.63131   -909.31443    1526.8989   -1947.9979    2.1845321   0.15425015   0.11132989 
   27600   -950.95069    45.290065   -905.66062    1622.1259     1704.441    2.1901131   0.12963327   0.11586701 
   27700   -946.65294    47.256983   -899.39596    1692.5738   -1309.2242    2.1762259   0.14291663   0.12222926 
   27800   -952.06224    43.193902   -908.86833    1547.0489   -302.59897    2.1904478    0.1090966   0.12037159 
   27900   -950.45628    41.105835   -909.35045    1472.2619   -536.78321    2.1891812  0.079992363   0.12171097 
   28000   -950.47862    41.740828    -908.7378    1495.0051    -1827.971    2.1867348   0.20892741   0.12493091 
   28100   -947.73983    45.311579   -902.42825    1622.8964    962.90339    2.1819574   0.18006169   0.12187498 
   28200   -946.17988    43.952775   -902.22711     1574.229    4442.0126    2.1828421   0.24713603  0.097830093 
   28300   -947.15871    39.168026   -907.99068    1402.8566   -2798.8391    2.1740907  0.068582555    0.1160076 
   28400   -949.99077    39.721823   -910.26894    1422.6916   -1981.9075    2.1832332  0.059524613   0.11596671 
   28500   -953.88256    44.432955   -909.44961    1591.4273    7444.2516    2.2084352   0.13644512    0.1076605 
   28600    -947.1332    45.642756   -901.49044     1634.758    1655.1441    2.1831688   0.14853468   0.12889282 
   28700   -949.57105    41.046758   -908.52429     1470.146   -6534.9829    2.1690986   0.11852098   0.12642988 
   28800   -954.73063    44.201268   -910.52936    1583.1291   -5974.9491    2.1775471  0.038711412   0.10845035 
   28900   -948.29686    42.935289   -905.36157    1537.7864    9437.9182    2.2017327  0.074531361   0.12339336 
   29000   -946.12066    42.369692   -903.75097    1517.5287    5208.2463    2.1928509   0.11748808   0.12029637 
   29100   -951.79147    41.353916   -910.43756    1481.1473   -8521.0161    2.1705975   0.11163678   0.11017107 
   29200   -951.05077       42.004   -909.04677     1504.431   -6863.1107    2.1739706  0.077175279   0.11912109 
   29300   -948.85157    46.047591   -902.80397    1649.2577    5144.1498    2.1967549   0.12447576   0.10702826 
   29400   -955.16266    47.193776   -907.96888    1690.3099    4233.7411    2.2051039   0.24380798   0.10968529 
   29500   -949.05286    38.239272   -910.81358    1369.5921   -5667.5165    2.1727702   0.34054134   0.11554543 
   29600    -950.3051    41.401363   -908.90374    1482.8467   -6103.3142    2.1708722   0.18918929   0.12443737 
   29700   -946.84512    42.613632   -904.23149    1526.2658    5811.7704    2.1951535   0.14459637    0.1315049 
   29800   -951.03302    45.886975   -905.14604     1643.505    1311.6462    2.1913591  0.064922011   0.12883149 
   29900   -952.92124      41.5764   -911.34484    1489.1159   -2220.2026    2.1853113  0.091751446   0.11513665 
   30000   -950.01775    40.551653    -909.4661    1452.4131   -210.77794    2.1864769  0.057729077   0.12443287 
   30100   -951.41159    44.652914   -906.75868    1599.3055    1027.9253     2.188167   0.21696764   0.11455007 
   30200   -945.47635    42.382425   -903.09392    1517.9848     3033.832    2.1831221   0.15156868   0.11466899 
   30300   -952.50119    40.228431   -912.27276    1440.8365   -443.16555    2.1941348   0.19222522   0.11124921 
   30400   -950.98169    39.810564   -911.17112      1425.87   -3611.9734    2.1791276   0.10178265   0.11323804 
   30500   -949.35084    40.373311   -908.97753    1446.0256   -1947.2921    2.1835886   0.23435766   0.12575915 
   30600   -948.87143    42.136327    -906.7351    1509.1704     4767.814    2.1967721   0.27834403   0.12078389 
   30700   -953.34082    37.905266   -915.43556    1357.6292    4150.0416    2.2078771  0.069000126   0.11704782 
   30800    -949.0526    37.765797   -911.28681    1352.6339    -4940.579    2.1769857    0.3072049   0.12516107 
   30900   -947.14424    39.109841    -908.0344    1400.7727     -4797.98    2.1730418  0.059021944   0.12980912 
   31000   -953.79072    44.324073   -909.46665    1587.5275    4072.7059      2.20339   0.25118645   0.11889514 
   31100   -956.03483    40.693304   -915.34153    1457.4866    9484.8005    2.2247082   0.29089612   0.10854752 
   31200   -950.35566    43.001992   -907.35367    1540.1754   -7369.7064    2.1682516  0.057122158   0.11559874 
   31300   -951.03324    42.135601   -908.89764    1509.1444   -15123.184    2.1474818   0.14813974   0.11667134 
   31400   -949.22404    37.774136    -911.4499    1352.9326     6424.494    2.2020511   0.40376704   0.11014815 
   31500   -955.10771     39.08528   -916.02243     1399.893    17244.099    2.2436142   0.18822631   0.11598375 
   31600   -951.78608    43.650739   -908.13534    1563.4112   -2331.8559     2.184094   0.10225884   0.11677726 
   31700   -946.91342     38.66862    -908.2448    1384.9697   -4667.8795    2.1684479  0.015760729   0.11546073 
   31800   -949.82842    40.684791   -909.14363    1457.1817   -512.22463    2.1838759   0.11373845   0.13128565 
   31900   -954.62404       45.392   -909.23204    1625.7768    2386.7283    2.2011216   0.19491211   0.10899452 
   32000   -950.60166    49.582956   -901.01871    1775.8817    657.95671    2.1870781  0.060966126   0.12981414 
   32100   -947.64066    43.026998   -904.61367     1541.071   -1456.1307    2.1767698  0.060791708   0.12870818 
   32200    -951.3664    41.915194   -909.45121    1501.2502   -4857.5475    2.1737464  0.068585838   0.11247664 
   32300   -951.31428    41.875207   -909.43907    1499.8181    2302.1178    2.1909502  0.063242357   0.11969958 
   32400   -946.88812    43.329707   -903.55842     1551.913     11789.12     2.202834   0.20731521   0.11195959 
   32500   -949.03829    45.528023   -903.51027    1630.6487    -746.3559    2.1761358  0.094380844    0.1372112 
   32600   -948.61116    38.812892   -909.79827     1390.137   -8046.3003    2.1625095  0.073863486   0.12098531 
   32700   -951.03574    41.680843    -909.3549    1492.8566   -2696.6983    2.1836364   0.41363013   0.12263655 
   32800    -945.4659    44.539983   -900.92591    1595.2607    9720.0302    2.1977689    0.3935291   0.13088638 
   32900    -953.0919    45.901827   -907.19007     1644.037    1473.0159    2.1962451    6.2879847   0.13719701 
   33000   -951.03118    40.551466   -910.47972    1452.4065   -8260.8291    2.1683421    5.1284778   0.13218738 
   33100   -946.98617    42.554527   -904.43164    1524.1488   -2544.3628    2.1733957    6.5768597   0.15000407 
   33200   -946.32845    40.193674   -906.13478    1439.5916    5160.5338    2.1959256    6.1005548   0.14148202 
   33300   -950.30027    39.590075   -910.71019    1417.9729    3731.2464    2.2033941    5.6222956   0.12879674 
   33400    -949.5794    43.056796    -906.5226    1542.1383   -1290.8218    2.1877083    6.2287672   0.13692808 
   33500   -954.19847    48.180094   -906.01838    1725.6363   -6169.3334    2.1791295    4.8596882    0.1225166 
   33600   -954.04759    40.731172   -913.31642    1458.8429    617.40818    2.2021786   0.85810698   0.13557638 
   33700   -951.12327    43.647854   -907.47541    1563.3078    849.34222    2.1925206  0.012915018   0.11450983 
   33800   -950.14319    41.846707   -908.29648    1498.7973   -2069.4758    2.1859154  0.067932914   0.12334713 
   33900   -954.75551    39.352267   -915.40324    1409.4555   -2575.5958    2.1968424  0.073059487    0.1107449 
   34000   -952.27424    44.546614   -907.72763    1595.4982   -2644.5071    2.1887734   0.10487893    0.1121096 
   34100   -950.51629     42.41287   -908.10342    1519.0752    2804.5139    2.1984094  0.059666683    0.1107378 
   34200     -955.981    41.449306    -914.5317    1484.5638   -1248.1986    2.2035923   0.05492873   0.11945109 
   34300   -948.49005    41.643935   -906.84611    1491.5347   -3558.8316    2.1766101  0.071219318   0.12829488 
   34400   -951.69917    44.333897   -907.36528    1587.8794   -181.77224    2.1899983  0.033002986   0.10707578 
   34500   -953.76171    41.886015    -911.8757    1500.2052    4656.1644     2.210935  0.012250335   0.11307586 
   34600   -945.66619    37.842208   -907.82398    1355.3707     4716.709    2.1941885  0.077185382    0.1253899 
   34700    -949.7315    44.259142   -905.47236     1585.202   -8253.7895    2.1651056  0.031517541   0.11981695 
   34800   -954.45215    43.047501   -911.40464    1541.8054   -6390.3854     2.179309    0.2088269   0.11308149 
   34900   -954.42894    45.783906   -908.64503    1639.8135    5764.3251    2.2101298  0.019264715   0.11840977 
   35000   -949.97604    47.582929   -902.39311     1704.248    2376.6433    2.1912223  0.014267415  0.097342244 
   35100    -951.7782    41.181375   -910.59682    1474.9675   -4037.6125    2.1790306  0.014078194   0.10667348 
   35200   -952.56856      42.8201   -909.74846    1533.6607   -8298.6306    2.1706362  0.089102545   0.10479286 
   35300     -945.902    42.815089   -903.08691    1533.4812    3213.9218    2.1868413   0.20057935    0.1221313 
   35400   -953.90739    42.897254   -911.01014    1536.4241    9514.1641    2.2186891    0.1382078   0.10094204 
   35500   -952.96656    42.243446   -910.72312     1513.007   -1810.3584    2.1843543  0.049340762   0.10159614 
   35600     -949.767    43.110069   -906.65693    1544.0463   -11328.572    2.1575728    0.0982391   0.13029866 
   35700   -951.22055    40.688761   -910.53179    1457.3238    725.14199    2.1920316   0.16214864   0.10869107 
   35800   -953.96993    41.131104   -912.83883     1473.167    12043.696    2.2271586   0.18683838   0.11274628 
   35900   -952.91468    45.834901   -907.07978    1641.6399   -623.97266    2.1921159   0.20337473   0.11798632 
   36000   -949.93341     40.70081    -909.2326    1457.7554   -9727.7989    2.1641297   0.21591129   0.13167626 
   36100   -955.48571    40.483887   -915.00182     1449.986   -2294.2661    2.1926587   0.18458187   0.09623634 
   36200   -951.90867    45.173288   -906.73538    1617.9433    1886.9108    2.1951847  0.019545983   0.10344339 
   36300   -951.71223    43.448106   -908.26412    1556.1536   0.69613835    2.1935856   0.15771775   0.11445455 
   36400   -952.08045    38.393869   -913.68658    1375.1292    250.42799    2.1929843  0.092483293   0.11132158 
   36500   -950.14811    43.693363   -906.45474    1564.9378   -1518.7514    2.1823111  0.061210381   0.11241303 
   36600   -949.17303     42.55632   -906.61671    1524.2131    4309.8429    2.1936513  0.092492595   0.10592409 
   36700    -952.9808    41.489479   -911.49132    1486.0027    1151.5403    2.1983319  0.044047687      0.11829 
   36800   -951.56565    44.159383   -907.40627     1581.629   -2570.7935    2.1826496   0.10571225   0.11154585 
   36900   -949.47601    44.771442   -904.70457    1603.5507   -5310.5112    2.1732659    0.1010343   0.13725876 
   37000   -950.83159    39.545188    -911.2864    1416.3652    1674.5397    2.1938164  0.025182328   0.11325665 
   37100   -953.75725    45.426085   -908.33116    1626.9976    1376.1272    2.1989763   0.23220319   0.10188284 
   37200    -948.6161    45.326272   -903.28983    1623.4227    970.15109    2.1816996  0.075146855   0.11178061 
   37300   -953.09625    41.243494   -911.85275    1477.1924   -3007.5455    2.1836225  0.085049089   0.10180296 
   37400   -951.93505    42.466873   -909.46818    1521.0094    -4324.868    2.1810122  0.071010643   0.12554167 
   37500   -944.94633    40.961985   -903.98434    1467.1097    6082.3988    2.1909161   0.22500362   0.11399071 
   37600   -950.37766    37.996188   -912.38147    1360.8857    9747.9875    2.2134036  0.053284968   0.10086772 
   37700   -953.79271    43.167025   -910.62568    1546.0863   -8177.1785    2.1734587  0.059547206   0.11523247 
   37800    -947.6154      40.8309    -906.7845    1462.4148   -9735.2299    2.1587762   0.37542444   0.12780565 
   37900   -952.33674    39.436961   -912.89978    1412.4889     4350.602    2.2033036  0.073160968   0.11528709 
   38000   -953.17614    41.180183   -911.99596    1474.9248    12283.588    2.2236286  0.077648423   0.11286167 
   38100   -949.10812    42.377876   -906.73024    1517.8218   -513.39283    2.1849941  0.047460419   0.11466393 
   38200   -951.83489    41.015291    -910.8196     1469.019   -12331.189    2.1630452   0.16514516   0.11437633 
   38300   -952.65241    39.403296   -913.24912    1411.2832   -512.29653    2.1907079    0.1540637    0.1137193 
   38400   -949.76626    44.739823   -905.02643    1602.4182     4715.769    2.1976795   0.33341544   0.12619266 
   38500   -953.09415     43.71698   -909.37717    1565.7837    523.70378    2.1951491   0.11947245   0.11941992 
   38600   -952.36163    39.267402   -913.09423    1406.4159   -3843.4479    2.1824722  0.014384685   0.10985757 
   38700   -947.79766    43.445527   -904.35213    1556.0612   -3994.1865    2.1722384   0.16014511    0.1242501 
   38800   -951.65523    43.459544   -908.19568    1556.5632    4722.8295    2.1979153   0.14301166   0.11577936 
   38900   -952.92212    41.266889   -911.65523    1478.0303    3672.4346    2.2004847   0.03653997   0.11574876 
   39000   -948.07857    43.674737   -904.40383    1564.2707   -1813.6719    2.1766965   0.04040548   0.12609663 
   39100     -949.012    41.432792    -907.5792    1483.9724   -2054.9387    2.1799756  0.051290117   0.11946495 
   39200   -955.36551    43.896536   -911.46897    1572.2147   -844.64537    2.1936624 0.0092459053   0.11602289 
   39300   -948.92057    43.235584   -905.68499    1548.5418    3582.3544    2.1871794   0.10270692   0.11645191 
   39400   -948.42888    41.910404   -906.51848    1501.0787   -1775.2254    2.1787447   0.13371288   0.13437557 
   39500   -953.80825    41.221882   -912.58637    1476.4183   -3630.2673    2.1863369   0.13086695   0.11660398 
   39600   -950.23256    42.839821   -907.39274     1534.367    1951.3312    2.1899766  0.017045366  0.097049245 
   39700   -949.09651    42.652115    -906.4444    1527.6441    3724.3742    2.1900928   0.04889495   0.12259522 
   39800   -951.02044    36.666781   -914.35366    1313.2711    2549.9721    2.1987818 0.0017702936   0.11076838 
   39900   -949.61515    40.855801   -908.75934    1463.3066   -2945.4148    2.1754322   0.03301717   0.11579516 
   40000   -948.08238    40.955771   -907.12661    1466.8872   -1924.7026     2.175245  0.011912283   0.10747039 
   40100    -954.4451    39.367081   -915.07802    1409.9861    7763.5836    2.2145056  0.047584955  0.095096645 
   40200   -951.25444    42.441729   -908.81271    1520.1088    5065.9983    2.1987356   0.12293599   0.12183112 
   40300   -949.96648    42.197205   -907.76928    1511.3509   -4573.4139    2.1707997   0.11654775   0.12436281 
   40400   -951.72625    38.775312   -912.95093    1388.7911   -8446.2868    2.1712914  0.093795937   0.11986822 
   40500   -949.45191    38.236135   -911.21578    1369.4797     6979.392    2.2024059   0.24537402   0.11196198 
   40600   -951.21301    45.888779   -905.32424    1643.5696    6658.0559    2.2048074   0.12060354    0.1088319 
   40700   -949.55664    38.764771   -910.79187    1388.4135   -3103.8741    2.1826315  0.023667068   0.11414934 
   40800   -952.20626    41.533625   -910.67264    1487.5838   -8567.9996    2.1662841   0.18558524   0.12196276 
   40900   -947.62324    44.433209   -903.19003    1591.4364   -548.85096    2.1748537 0.0033899716   0.12777233 
   41000    -952.7732    43.450419   -909.32278    1556.2364    9297.4211    2.2125272   0.27074262  0.098927186 
   41100   -952.90023    42.111627    -910.7886    1508.2858    2947.0238    2.1962241  0.092327209   0.11095917 
   41200   -947.29227     43.69991   -903.59236    1565.1723   -7277.7809    2.1555984  0.094632971   0.13453948 
   41300   -952.93921     42.51812   -910.42109    1522.8449   -5343.6013    2.1806445  0.080235707   0.12237843 
   41400   -952.33828     41.51569   -910.82259    1486.9414    3327.8079    2.2021367   0.11901303   0.12954919 
   41500   -949.23512    43.360328   -905.87479    1553.0097    3612.9647    2.1942073   0.12185616   0.11571905 
   41600   -950.09623    41.123834    -908.9724    1472.9066   -3997.1265      2.17789  0.014029777   0.11657487 
   41700   -955.36484    42.106967   -913.25788    1508.1189   -5476.7027    2.1833114  0.034269379   0.10451829 
   41800   -951.32525    44.098236   -907.22701    1579.4389    4133.6361    2.1926735   0.14477823   0.11106385 
   41900   -956.06682    47.001411   -909.06541    1683.4201    1147.0324    2.1993098  0.063041186   0.10360399 
   42000   -953.38373    38.191634   -915.19209    1367.8858    1169.8405    2.1983968  0.084812143   0.10641573 
   42100   -950.78174    43.230243    -907.5515    1548.3505   -3132.9177    2.1774878   0.19182302   0.13313594 
   42200    -951.4553     43.21594   -908.23936    1547.8383    73.120715    2.1883744   0.43765197   0.13077673 
   42300     -952.487    37.912356   -914.57464    1357.8831    3883.3548    2.2045938   0.22816166   0.11766864 
   42400   -951.52679    44.925512   -906.60127    1609.0689   -3299.2593    2.1843736  0.019032482   0.12737467 
   42500    -952.1714    44.420988   -907.75041    1590.9987   -1688.1458    2.1854824  0.070016292   0.11581273 
   42600   -953.36664    40.504221   -912.86242    1450.7143    1287.6286    2.1944546   0.02572945   0.11567099 
   42700   -948.88568    42.432601   -906.45308    1519.7819     1921.976    2.1893711  0.092612607   0.12617645 
   42800   -951.91534    45.424079   -906.49126    1626.9258    484.10511    2.1887187  0.045673638   0.11685406 
   42900   -952.69269    40.635304   -912.05738    1455.4092   -1546.1096    2.1886811 0.0080039891   0.11253137 
   43000   -949.42396    42.795192   -906.62877    1532.7686   -3695.4416    2.1779275   0.17472005     0.108105 
   43100   -946.98479     41.88166   -905.10313    1500.0492    2287.3979     2.188356   0.21925407   0.13856493 
   43200   -951.50317    39.981719   -911.52145    1432.0002    3755.4787    2.2019486   0.26306948   0.12234859 
   43300   -951.39063    43.891545   -907.49909     1572.036   -1851.9302    2.1819444  0.087999728   0.11405823 
   43400   -951.37014    46.720409   -904.64973    1673.3556   -8077.5853    2.1664343   0.25788368   0.11419355 
   43500   -950.69761    38.140869   -912.55674    1366.0676    2362.8476    2.1975835   0.27301075   0.10634819 
   43600   -950.00749     42.36067   -907.64682    1517.2056     9214.527    2.2115976  0.043807625   0.12156942 
   43700   -948.42553     42.12035   -906.30518    1508.5982    867.00085    2.1854296   0.10356525   0.12167599 
   43800    -955.6648     41.08085   -914.58395    1471.3671    -9230.339    2.1761076  0.045036833   0.12020443 
   43900   -951.48761    41.767365   -909.72024    1495.9555   -3794.3283    2.1798948  0.068514375   0.11714002 
   44000   -946.04483    40.543731    -905.5011    1452.1294      10531.1    2.2047999   0.22511138   0.11182167 
   44100   -955.45775    42.124275   -913.33347    1508.7388    3449.1118    2.2083066   0.20223528   0.10883706 
   44200   -950.06295    39.662913   -910.40004    1420.5817   -6545.1032    2.1705306   0.28690461   0.12683855 
   44300   -947.82187     40.90962   -906.91225    1465.2342    -6001.557    2.1710001   0.29485306   0.13498612 
   44400   -951.79583    40.461428    -911.3344    1449.1816    6076.7871    2.2072848  0.070211069   0.11493544 
   44500    -952.0926    39.916382   -912.17622    1429.6601     9624.215    2.2162803  0.069701715  0.098095211 
   44600   -947.30809    42.345531   -904.96255    1516.6634   -4362.6097    2.1688674   0.17949607   0.12764274 
   44700   -952.10764    41.116144    -910.9915    1472.6312   -9908.0159    2.1674504   0.12977427   0.11615064 
   44800   -951.02426    40.749849   -910.27441    1459.5118    2705.1163    2.1932525  0.032805652   0.10924231 
   44900   -946.29842    43.776187   -902.52224    1567.9043    6629.2697    2.1941747  0.041072892    0.1239758 
   45000   -948.48107    38.484054   -909.99702    1378.3593    3466.7874    2.1950403   0.33923377   0.10772892 
   45100   -949.44578    38.615676   -910.83011    1383.0735   -2394.4738    2.1825207   0.22230172   0.12699134 
   45200   -943.88824     40.83728   -903.05096    1462.6433    42.635727    2.1749968   0.11769471   0.12558255 
   45300   -952.34887    41.761003   -910.58787    1495.7277    1798.7155    2.1967883   0.13020935    0.1130919 
   45400   -950.08214    39.293103   -910.78904    1407.3365    2610.3483    2.1915135  0.038213082    0.1152561 
   45500   -950.07495    45.354341   -904.72061     1624.428   -2671.6134    2.1762968  0.069078279  0.097645168 
   45600   -951.39949    40.064317   -911.33517    1434.9585   -1339.9515    2.1889707   0.15372354   0.11238996 
   45700   -951.93351    40.145149   -911.78836    1437.8537   -31.262346     2.192115    0.2337066   0.11563783 
   45800   -947.37882    41.234007   -906.14481    1476.8526    2523.4013     2.189255   0.24422659    0.1082945 
   45900    -952.4062    41.244635   -911.16156    1477.2333   -1425.8033    2.1945149   0.25203158   0.11259506 
   46000   -954.10038    40.774537   -913.32585     1460.396   -2919.3014    2.1899675  0.069479026   0.11569611 
   46100   -949.66144    42.750195   -906.91125     1531.157   -1143.8205    2.1856148    0.6181614   0.13397537 
   46200   -951.56202    41.556011   -910.00601    1488.3856    3181.4453    2.1961788 0.0052125236   0.11824789 
   46300   -953.29434    39.070731    -914.2236    1399.3719    3947.1064    2.2022158   0.23178326   0.11227158 
   46400   -952.34445    45.981054    -906.3634    1646.8746   -7214.1477    2.1728782  0.074428771  0.098308562 
   46500   -951.82759     42.19508   -909.63251    1511.2748   -2949.2163    2.1817735  0.063773021   0.10476582 
   46600   -950.04494    37.065063   -912.97988    1327.5361    8763.3803    2.2096197  0.094244507   0.11636905 
   46700   -946.97643    42.967832    -904.0086    1538.9519     3526.975     2.190253   0.12437899   0.11137967 
   46800   -951.71793    43.524263   -908.19367    1558.8812   -3235.0264    2.1779968  0.039174431   0.10642825 
   46900   -954.26319    42.137763   -912.12543    1509.2219    -5966.335    2.1789639  0.022571266   0.10141525 
   47000   -949.84615    44.994314   -904.85184    1611.5332    3513.0373    2.1924408  0.035346327   0.11486139 
   47100   -949.85241    43.531256   -906.32115    1559.1317    8407.0234    2.2040373   0.12432617   0.12433407 
   47200   -953.87046    42.275305   -911.59516    1514.1481   -3499.2922    2.1824254   0.10427571   0.12303239 
   47300   -949.28591    42.350939   -906.93497    1516.8571   -8901.9561    2.1620109  0.025942558   0.12178227 
   47400   -947.08572    43.364941   -903.72078    1553.1749    2730.5022    2.1851576  0.058430169   0.10367655 
   47500   -953.31501    42.089557   -911.22545    1507.4953    12543.759    2.2248057  0.072619064  0.097862038 
   47600   -951.01238    42.909455   -908.10293    1536.8611    476.58969    2.1914821   0.20359197   0.11003553 
   47700   -948.39627    42.285659   -906.11061     1514.519   -11444.712    2.1534738   0.17136554   0.11666508 
   47800   -954.06907    39.279863   -914.78921    1406.8623   -3004.9653    2.1906433   0.10141245   0.11063474 
   47900     -952.173    43.449689   -908.72332    1556.2103    8625.1546    2.2115348   0.20858403   0.11048371 
   48000   -951.77839     44.72454   -907.05385    1601.8708    2009.2161    2.1962189  0.095720498   0.11309901 
   48100   -952.42718    37.763585    -914.6636    1352.5547   -2939.0793    2.1857879  0.053151319   0.12275951 
   48200     -954.936    44.843388   -910.09261    1606.1275    -5764.728    2.1814187   0.05773639    0.1238941 
   48300   -950.82143    44.233165   -906.58826    1584.2716    326.64685    2.1882621  0.011750538   0.12594534 
   48400   -953.73516    40.913687   -912.82147    1465.3799    1730.3883    2.2005213  0.095301313    0.1099246 
   48500   -954.36167     43.57539   -910.78628    1560.7124   -1796.7692    2.1909867   0.03253482   0.10880409 
   48600   -949.89861    43.920367   -905.97824    1573.0683   -2159.9268    2.1787821   0.12420761   0.11585546 
   48700   -951.18569    39.456942   -911.72875    1413.2046    97.787258    2.1907536  0.055587225   0.11136943 
   48800   -947.93128    37.698435   -910.23285    1350.2212    3499.2027    2.1958619   0.20637723   0.11513736 
   48900   -947.60377    43.189216   -904.41456    1546.8811    1190.6678    2.1834245   0.18422893   0.11675926 
   49000   -952.01879     40.80863   -911.21016    1461.6171   -2035.1863    2.1868769    0.2961422   0.10998155 
   49100   -949.82345    40.341041   -909.48241    1444.8698   -782.85425    2.1856943   0.22777638   0.11898079 
   49200    -949.0474    45.853244   -903.19416    1642.2969    2733.4206    2.1882416  0.051985794   0.11742605 
   49300   -952.97281    41.897825   -911.07498    1500.6281    4688.1608    2.2063307  0.066192503   0.12132039 
   49400   -948.01008    38.442259   -909.56782    1376.8623   -138.21366     2.184315  0.078490789     0.125192 
   49500   -946.71234    42.594968   -904.11737    1525.5973   -6601.8465     2.164548  0.074877865    0.1235043 
   49600   -954.30238    41.306657   -912.99572    1479.4547    1842.2153    2.2045939  0.016969802   0.11980524 
   49700   -949.88806    40.481337   -909.40673    1449.8947     9732.057    2.2103269   0.14519717   0.10618051 
   49800   -946.01981    40.270351   -905.74946    1442.3379   -131.67965    2.1792654  0.079638043   0.11890884 
   49900   -951.34017    38.674422   -912.66575    1385.1775   -9865.9533    2.1690788   0.12558922   0.11756639 
   50000   -953.41607    41.696435   -911.71963    1493.4151    -2291.943    2.1895254   0.17654273   0.11630527 
   50100   -951.36449    45.829867   -905.53462    1641.4596    9434.0788    2.2114013   0.14763025   0.12094105 
   50200    -955.6063    44.066563   -911.53973    1578.3045    1037.5244    2.2027256  0.077846792   0.11674234 
   50300   -952.65397    38.702827   -913.95114    1386.1949   -8837.9342    2.1743682 0.0085376972   0.10452155 
   50400   -950.06187     43.36656   -906.69531    1553.2329    -7610.375    2.1684107   0.11458817    0.1278755 
   50500   -952.67553    42.908657   -909.76687    1536.8325    4020.9736    2.2042586   0.32480862   0.12823274 
   50600    -952.6352    39.259991   -913.37521    1406.1505    8758.6923    2.2157433  0.053796435   0.11384612 
   50700   -947.96427     43.31648   -904.64779    1551.4392   -2837.9396    2.1722199   0.10933882   0.13040695 
   50800   -947.99416    38.514712   -909.47945    1379.4573    -2754.162    2.1764584  0.030089467   0.10749718 
   50900   -952.16337    40.358957   -911.80441    1445.5115    2508.9957    2.1982466    0.1427017   0.11728952 
   51000   -946.28931     42.98915   -903.30016    1539.7154    4408.0002    2.1892766  0.099315801   0.13142486 
   51100   -949.48432    40.502483   -908.98184    1450.6521       1763.2    2.1938193   0.15464589   0.11510395 
   51200   -950.53856    39.026931   -911.51163    1397.8031    -2667.814    2.1874612  0.017754758    0.1213604 
   51300   -948.39413    44.230533    -904.1636    1584.1773   -2493.7352    2.1772253   0.19207043   0.10484421 
   51400   -953.53314    44.200947    -909.3322    1583.1176    216.05222    2.1923787    0.1158238    0.1216807 
   51500   -953.30435    41.770518   -911.53384    1496.0685    221.93759    2.1946023   0.10969098   0.11855599 
   51600   -948.09967    42.125639   -905.97403    1508.7876    1869.9786    2.1865608   0.33046566   0.12757329 
   51700   -951.08693    42.395719   -908.69121    1518.4609   -1292.3614    2.1861839  0.037500218    0.1169674 
   51800   -954.64279    41.675227   -912.96756    1492.6555   -1072.4438    2.1938142  0.035248608   0.10102158 
   51900   -948.53023    41.350998   -907.17923    1481.0428     3975.249    2.1945734   0.19980694    0.1137203 
   52000   -947.23158    38.806631   -908.42495    1389.9128    3950.5749    2.1942555  0.092857231   0.11037198 
   52100   -954.29426     39.20667   -915.08759    1404.2407   -4671.1438    2.1854293   0.13742072   0.10636725 
   52200   -948.21149    40.018505   -908.19299    1433.3177   -3757.6444    2.1724482   0.09388935  0.099601587 
   52300   -951.04231    43.798397   -907.24391    1568.6997    4620.0373    2.1972514  0.043562724   0.10327708 
   52400   -955.49983    41.108916   -914.39092    1472.3723    8239.5098    2.2165533   0.10627228   0.10227834 
   52500    -945.4324    38.397759   -907.03464    1375.2685   -164.53697    2.1740849   0.08686298   0.12392326 
   52600   -950.25421    42.519816    -907.7344    1522.9056   -6710.3796    2.1677234   0.13388995   0.12384192 
   52700   -952.17548    40.238669   -911.93681    1441.2032    1483.3386    2.1994654   0.10160274   0.11090104 
   52800   -954.13302    42.442602   -911.69042    1520.1401    7569.4591    2.2160111   0.11712437   0.11342987 
   52900   -947.00862    42.172197   -904.83642    1510.4551    -2093.802    2.1731836   0.12221591   0.11257988 
   53000   -951.68652    41.142065   -910.54445    1473.5596   -9355.6726    2.1653216  0.091363157   0.10545805 
   53100   -952.04203    42.211638   -909.83039    1511.8678    67.045033    2.1903212  0.069281585  0.087769047 
   53200   -948.26038    46.789652   -901.47073    1675.8357    8057.1365    2.1980973   0.20441598   0.11115117 
   53300   -951.72014    42.649822   -909.07031     1527.562    3993.8211    2.1955679   0.10345349  0.098564014 
   53400   -950.96021    40.003031   -910.95718    1432.7635   -6549.9149    2.1714628  0.040085123   0.11539566 
   53500   -950.49625    46.662016   -903.83424    1671.2642   -6765.0918    2.1677316   0.48380895   0.12680416 
   53600   -953.55187    44.544841   -909.00703    1595.4347    4108.2676     2.203586   0.22442765   0.10544814 
   53700    -950.6919    39.717836   -910.97406    1422.5488    5224.9354    2.2003079  0.074706001   0.11573482 
   53800   -949.22948    41.867581    -907.3619    1499.5449   -2895.3662     2.176631   0.21166757   0.11614699 
   53900   -949.09318    44.610951   -904.48223    1597.8025   -4644.9046    2.1711424  0.034402641   0.11410995 
   54000   -955.19455     41.79512   -913.39943    1496.9496    4003.3078    2.2068574  0.096215487   0.10644719 
   54100   -951.32479    42.173645   -909.15115     1510.507    2470.6953     2.194503   0.20437045   0.10837198 
   54200    -949.4562    42.602334   -906.85386    1525.8611   -2757.7726    2.1787731   0.17674099   0.10771867 
   54300    -952.9358    37.821182   -915.11462    1354.6176    366.87323    2.1929761   0.19351005   0.10606104 
   54400   -953.39927    42.065991   -911.33328    1506.6512   -1072.3555    2.1913548   0.17047733   0.10660425 
   54500   -951.79328    44.580378    -907.2129    1596.7075     167.3458    2.1908271   0.48942646   0.11830616 
   54600   -952.78038    40.644741   -912.13564    1455.7472   -398.64741    2.1917711    0.3564299   0.11945958 
   54700   -955.63357    41.534366    -914.0992    1487.6104   -3254.3638    2.1906782  0.028309534   0.10573377 
   54800   -951.12429     44.08067   -907.04362    1578.8097   -2399.3249    2.1825372  0.018583737   0.11860775 
   54900   -949.48365    39.660812   -909.82284    1420.5065     2399.561    2.1940492   0.20456872   0.11729777 
   55000   -954.29154    40.105504   -914.18604    1436.4337    1882.8677    2.2029784   0.07058741   0.10614919 
   55100   -946.45297    41.568556   -904.88442    1488.8349   -2237.1947     2.172332   0.19402339   0.10259126 
   55200   -947.34703    39.742912   -907.60412     1423.447    2719.7399    2.1881859  0.092162584   0.11996003 
   55300   -952.91895     42.14145    -910.7775    1509.3539    5390.4272    2.2033981  0.095879739   0.11238713 
   55400   -952.51157    43.369099   -909.14247    1553.3239    558.67267    2.1928163    0.2373738    0.1219875 
   55500   -946.71027    43.245961   -903.46431    1548.9135   -8526.4946    2.1591251  0.082322682   0.13227416 
   55600   -951.58506    40.984861    -910.6002    1467.9291   -5697.2254     2.175769  0.089060753     0.103921 
   55700   -953.16287     44.01713   -909.14574     1576.534    8410.3167    2.2128165   0.11534561   0.11342182 
   55800   -946.55817     45.02519   -901.53298     1612.639    9504.4551     2.201213 0.0021944388   0.12532986 
   55900   -950.83782    42.211896   -908.62592     1511.877   -5571.6953    2.1720115  0.069144293   0.12688483 
   56000   -954.02443    43.022987   -911.00144    1540.9274   -14084.554    2.1605091  0.099159577   0.12398046 
   56100   -950.64669    45.225101   -905.42159    1619.7991     2469.138    2.1901806   0.02996319  0.098161786 
   56200   -951.68937    43.509478   -908.17989    1558.3517    9474.5244    2.2085539  0.050804591  0.092216213 
   56300   -951.92393    39.313522    -912.6104    1408.0678   -757.88888    2.1882732  0.090181381   0.12499674 
   56400   -952.53231    43.889499   -908.64282    1571.9627    -7134.444    2.1734983   0.35398866   0.12140463 
   56500   -952.24706    45.497744   -906.74932    1629.5642   -1692.2959    2.1819257   0.18413172   0.11331007 
   56600   -955.37203    40.042718   -915.32932     1434.185    6010.9106    2.2121125  0.083669755  0.092410562 
   56700   -951.88035    42.750848    -909.1295    1531.1803   -343.70491    2.1866196  0.074987826  0.095938449 
   56800   -947.51936     39.79778   -907.72158    1425.4122   -2696.6859     2.176207   0.12666763   0.12314287 
   56900   -953.43572    39.003109   -914.43261    1396.9499   -174.68756    2.1930561   0.25059823   0.11165911 
   57000   -953.02598    42.217041   -910.80894    1512.0613    3686.7206    2.1984033  0.064996397    0.1148302 
   57100   -949.94489    42.887946   -907.05694    1536.0907    1536.9482    2.1889083   0.11987959   0.11395651 
   57200   -951.55131    39.739655   -911.81165    1423.3303   -4018.8856    2.1789659   0.11565532   0.10793206 
   57300   -956.47372    44.234378   -912.23934     1584.315   -4997.5496    2.1836702   0.15434482   0.11460546 
   57400   -946.44967    41.507325   -904.94235    1486.6418    3633.6026    2.1855311   0.11589222   0.13190359 
   57500     -950.853    41.376652   -909.47634    1481.9616    2603.0271    2.1949243    0.1134813   0.11009781 
   57600   -949.85685    38.047304   -911.80954    1362.7165   -861.18832    2.1845431 0.00070163346   0.10758076 
   57700   -944.61565     41.92869   -902.68696    1501.7336   -6696.2677     2.154682   0.46413348   0.11884568 
   57800   -947.91983    39.218965   -908.70086    1404.6811    7936.0961    2.2021788   0.12624318   0.11942401 
   57900    -950.7229    40.891745   -909.83116     1464.594    12459.856    2.2157494   0.28381026   0.11198075 
   58000   -948.78593      41.7689   -907.01703    1496.0105   -3054.7807    2.1740998   0.10250235   0.12454133 
   58100   -946.01371    42.588316    -903.4254     1525.359   -14066.765    2.1434107   0.25901161   0.13928472 
   58200    -954.3537    42.096339   -912.25736    1507.7382    1022.5552    2.1977519   0.03129107   0.11891061 
   58300   -951.07993    42.952317   -908.12762    1538.3962    11030.026    2.2147923  0.063820682   0.13637279 
   58400   -948.23241    41.692721   -906.53969    1493.2821     709.1943    2.1809749   0.43237627   0.11957125 
   58500    -952.6451    37.518267   -915.12684    1343.7683   -6163.8642    2.1744189   0.13664498    0.1084297 
   58600   -950.84597    39.443464   -911.40251    1412.7218   -3856.7825    2.1812533 0.0062002401   0.10425235 
   58700     -945.249    38.563272   -906.68573    1381.1966    11628.838    2.2015289  0.042448736   0.11651403 
   58800   -953.07362    40.971829   -912.10179    1467.4623     4121.329    2.2028445   0.22513607   0.11281933 
   58900   -953.28578     39.09319   -914.19259    1400.1763   -3875.9706    2.1826118   0.05731412    0.1029667 
   59000   -951.90666    44.128737   -907.77792    1580.5313   -7054.5229    2.1690313   0.16836836   0.11730114 
   59100   -948.59382    39.317633   -909.27619     1408.215    4302.5818    2.1935479   0.06025182   0.11307255 
   59200   -955.60306    40.369227   -915.23383    1445.8793    6283.8417    2.2146369   0.12634084   0.12211496 
   59300   -946.41826    39.988885   -906.42937    1432.2568   -2366.7646    2.1744059   0.10092897    0.1386529 
   59400   -950.83251     42.74598   -908.08653     1531.006    -5801.458    2.1709382  0.065984397   0.11716431 
   59500   -952.42194     41.00804    -911.4139    1468.7593     2431.166    2.1989343  0.030370624   0.11038625 
   59600   -954.07897     41.28773   -912.79124    1478.7768    9975.0308    2.2199888  0.085321005  0.098571949 
   59700   -947.38946    43.383307   -904.00615    1553.8327   -5586.2445    2.1644775  0.067168414   0.12351144 
   59800   -948.46002    39.454649   -909.00538    1413.1225   -16669.401    2.1389752  0.031479058    0.1289135 
   59900   -952.45314    42.316169   -910.13697    1515.6117    2612.7504    2.1943594  0.076290627   0.11038552 
   60000   -952.19664    42.496597   -909.70004     1522.074    18793.325    2.2344373   0.22690994   0.11087984 
   60100   -943.88516    42.300733   -901.58443    1515.0589   -150.52375    2.1691811   0.14123442   0.12619893 
   60200   -946.30567    37.352554   -908.95311     1337.833   -6850.7944    2.1648546  0.036536854   0.13556487 
   60300    -954.2918    44.043836   -910.24796    1577.4905   -2877.3349    2.1906458   0.10289406   0.12898757 
   60400   -950.83164    44.708958   -906.12268    1601.3127    7493.1761    2.2042941 0.0088420391   0.11825724 
   60500   -947.31175    44.302969   -903.00878    1586.7717    -1130.097    2.1792922    0.1425623   0.12477091 
   60600   -951.79315    41.384902   -910.40825    1482.2571   -5504.2541    2.1747681 0.0020957626   0.11768811 
   60700    -951.5977     42.52671   -909.07099    1523.1525    1262.6121    2.1853885   0.10185764   0.11111476 
   60800   -949.28832    46.596822    -902.6915    1668.9292    5325.3705    2.1929864   0.28113072   0.12209788 
   60900   -950.40596    42.168372   -908.23758    1510.3182    966.79949    2.1891459   0.13393102   0.11737942 
   61000   -952.64757    41.718253   -910.92931    1494.1965   -9047.6732     2.166553   0.14704181   0.12040968 
   61100    -950.6659    42.873747   -907.79216    1535.5821   -2382.2915     2.179763   0.22254583   0.11360267 
   61200   -950.02756       44.789   -905.23856    1604.1796    7312.6113    2.2017507   0.10385906   0.12954604 
   61300   -942.56042    47.544478   -895.01594    1702.8708    5574.8314    2.1771235   0.19541274   0.12384232 
   61400   -947.00857    44.175375   -902.83319    1582.2017   -3523.8182     2.167946  0.013611388   0.12097247 
   61500   -949.16042    41.850481   -907.30994    1498.9325   -9469.1244    2.1619548 0.0047942331    0.1122733 
   61600   -955.27826     45.39644   -909.88182    1625.9358     253.8509    2.1949224   0.11811017   0.09780883 
   61700   -952.19236    42.261188   -909.93117    1513.6425    15686.851    2.2263465   0.16474964   0.10823234 
   61800   -944.57008    43.993695   -900.57639    1575.6946   -3246.4138     2.161568    0.1093681   0.12280378 
   61900   -949.44609    41.731917   -907.71418    1494.6859   -16511.888    2.1418395  0.051194458   0.12368658 
   62000   -950.57858     40.54619   -910.03239    1452.2175    1187.5552    2.1861458   0.27741233   0.10955014 
   62100    -950.6148    43.178394    -907.4364    1546.4935    16701.894    2.2244238   0.10791047   0.11875192 
   62200   -946.90146    45.773391   -901.12807    1639.4369   -435.41385    2.1769245  0.092737486   0.12272127 
   62300    -949.5212    39.371241   -910.14996    1410.1351   -5035.8289    2.1724622  0.027048813   0.13870551 
   62400   -950.14498     40.22753   -909.91745    1440.8042   -903.11356    2.1830475  0.054037496   0.11219712 
   62500   -951.42187     44.85119   -906.57068     1606.407    2036.1581    2.1937614    0.1195444   0.10203166 
   62600   -946.93649    46.449131   -900.48736    1663.6394    2302.4399    2.1814009  0.091928328   0.13629277 
   62700   -950.48831    40.353222   -910.13509    1445.3061    583.73943    2.1905845   0.25797911   0.12455566 
   62800   -950.98191    41.112618    -909.8693    1472.5049   -4799.1079    2.1764128   0.36824977   0.12195367 
   62900   -950.92378    42.413735   -908.51005    1519.1062     -2178.64    2.1841417   0.21068735   0.12009953 
   63000   -950.49499      43.4816   -907.01339    1557.3532    4281.9391    2.2005064 0.0065003338   0.11308839 
   63100   -944.12131    46.747325   -897.37399    1674.3196   -1974.3843    2.1678181   0.13852467   0.12188851 
   63200   -949.46243    43.727352   -905.73508    1566.1552   -3562.6808    2.1739141  0.082211291   0.12790189 
   63300   -949.51257    40.629218   -908.88335    1455.1912    1685.6538    2.1897678   0.29189419   0.12184912 
   63400   -947.98756    37.872393   -910.11517    1356.4518    7764.2885    2.2039862   0.12579142    0.1219303 
   63500   -951.22541      47.5397   -903.68571    1702.6997    280.46355    2.1860075   0.13853797   0.12581372 
   63600   -945.50566    41.137451    -904.3682    1473.3943   -5089.6388    2.1654947   0.12154926   0.12476951 
   63700   -948.22093    38.300085   -909.92085    1371.7702   -4706.4332     2.171657   0.19979651   0.13863236 
   63800   -951.65745    42.793729   -908.86372    1532.7162    9387.1836    2.2109148   0.42439753   0.10947663 
   63900   -944.99927    44.674558   -900.32472    1600.0807    12044.193    2.2028802   0.15086842   0.12314546 
   64000   -948.88337    41.783512   -907.09986    1496.5339   -4369.0954    2.1728599   0.10752419   0.12229308 
   64100   -950.45986    39.868431   -910.59143    1427.9426   -11300.613    2.1602933  0.068406084   0.11471381 
   64200   -949.26753    42.422935    -906.8446    1519.4357    2195.9965    2.1940516   0.18896176   0.12714087 
   64300   -942.65252    42.256006   -900.39652    1513.4569    12230.478    2.2042516   0.32844956   0.12952641 
   64400   -948.24135    38.300428   -909.94092    1371.7825    4075.8888    2.1965733   0.22301946   0.12767841 
   64500    -951.6409    41.766996    -909.8739    1495.9423   -8447.0134    2.1673335  0.014522175   0.11204628 
   64600   -948.69235    41.863783   -906.82857    1499.4089   -3017.4371    2.1732951   0.21254596     0.128809 
   64700   -951.61184    44.045877   -907.56596    1577.5636    4719.0257    2.1976871   0.41275643   0.11983172 
   64800   -955.47168    41.456392   -914.01529    1484.8176    4598.3268    2.2117455   0.32820612   0.12203515 
   64900   -953.12764    43.180795   -909.94685    1546.5795   -2054.6926    2.1847918 0.0046675427    0.1127499 
   65000   -947.78787    39.935155   -907.85272    1430.3324   -3888.8051    2.1724396   0.10338795    0.1099234 
   65100   -954.77303      41.8908   -912.88223    1500.3766   -2391.1812    2.1921995  0.095311667   0.11173202 
   65200   -956.91328    42.834443   -914.07884    1534.1744    3781.4225    2.2077284  0.034316496   0.10372025 
   65300   -950.20509    42.074725   -908.13037    1506.9641    1998.3172    2.1928131  0.041538874     0.121743 
   65400   -952.43195    43.681309   -908.75064    1564.5061    -5500.345    2.1762248   0.27001111   0.12089105 
   65500   -952.96045    36.398727   -916.56172    1303.6704   -1932.2744    2.1920043   0.16838929   0.11287674 
   65600   -952.51862    42.447538   -910.07108    1520.3169    1601.7967    2.1961136   0.22680481   0.11566214 
   65700   -950.82175    43.356723   -907.46503    1552.8806    8456.9306    2.2074328  0.072886403   0.12233153 
   65800   -953.68423    41.811764   -911.87247    1497.5457   -2951.8046    2.1861959   0.20229832   0.12060674 
   65900   -953.65425    36.934106   -916.72014    1322.8457   -14019.451    2.1613254  0.032150211   0.10686394 
   66000   -949.38844    40.912765   -908.47567    1465.3469   -3908.9978    2.1779616   0.16297555    0.1229265 
   66100   -952.64256    45.203403   -907.43915    1619.0219    16322.658    2.2311366   0.15454564   0.11510108 
   66200   -951.29068    40.597657   -910.69302    1454.0609    5861.9156    2.2049948    0.1229254   0.12263476 
   66300   -948.90004     45.79671   -903.10333    1640.2721   -10302.094    2.1541446    0.2550756   0.12745632 
   66400   -946.06351    41.089251   -904.97426     1471.668   -2976.9185     2.172116   0.15123567   0.12596279 
   66500   -951.86471    42.488013    -909.3767    1521.7666    4270.9393    2.2035423   0.17443193   0.12002075 
   66600   -954.10096    44.300448   -909.80051    1586.6814    2215.0363     2.202861   0.21083553   0.11402102 
   66700   -945.82277    44.942743   -900.88002    1609.6861   -3776.4661    2.1658112   0.25431705   0.12777956 
   66800   -947.22686    38.982156   -908.24471    1396.1995   -189.78764     2.179901   0.11348006   0.12195498 
   66900   -949.57724    39.563386   -910.01386     1417.017    2534.8254    2.1927064   0.10428535   0.11483594 
   67000   -952.50136     45.23433   -907.26703    1620.1296     2486.841    2.1965258     0.140538   0.11629967 
   67100   -947.42891    47.542984   -899.88593    1702.8173   -3380.5126     2.169667  0.035153007   0.13968954 
   67200   -950.09817    40.728942   -909.36922     1458.763   -234.64757    2.1868492    0.1529597   0.12808057 
   67300   -952.13958     42.56247   -909.57711    1524.4333   -113.79685    2.1903793   0.32330661   0.12183945 
   67400   -949.13662    41.320248   -907.81637    1479.9414    3180.9241    2.1927209  0.029522541   0.12081933 
   67500   -946.34973    46.820935   -899.52879    1676.9561    -467.3442    2.1747074  0.093741486    0.1159878 
   67600   -950.86013    44.204638   -906.65549    1583.2498   -1317.2197    2.1831598   0.23446804   0.12529399 
   67700   -951.69686    42.432013   -909.26485    1519.7608   -4151.6564    2.1768672  0.061460371   0.11113473 
   67800   -950.82375    41.452605   -909.37115     1484.682   -359.15225     2.188275   0.11983983   0.10796256 
   67900   -953.76243    44.892103   -908.87033    1607.8723    2329.0806    2.2002311   0.16589709    0.1191764 
   68000   -944.57359    44.708723   -899.86487    1601.3043   -2169.8774    2.1668949   0.03176177   0.13100989 
   68100    -945.5535    38.594631   -906.95887    1382.3197   -943.24771    2.1751605   0.13377304   0.14568833 
   68200   -949.63881    40.050063   -909.58874     1434.448     4271.672    2.2000225  0.088747952   0.12647705 
   68300   -953.82456    43.591455   -910.23311    1561.2878    5143.4026    2.2086363   0.12793137   0.12359281 
   68400   -945.95501    44.949632   -901.00538    1609.9328    -6316.856    2.1663642   0.25089169    0.1208486 
   68500   -953.50656     44.80909   -908.69747    1604.8991   -6745.0423     2.173937  0.073205923   0.12248038 
   68600   -951.47423    41.647192   -909.82703    1491.6514    4479.0501    2.2020516  0.064102338   0.12554478 
   68700   -949.92704    43.189038     -906.738    1546.8747     9507.962    2.2097652    1.2852657    0.1165107 
   68800   -947.06171    45.684367   -901.37735    1636.2483   -4005.8954     2.165361   0.44163283   0.12063295 
   68900   -951.81745    41.417378   -910.40007    1483.4203   -9524.9742    2.1690279   0.21575804   0.11051208 
   69000   -953.10184    43.568886   -909.53296    1560.4795    2309.7127    2.1970935   0.16290837   0.11090186 
   69100   -951.11787    45.290209   -905.82766     1622.131    8643.4874    2.2106269   0.02472709   0.12782962 
   69200   -944.31512    43.055772   -901.25935    1542.1016    1161.2742    2.1699206   0.18053614   0.12978876 
   69300   -952.17393    41.423458   -910.75047     1483.638   -9097.6816     2.169661   0.13336332   0.12456762 
   69400   -951.22284    41.493393   -909.72945    1486.1429    483.94749    2.1904225  0.065990183   0.12091177 
   69500   -948.47493    42.085469   -906.38946    1507.3489    13206.615    2.2114836   0.12176621  0.096715732 
   69600   -947.75496    45.328559    -902.4264    1623.5046    3623.9182    2.1841232  0.042608225   0.12914996 
   69700   -947.54963    41.525561   -906.02407     1487.295   -19549.521    2.1283175   0.19492123   0.13156093 
   69800   -950.36763    39.871588   -910.49605    1428.0557   -9620.4034    2.1620304   0.18445777   0.11932401 
   69900    -951.0902    43.125024   -907.96518     1544.582    17070.045    2.2297851   0.21105845    0.1136971 
   70000   -953.27382    43.434492   -909.83933     1555.666    5601.6018    2.2093285   0.33232268    0.1048842 
   70100   -946.69561    46.312119   -900.38349    1658.7322   -7750.2546     2.156711   0.31886064   0.12687959 
   70200   -947.77444     42.29687   -905.47757    1514.9205   -3699.3111     2.171589   0.10262631   0.12276589 
   70300   -951.60961    42.411222   -909.19839    1519.0162    3009.2881    2.1960532   0.13110453   0.13012271 
   70400   -954.37021    44.475978   -909.89423    1592.9683    3007.0199    2.2064386   0.33246602   0.12248843 
   70500    -948.6039    47.406184   -901.19772    1697.9176   -1783.0424    2.1760546  0.026659251   0.12445823 
   70600   -949.08583    43.192836     -905.893    1547.0108   -3278.0406    2.1757633   0.36405158    0.1275964 
   70700   -951.13841    41.140576   -909.99784    1473.5062   -1075.4438    2.1847747   0.25891682   0.12230401 
   70800   -951.46538    42.628915   -908.83647    1526.8131    3216.0171    2.1982224    0.1633863   0.11907409 
   70900   -946.28898    45.991052   -900.29793    1647.2327    3574.8947    2.1872062   0.63262723   0.11822103 
[...]
  186800     -945.124    43.923775   -901.20023    1573.1903   -5143.4715    2.1658181    22.943926   0.14415095 
  186900   -951.96365    43.627258   -908.33639    1562.5702   -9456.1322    2.1636479    21.130439     0.117084 
  187000   -951.57649    42.794246   -908.78225    1532.7347    8664.3911    2.2079297    21.305798   0.11199622 
  187100   -954.84538    46.537834   -908.30754    1666.8164    9687.7308    2.2194612    21.024911   0.11377783 
  187200   -947.58848    43.702652   -903.88582    1565.2705    -4257.045    2.1694101    21.366896   0.12326794 
  187300   -950.76932    48.011034   -902.75828    1719.5811   -14868.096    2.1469642    22.801055   0.12786495 
  187400   -953.32807    44.039149   -909.28893    1577.3226   -274.39269     2.191256    22.192182   0.11909576 
  187500   -948.40595    39.429235   -908.97671    1412.2122     9355.606    2.2118945    20.411942   0.12457612 
  187600   -950.96617    44.180241   -906.78593     1582.376    700.71486    2.1887752    21.544691   0.11433098 
  187700   -943.74723    43.507672   -900.23956     1558.287   -7041.5603    2.1536691    22.590799   0.13562602 
  187800   -949.81495    40.729753    -909.0852     1458.792   -528.86699    2.1858109     21.56686   0.12651277 
  187900    -952.1185     42.74854   -909.36996    1531.0977    4962.4499    2.2047372    24.253492   0.12237391 
  188000   -955.08164    47.199276   -907.88236    1690.5069    336.50221    2.1945982    20.729069   0.12041427 
  188100   -943.67198    43.275032   -900.39695    1549.9547   -6390.2299    2.1549128    22.927467   0.13247248 
  188200   -948.18089    38.570458   -909.61043    1381.4539    461.52339    2.1863639    18.413651   0.12782552 
  188300   -952.10275    42.934308   -909.16844    1537.7512    7731.6534    2.2071234    19.598042   0.10843001 
  188400   -951.90061    44.555656   -907.34495     1595.822    1584.2693    2.1962122    20.267257   0.11196307 
  188500   -946.15504    46.574405   -899.58064    1668.1263   -8944.5042    2.1515595    22.767576   0.12731745 
  188600   -951.67893    42.256705   -909.42222    1513.4819    -2363.101    2.1863891    19.617846   0.12219945 
  188700   -954.62922    45.235859   -909.39336    1620.1844    4115.9652    2.2051477    21.474912   0.11762412 
  188800   -950.55014    43.215068   -907.33507     1547.807    3807.3745    2.1958645    20.714977   0.13402891 
  188900   -946.83073    46.499585   -900.33115    1665.4465    -6457.857    2.1615942    24.480022   0.13674461 
  189000   -952.03915    42.044328   -909.99482    1505.8753    147.36069    2.1881011    23.335788   0.11639687 
  189100   -949.01213    39.660956   -909.35117    1420.5116    4519.7576    2.1952334     23.09786   0.11680288 
  189200   -951.81007    43.892568   -907.91751    1572.0726   -1144.4246    2.1881678    19.935705   0.12136887 
  189300   -946.59983    45.088943   -901.51089    1614.9224   -1962.2996    2.1764822    20.350335   0.12470103 
  189400   -946.79679    43.437288    -903.3595    1555.7661   -2349.6417    2.1716629    20.360388    0.1214537 
  189500   -953.46401    45.100689   -908.36332    1615.3431   -3412.7597    2.1812522    21.734854   0.12770246 
  189600   -950.70822    41.266356   -909.44186    1478.0112    3302.2995    2.1958522    20.504445   0.11411335 
  189700   -952.20118    40.267625   -911.93356    1442.2403    2578.5445    2.1960942    21.959336   0.12740625 
  189800   -953.12446    32.899303   -920.22516    1178.3337    366.75072    2.1981891    21.148768   0.12179677 
  189900   -952.32739    40.024449   -912.30294    1433.5306   -6298.8441    2.1742489    22.606934   0.12325774 
  190000   -951.80845    42.035811   -909.77264    1505.5703    1094.7314    2.1920879     25.03017   0.12744134 
  190100    -948.4392    41.124527   -907.31468    1472.9314     7924.922    2.2029352    20.127038   0.11622812 
  190200   -948.37542     38.33567   -910.03975    1373.0447    790.42428    2.1852871    21.755126   0.12113779 
  190300    -953.9476    38.772766   -915.17483    1388.6999   -7832.2449    2.1742497    20.141972   0.10017242 
  190400   -950.71543    40.900151   -909.81528    1464.8951    1984.6843    2.1906584    23.140494    0.1279269 
  190500   -950.08345    43.365849    -906.7176    1553.2074    11680.982    2.2136032    24.644725   0.11215897 
  190600   -953.33135    39.619125   -913.71222    1419.0134    1447.0239     2.194406    21.245052   0.11245003 
  190700   -950.84524    37.676459   -913.16878    1349.4341   -16744.183    2.1499681    25.705572    0.1267541 
  190800   -952.39863    43.971926    -908.4267    1574.9149   -5306.2711    2.1739107    22.168502   0.10962921 
  190900   -951.09707     42.88582   -908.21125    1536.0145    14555.838    2.2205815    22.189322   0.12095451 
  191000   -954.67794    40.515728   -914.16221    1451.1264     5680.599    2.2095792     22.58065   0.11593191 
  191100   -949.93124    42.086711   -907.84453    1507.3934   -6512.7986    2.1685964    23.410485   0.12386915 
  191200   -947.10067     40.18561   -906.91506    1439.3028   -938.99848     2.173111    21.793725    0.1246242 
  191300   -948.98842    39.076286   -909.91213    1399.5709    3206.2738    2.1950754    21.638289   0.12614734 
  191400   -952.78374    40.306673   -912.47707    1443.6389    3785.3442    2.1995059    23.321943   0.12109994 
  191500   -948.89055    45.917101   -902.97345     1644.584   -3747.4155    2.1701756     22.70687   0.11469811 
  191600   -949.50739    41.808288   -907.69911    1497.4212   -2293.2238    2.1798358     20.62768   0.13200221 
  191700   -952.26295    41.610413   -910.65254    1490.3341    1598.7704    2.1966666    20.043266   0.11974108 
  191800   -948.55775    41.393385   -907.16437    1482.5609    5036.6917    2.1929604      22.0826   0.11083161 
  191900   -944.69656    41.243276   -903.45328    1477.1846   -2820.3395    2.1657622    21.608914   0.13472286 
  192000   -952.05176    41.361164    -910.6906    1481.4069   -4791.4722    2.1766139    23.133994   0.12109117 
  192100   -953.18061    44.407343   -908.77327      1590.51    3675.1092    2.2009249    21.671721   0.11390854 
  192200   -949.14162     47.42945   -901.71217    1698.7509    4610.2633    2.1949982     22.69448   0.13016786 
  192300   -950.78152    41.333169   -909.44835    1480.4042   -3440.4814    2.1768753    24.017237   0.12462785 
  192400   -952.13091    41.636702    -910.4942    1491.2757   -12759.369     2.154447    23.734737   0.10782012 
  192500   -948.05054    42.261271   -905.78927    1513.6455    3810.8859    2.1876523    22.200743   0.12497759 
  192600    -950.8908    39.131681   -911.75912    1401.5549    15220.805    2.2283691    21.450874   0.12123381 
  192700     -950.886     37.84248   -913.04352    1355.3804    2406.6449    2.1918725    20.481993   0.12268665 
  192800   -949.38896    40.903328   -908.48563    1465.0089   -9337.3803     2.159035    24.781248   0.12449298 
  192900   -948.43948    40.599502   -907.83998    1454.1269   -2884.3259    2.1755733    22.349198    0.1291202 
  193000   -954.03612    38.402689   -915.63344    1375.4451    8578.0483    2.2159054    21.796023   0.11803883 
  193100   -954.10749    45.749559   -908.35793    1638.5833   -1227.9262    2.1876264    22.510335   0.11593837 
  193200   -950.17333    42.094909   -908.07843     1507.687   -3400.1965    2.1748578    18.491938    0.1294044 
  193300   -951.85232    38.763947   -913.08838     1388.384   -173.55466    2.1847386    24.076886   0.10694182 
  193400   -956.27836    44.032823   -912.24554     1577.096    1877.3043    2.1994187    21.676128   0.11276655 
  193500   -948.91507    42.480266   -906.43481    1521.4891    3300.4263    2.1868141    22.457181   0.11941999 
  193600   -949.85264    39.340623   -910.51202    1409.0384   -1616.6252    2.1784341    23.742899   0.10979902 
  193700   -952.75695    40.287992   -912.46896    1442.9698   -1978.9438     2.182951    20.639587   0.11160381 
  193800   -946.32314    43.009418   -903.31372    1540.4414     1022.216    2.1746777    16.723471   0.13150347 
  193900    -952.1216    45.075437   -907.04616    1614.4387    3636.9283     2.196719    13.319117   0.12793718 
  194000   -951.96883    40.978499   -910.99033    1467.7012   -1942.2876     2.182785    13.292126   0.12747352 
  194100   -945.57278       41.107   -904.46578    1472.3037   -7901.4375    2.1557881    13.685966   0.14962621 
  194200   -947.80455    43.544316   -904.26024    1559.5995    283.42024    2.1799867    13.253571   0.12152394 
  194300   -949.32741    40.545716   -908.78169    1452.2005    11956.242     2.211021    14.754869   0.13932675 
  194400   -948.86327    40.313271      -908.55    1443.8752    5686.0716    2.1984498    10.431508   0.14945338 
  194500   -948.20853    46.581445   -901.62709    1668.3784   -15690.927    2.1378876    12.949133   0.14924352 
  194600   -952.25499    41.401833   -910.85316    1482.8635   -6711.1022    2.1705293    13.029242   0.14093995 
  194700   -948.17358    39.232804   -908.94078    1405.1768    10504.514    2.2087985    10.606518   0.14098078 
  194800   -947.51621    42.503349   -905.01286    1522.3158    9066.2919    2.2016655    12.104441   0.14142256 
  194900   -946.75232    40.901831   -905.85049    1464.9553   -5863.7558    2.1633738    11.992023   0.15120593 
  195000   -950.30706    38.141634   -912.16542     1366.095   -3840.9477    2.1756924    14.199304   0.13396957 
  195100    -949.9286     42.25062   -907.67798     1513.264    2321.4237    2.1945715    13.729549   0.14566214 
  195200   -949.84569     44.13551   -905.71018    1580.7739    2571.3826    2.1931888    12.244269    0.1404283 
  195300   -953.63268    39.982711   -913.64997    1432.0357   -2458.8396    2.1853207    12.483383   0.12365218 
  195400   -949.50785    38.931528   -910.57632    1394.3862    -4545.667     2.173597    13.411586   0.14004872 
  195500    -951.0118    45.026206    -905.9856    1612.6754    313.22951    2.1855428    14.439665     0.129338 
  195600   -952.46604    41.490266   -910.97577    1486.0308    3050.8928    2.2002001    13.427297   0.13229919 
  195700   -953.66665    40.849256   -912.81739    1463.0722   -199.07326    2.1914289    11.452762   0.12953386 
  195800   -952.40354    45.771119   -906.63242    1639.3555   -6660.9324    2.1724586    15.431407   0.14854434 
  195900   -950.45269    41.566818   -908.88588    1488.7727   -2564.0081    2.1807841    10.597317   0.14215785 
  196000   -952.38539    39.629712   -912.75568    1419.3926    4002.6797    2.2039261    13.464372   0.13665805 
  196100   -950.29265    46.301639   -903.99101    1658.3568   -1760.2891    2.1832933    11.097106   0.14021326 
  196200   -949.03009    41.322456   -907.70763    1480.0205   -3431.7927    2.1800467     12.71936   0.14849984 
  196300   -952.98383    41.218193   -911.76564    1476.2862   -2349.2353    2.1868619     9.351078   0.13166661 
  196400   -946.48363    43.055445   -903.42818    1542.0899     5384.384    2.1908111    14.976671   0.14876822 
  196500    -948.9762    41.425946   -907.55026    1483.7272    6264.1436    2.2043486    12.161494   0.14659073 
  196600    -952.5281    41.012226   -911.51587    1468.9092   -7938.6061    2.1744541    11.915732   0.14700949 
  196700   -948.70239    43.644424   -905.05797     1563.185   -10645.655    2.1549709     14.60886   0.14529862 
  196800   -948.65405    42.031741   -906.62231    1505.4245    3580.7459    2.1892227    10.237619   0.14747702 
  196900   -950.99273    39.932288   -911.06044    1430.2298    12859.408    2.2225671      17.9326   0.13242813 
  197000    -949.2476    43.796137   -905.45146    1568.6188    1784.8371    2.1865126     12.42803   0.14645407 
  197100    -949.2644    41.762894    -907.5015    1495.7954    -10438.03    2.1599921    14.276196   0.15214184 
  197200    -951.6568    39.081859   -912.57494    1399.7705   -1564.5373    2.1867957    13.514349   0.13544319 
  197300   -949.42317    44.703933   -904.71924    1601.1327    6309.0321    2.2003889    12.420843   0.15186142 
  197400   -949.49471    41.276353   -908.21836    1478.3693    2852.7551    2.1952786    13.049623   0.13966567 
  197500   -953.14272    39.926196   -913.21652    1430.0116   -6336.8461     2.176974    14.270258   0.12459968 
  197600   -948.49894    43.111845   -905.38709    1544.1099   -6515.9045    2.1664848    11.924901   0.14895534 
  197700   -949.94818    41.715947   -908.23223    1494.1139    5246.0771    2.1967907    13.443307   0.14639654 
  197800   -953.58118    41.417044   -912.16413    1483.4083    9167.4636    2.2102393    13.447476   0.15151377 
  197900   -944.96768    40.387875   -904.57981    1446.5472   -907.61572    2.1725503     12.59018   0.16942291 
  198000   -947.89052    39.908503   -907.98202    1429.3778   -4632.6863    2.1640371    13.180405    0.1353915 
  198100   -952.85032    41.102409   -911.74791    1472.1392   -1552.6795    2.1899972    13.696181   0.15280655 
  198200   -947.50588    43.730058   -903.77582    1566.2521    8749.6804    2.2016133    14.217746   0.14076419 
  198300   -948.72496     41.34739   -907.37757    1480.9136    377.30862    2.1847811    13.107081   0.14318129 
  198400   -953.56565    41.474302   -912.09135    1485.4591   -12508.073    2.1608845     11.17959    0.1391025 
  198500   -948.30358    43.662292   -904.64128     1563.825   -6975.6285    2.1639951    11.928855   0.14446066 
  198600   -950.51662    43.673164   -906.84346    1564.2143     18644.14    2.2311138    12.172816   0.13182309 
  198700   -952.85609    42.490935   -910.36516    1521.8712     10788.92    2.2174939     11.29817   0.12380647 
  198800   -947.95155    40.908617   -907.04293    1465.1983   -13423.368    2.1445219    14.067349   0.14507816 
  198900   -945.92819    41.065433   -904.86276    1470.8149   -11520.474    2.1477158    14.980037   0.14818265 
  199000   -952.88732    39.913177   -912.97414    1429.5452     8392.742    2.2137774    12.208666   0.14522252 
  199100   -948.98542    41.639745   -907.34567    1491.3847     5347.353    2.2001125    13.218283   0.15546662 
  199200   -952.68168    46.314272   -906.36741    1658.8093   -5435.1999    2.1737706    13.322685   0.13587611 
  199300   -957.23787    43.659467   -913.57841    1563.7238   -9525.4728    2.1772234    14.099602   0.13156415 
  199400    -950.2319    41.093238   -909.13866    1471.8108   -191.02766    2.1906084    15.526948   0.15294174 
  199500   -948.91849     43.19264   -905.72585    1547.0037    7516.1587    2.2019726    11.925385   0.14576392 
  199600   -951.37332    39.544136   -911.82918    1416.3275    2623.2657     2.194928    13.239473   0.13175307 
  199700   -950.55027    39.588181   -910.96208    1417.9051   -7140.1935    2.1717224    11.397881   0.14964913 
  199800   -947.68511    41.934156   -905.75095    1501.9294   -5035.6472    2.1678372    11.719575   0.15242513 
  199900    -951.2282    41.784062   -909.44414    1496.5536    6341.7621    2.2024789    12.512105   0.14276774 
  200000   -951.73479    40.424383    -911.3104    1447.8548    9387.0449    2.2100152    12.321577   0.13261161 
  200100   -945.01934    42.902064   -902.11727    1536.5963   -6873.1245    2.1602846     13.70513   0.15453187 
  200200   -953.01711    44.968347   -908.04877    1610.6031   -7575.8675    2.1717643    14.333068   0.15019619 
  200300    -949.9635     40.66634   -909.29716    1456.5208    3869.7731    2.1952449    14.874401   0.14107201 
  200400   -946.68853    42.028978   -904.65955    1505.3256    11337.012    2.2035733    15.401789   0.14699118 
  200500   -947.39527    44.503873   -902.89139    1593.9673   -3681.1532    2.1704408    15.093434   0.15983501 
  200600   -953.83588    43.917448   -909.91843    1572.9637   -12109.818     2.159679    12.859791   0.13804369 
  200700   -952.26566    44.260468   -908.00519    1585.2495    877.97122    2.1878395    13.736572   0.14317865 
  200800   -949.64355    46.142563   -903.50099    1652.6593     12676.05    2.2174675    14.958887   0.15042923 
  200900   -943.20471    46.166994   -897.03772    1653.5343   -1159.2168    2.1711943    11.431831   0.16160988 
  201000   -949.78973    43.307383   -906.48234    1551.1134   -13358.882     2.155579    15.018516   0.15742801 
  201100   -950.71096    43.635244   -907.07572    1562.8562     -2125.01    2.1795316    11.965261   0.14864624 
  201200    -949.6032    41.560314   -908.04289    1488.5397    11883.239     2.214781    11.846502   0.13803145 
  201300   -951.77476    37.776704   -913.99805    1353.0245     3418.325    2.2003087     13.89817   0.14740848 
  201400   -947.61832     42.20648   -905.41184    1511.6831   -5204.8754    2.1650033    12.686003   0.14249743 
  201500   -947.34189    40.773603   -906.56828    1460.3626    474.92403    2.1818147    14.255851   0.13772563 
  201600   -950.69907    39.955086   -910.74399    1431.0463     3342.526    2.1941226    14.097697   0.14133814 
  201700   -951.78734    44.124463   -907.66288    1580.3782   -166.78237    2.1878323    10.768268   0.13657676 
  201800   -949.86884    46.358868   -903.50998    1660.4065   -4074.5434     2.166979    13.127625   0.14248732 
  201900   -951.38145    41.087904   -910.29354    1471.6197   -3981.0107    2.1786207    11.007476   0.14003236 
  202000   -948.94047    41.203144   -907.73733    1475.7472    4641.2182    2.1975826    12.880308   0.14051903 
  202100   -948.63859    47.387086   -901.25151    1697.2336    3224.8634    2.1826836    11.381826   0.13410536 
  202200   -948.90913    39.090635    -909.8185    1400.0848   -2955.6359    2.1774859     16.11341   0.13025912 
  202300   -949.07449    40.368659   -908.70583     1445.859   -5791.4686    2.1723717    15.874004    0.1273319 
  202400   -949.29657    42.823339   -906.47323    1533.7767    836.69061    2.1833064    15.380516   0.11987886 
  202500   -953.16166    37.535538   -915.62613    1344.3868    8890.1615    2.2176361     15.03512   0.10192657 
  202600   -951.71352     40.49392    -911.2196    1450.3454   -735.16533    2.1851305    14.308394   0.11259687 
  202700    -947.7805     39.62703   -908.15347    1419.2965   -6928.2053    2.1619367     14.50794   0.13334438 
  202800   -950.90408    42.868636   -908.03544    1535.3991   -2582.5595    2.1818414    15.244263   0.12231578 
  202900   -954.89099     39.33064   -915.56035    1408.6809    13066.391    2.2307029    14.083594   0.12525051 
  203000   -952.49071    44.234706     -908.256    1584.3268   -543.08626     2.194705    13.267191   0.12834103 
  203100    -947.4273    38.978434   -908.44887    1396.0661   -8481.2753    2.1589748    14.223371   0.12994972 
  203200   -953.56328    41.146209   -912.41707     1473.708   -6273.2607    2.1775878    15.632756   0.12347235 
Loop time of 142.63 on 1 procs for 200000 steps with 217 atoms

Performance: 363.457 ns/day, 0.066 hours/ns, 1402.226 timesteps/s
100.0% CPU use with 1 MPI tasks x no OpenMP threads

MPI task timing breakdown:
Section |  min time  |  avg time  |  max time  |%varavg| %total
---------------------------------------------------------------
Pair    | 138.88     | 138.88     | 138.88     |   0.0 | 97.37
Neigh   | 0.70397    | 0.70397    | 0.70397    |   0.0 |  0.49
Comm    | 0.86261    | 0.86261    | 0.86261    |   0.0 |  0.60
Output  | 0.066952   | 0.066952   | 0.066952   |   0.0 |  0.05
Modify  | 1.8187     | 1.8187     | 1.8187     |   0.0 |  1.28
Other   |            | 0.2956     |            |       |  0.21

Nlocal:    217 ave 217 max 217 min
Histogram: 1 0 0 0 0 0 0 0 0 0
Nghost:    957 ave 957 max 957 min
Histogram: 1 0 0 0 0 0 0 0 0 0
Neighs:    4200 ave 4200 max 4200 min
Histogram: 1 0 0 0 0 0 0 0 0 0
FullNghs:  8400 ave 8400 max 8400 min
Histogram: 1 0 0 0 0 0 0 0 0 0

Total # of neighbors = 8400
Ave neighs/atom = 38.7097
Neighbor list builds = 1191
Dangerous builds = 5
Total wall time: 0:02:24
