LAMMPS (3 Mar 2020)

    # ---------- Initialize simulation ---------------------
    units metal
    atom_style atomic
    dimension  3
    boundary   p p p
    read_data /home/modeler/RemLabs/Lab4/Problem2A_size_4/temp_2000/lammps.data
  orthogonal box = (0 0 0) to (16.36 16.36 16.36)
  1 by 1 by 1 MPI processor grid
  reading atoms ...
  256 atoms
  read_data CPU = 0.000995621 secs

    pair_style eam
    pair_coeff * * /usr/share/lammps-stable/potentials/Ag_u3.eam
Reading potential file /usr/share/lammps-stable/potentials/Ag_u3.eam with DATE: 2007-06-11

    velocity  all create 2000 87287 dist gaussian

    # ---------- Describe computed properties------------------
    compute msdall all msd
    thermo_style custom step pe ke etotal temp press density c_msdall[4]
    thermo 100

    # ---------- Specify ensemble  ---------------------
    #fix  1 all nve
    fix  1 all nvt temp 2000 2000 0.25

    # --------- Compute RDF ---------------
    compute rdfall all rdf 100 1 1
    fix 2 all ave/time 1 25000 25000 c_rdfall[*] file /home/modeler/RemLabs/Lab4/Problem2A_size_4/temp_2000/lammps.rdf mode vector

    # --------- Run -------------
    timestep 0.005
    run 100000
Neighbor list info ...
  update every 1 steps, delay 10 steps, check yes
  max neighbors/atom: 2000, page size: 100000
  master list distance cutoff = 7.55
  ghost atom cutoff = 7.55
  binsize = 3.775, bins = 5 5 5
  2 neighbor lists, perpetual/occasional/extra = 1 1 0
  (1) pair eam, perpetual
      attributes: half, newton on
      pair build: half/bin/atomonly/newton
      stencil: half/bin/3d/newton
      bin: standard
  (2) compute rdf, occasional, copy from (1)
      attributes: half, newton on
      pair build: copy
      stencil: none
      bin: none
Per MPI rank memory allocation (min/avg/max) = 3.744 | 3.744 | 3.744 Mbytes
Step PotEng KinEng TotEng Temp Press Density c_msdall[4] 
       0       -729.6    65.922674   -663.67733         2000    16080.607    10.472245            0 
     100   -686.09207    43.414994   -642.67708    1317.1491    72335.705    10.472245  0.098634352 
     200   -670.04366    60.064343   -609.97932    1822.2666    98631.851    10.472245   0.17200668 
     300   -660.56898    74.384031   -586.18494    2256.7055    113598.69    10.472245   0.19269786 
     400   -658.80519    63.134487   -595.67071    1915.4104    115214.62    10.472245    0.2147256 
     500   -669.91101    66.515755   -603.39526    2017.9932    100303.36    10.472245   0.16942154 
     600   -658.88845    65.481758   -593.40669    1986.6232    113870.74    10.472245   0.19162371 
     700   -661.30304    68.331697   -592.97134    2073.0863    112606.01    10.472245   0.17672409 
     800   -658.48408    58.094551   -600.38952    1762.5059     113118.8    10.472245   0.19983059 
     900   -665.19667    72.404748   -592.79193    2196.6569    106665.43    10.472245   0.18966344 
    1000   -666.70647    68.993622   -597.71285    2093.1682    105473.44    10.472245   0.16261485 
    1100   -668.98125    67.730986   -601.25026    2054.8616    102359.55    10.472245    0.1479112 
    1200   -664.88671    68.806556   -596.08015    2087.4929    109466.17    10.472245   0.18014606 
    1300    -666.7433    69.614602    -597.1287    2112.0078    105310.93    10.472245   0.15913779 
    1400   -662.35693    57.703621   -604.65331    1750.6457    109472.05    10.472245   0.16390148 
    1500   -660.92955    67.576398   -593.35315    2050.1716    114021.69    10.472245   0.21267855 
    1600   -662.16058    67.179545   -594.98104    2038.1317    112151.54    10.472245   0.19603589 
    1700   -668.20146    64.156269   -604.04519    1946.4098    103054.85    10.472245   0.16747731 
    1800   -662.72533    66.676939   -596.04839    2022.8833    112028.92    10.472245   0.18308992 
    1900   -659.36801    63.256772   -596.11124    1919.1203    112714.82    10.472245   0.20231604 
    2000   -657.20082    65.082153   -592.11866    1974.4998    116701.35    10.472245   0.18723481 
    2100   -657.64312    67.147358   -590.49576    2037.1552    117680.76    10.472245   0.21510594 
    2200   -663.16281     63.45243   -599.71038    1925.0563    108808.43    10.472245   0.20761376 
    2300   -658.01689    66.931249   -591.08564    2030.5987    117621.48    10.472245   0.19519185 
    2400   -658.84438    68.988605   -589.85578     2093.016    114196.44    10.472245   0.17752578 
    2500   -659.19038    62.007058   -597.18333    1881.2058    113509.46    10.472245   0.19940281 
    2600   -663.48967    67.511727   -595.97795    2048.2096    109915.14    10.472245   0.17453924 
    2700   -663.31757    70.405388   -592.91218    2135.9992    109039.25    10.472245   0.17719181 
    2800   -667.75508    64.855462   -602.89962    1967.6223    103636.56    10.472245   0.16665358 
    2900   -659.22607     66.92868   -592.29739    2030.5208    115215.86    10.472245   0.17755031 
    3000    -656.6262    62.548243   -594.07796    1897.6246    118110.11    10.472245    0.1914736 
    3100   -665.63768    65.169302   -600.46837    1977.1438    105137.08    10.472245   0.18993783 
    3200    -658.1926    68.162522   -590.03007    2067.9538    115209.31    10.472245   0.18774317 
    3300   -654.58439     66.61078   -587.97361    2020.8762    121981.54    10.472245   0.22458163 
    3400   -664.94165    65.854893   -599.08675    1997.9436    105878.28    10.472245   0.18452108 
    3500   -661.08225     64.40025     -596.682    1953.8118    111880.27    10.472245   0.16200042 
    3600   -655.13076    65.748668   -589.38209    1994.7209    121140.53    10.472245   0.22189527 
    3700   -663.10636     61.69454   -601.41182    1871.7245    108757.84    10.472245   0.15897626 
    3800   -662.40061    64.154692   -598.24592    1946.3619    110466.11    10.472245   0.17968561 
    3900   -659.96856    69.622947   -590.34561     2112.261    115182.87    10.472245   0.17056969 
    4000   -668.45073    65.306188   -603.14454    1981.2967    102516.67    10.472245   0.19047618 
    4100   -660.56767    65.450247   -595.11743    1985.6672    112712.05    10.472245    0.1871971 
    4200   -659.40912    60.864089   -598.54503    1846.5297    113389.34    10.472245   0.17075905 
    4300   -665.18955    61.614664   -603.57489    1869.3011    104985.92    10.472245   0.17752525 
    4400   -665.59111    70.642068   -594.94904    2143.1797    108486.97    10.472245   0.17993597 
    4500   -662.65261    65.778105    -596.8745     1995.614    109968.06    10.472245   0.18267661 
    4600   -668.51262    59.289594   -609.22303    1798.7618    100864.16    10.472245   0.15472639 
    4700   -659.24539    60.677825   -598.56757    1840.8788    113194.39    10.472245   0.20100104 
    4800   -662.56915    69.151702   -593.41744    2097.9641    110748.63    10.472245   0.19153685 
    4900   -666.85839    62.947645   -603.91074    1909.7419    103190.77    10.472245   0.16931595 
    5000   -660.73313    61.871701   -598.86143    1877.0992    110049.15    10.472245   0.21299945 
    5100   -662.73644    68.939703   -593.79673    2091.5324    110627.28    10.472245   0.16896468 
    5200   -667.53736    67.178641   -600.35872    2038.1043    103588.72    10.472245   0.15190899 
    5300   -665.41064    58.758522   -606.65212    1782.6498    104493.63    10.472245    0.1623085 
    5400   -661.38904     68.76303   -592.62601    2086.1724     111713.4    10.472245   0.19306326 
    5500   -661.50972    65.536413   -595.97331    1988.2814    112170.74    10.472245   0.19099599 
    5600   -668.81235    64.466926   -604.34542    1955.8347    101541.48    10.472245   0.16045397 
    5700   -658.92632    66.022707   -592.90361    2003.0349    114700.37    10.472245   0.22988294 
    5800    -657.7292    64.884034   -592.84516    1968.4891    116003.31    10.472245   0.21445977 
    5900   -662.77261     61.87526   -600.89735    1877.2072    108995.78    10.472245   0.17402693 
    6000   -664.41365     66.05396   -598.35969     2003.983    108554.39    10.472245   0.18590302 
    6100     -658.868    63.711905    -595.1561    1932.9284    114581.82    10.472245   0.21566926 
    6200   -659.42475    64.870676   -594.55407    1968.0839    114688.31    10.472245   0.20236643 
    6300   -665.42223     61.46189   -603.96034    1864.6662    104097.95    10.472245    0.2003774 
    6400   -661.80068    68.175486   -593.62519    2068.3471    112897.02    10.472245   0.17990663 
    6500   -658.86267     62.80225   -596.06042    1905.3308    115178.02    10.472245   0.15742688 
    6600   -670.67239    69.583958   -601.08844    2111.0781    99818.495    10.472245   0.16349747 
    6700   -661.12479    74.698241   -586.42655    2266.2382    116100.64    10.472245   0.21664938 
    6800   -662.78954    64.075356   -598.71419     1943.955    109415.26    10.472245   0.19666447 
    6900    -663.7173    67.677452   -596.03985    2053.2375    109380.68    10.472245   0.15377991 
    7000   -666.26017    78.916003   -587.34417    2394.1991    109235.96    10.472245   0.15421054 
    7100   -665.16533    65.745122   -599.42021    1994.6133    106738.76    10.472245   0.17001394 
    7200    -664.4835    66.928954   -597.55455    2030.5291    108130.58    10.472245   0.19664104 
    7300   -650.60218    62.049004   -588.55318    1882.4784    124072.43    10.472245    0.2523658 
    7400   -658.10046    64.173374   -593.92708    1946.9287    115275.44    10.472245   0.23104372 
    7500   -663.81951    63.481124   -600.33838    1925.9269    108688.32    10.472245   0.19225669 
    7600   -668.55697    60.651265   -607.90571     1840.073    100604.95    10.472245   0.17148779 
    7700   -658.38786    63.727421   -594.66043    1933.3992    113457.39    10.472245   0.19205234 
    7800   -664.67809    67.638162   -597.03993    2052.0455    107412.12    10.472245    0.2077873 
    7900   -669.13004    62.667756   -606.46228    1901.2504    99927.904    10.472245   0.17498332 
    8000   -665.17936    68.382029   -596.79733    2074.6133     105322.3    10.472245   0.15615292 
    8100   -663.51373    67.784233    -595.7295    2056.4771    109928.46    10.472245   0.18081626 
    8200   -671.48878    68.376148   -603.11263    2074.4349    99370.682    10.472245   0.13586051 
    8300   -667.94631    66.636609    -601.3097    2021.6598    104118.52    10.472245   0.16538752 
    8400   -662.34908    67.603084     -594.746    2050.9813    111213.72    10.472245   0.17337238 
    8500   -666.86475    65.077677   -601.78707     1974.364    104807.88    10.472245   0.15845621 
    8600   -663.69122    59.312984   -604.37824    1799.4714    108013.59    10.472245   0.16938442 
    8700    -659.6889      65.1992    -594.4897    1978.0508     115177.4    10.472245   0.19388464 
    8800   -660.80783     62.52326   -598.28457    1896.8666    110712.87    10.472245   0.18149405 
    8900    -665.0254    60.621744   -604.40365    1839.1773    105425.25    10.472245   0.16636143 
    9000   -658.43637     64.86531   -593.57106    1967.9211    114589.49    10.472245   0.17806219 
    9100   -666.09946    68.234093   -597.86537    2070.1251    107875.95    10.472245    0.1590795 
    9200   -669.68522    65.458174   -604.22705    1985.9077    100154.36    10.472245   0.14615156 
    9300   -659.74731    68.381911    -591.3654    2074.6098    113207.73    10.472245   0.18365162 
    9400   -665.66617    64.831421   -600.83474    1966.8929    103694.53    10.472245   0.17647642 
    9500   -662.81801    69.745706    -593.0723    2115.9853    109165.68    10.472245   0.20757414 
    9600    -658.7154    67.503316   -591.21208    2047.9544    115647.59    10.472245   0.20876066 
    9700   -663.40112    64.280648   -599.12047    1950.1833     110120.8    10.472245   0.18415232 
    9800     -661.376    64.372891   -597.00311    1952.9818    110134.13    10.472245   0.17938175 
    9900   -658.26836    73.105074   -585.16329    2217.9038    118572.59    10.472245   0.18124524 
   10000   -663.27056    67.023702   -596.24686    2033.4036    109931.35    10.472245   0.18391189 
   10100   -662.07358    65.034045   -597.03954    1973.0402    108868.48    10.472245    0.2253141 
   10200   -655.63035    67.029482   -588.60086     2033.579    119844.62    10.472245   0.21078257 
   10300   -663.22976    61.754355   -601.47541    1873.5391    109078.22    10.472245   0.17390443 
   10400   -664.85667    66.318682   -598.53798    2012.0143    106333.37    10.472245   0.18740634 
   10500   -654.93812    68.946973   -585.99115    2091.7529    121151.63    10.472245   0.21153231 
   10600   -657.18151    67.117409    -590.0641    2036.2466       117354    10.472245   0.18323323 
   10700   -663.43287    62.420178   -601.01269    1893.7393    108001.55    10.472245     0.172405 
   10800   -664.45372    70.461695   -593.99202    2137.7074     108571.2    10.472245   0.15982529 
   10900   -658.10413    65.985079   -592.11906    2001.8933    117444.27    10.472245   0.21327297 
   11000   -667.98305    64.052999   -603.93005    1943.2767    104320.17    10.472245   0.14627056 
   11100   -660.32837    66.073895   -594.25448    2004.5878    112959.33    10.472245   0.19455214 
   11200   -665.50703    72.069709   -593.43732    2186.4923    108224.06    10.472245   0.16739899 
   11300   -660.41714    62.497981   -597.91915    1896.0997    112219.55    10.472245   0.17498595 
   11400   -659.22101    62.946711    -596.2743    1909.7135    112843.53    10.472245   0.18662362 
   11500   -657.48372    72.725211   -584.75851    2206.3793    118484.23    10.472245   0.20520227 
   11600   -664.43781    67.054375   -597.38343    2034.3342    107871.35    10.472245    0.1781867 
   11700   -662.39097     64.77922   -597.61175    1965.3092    110364.37    10.472245   0.19883068 
   11800   -655.28398    68.591142   -586.69283    2080.9575    121728.95    10.472245   0.20255607 
   11900   -662.90773    64.293402   -598.61433    1950.5702    108646.17    10.472245   0.17492637 
   12000   -662.50111    65.451499   -597.04961    1985.7052    109042.73    10.472245   0.18244232 
   12100   -655.18147    66.971258   -588.21021    2031.8125     119291.2    10.472245   0.19489671 
   12200   -664.09199    64.962507   -599.12948    1970.8699    108171.25    10.472245   0.19047718 
   12300   -660.88566    64.007449   -596.87821    1941.8948    111261.06    10.472245   0.18633765 
   12400   -653.51388    64.901962   -588.61191    1969.0331    120415.01    10.472245   0.20179828 
   12500   -661.11327    65.245859   -595.86741    1979.4664    112165.05    10.472245   0.21745366 
   12600   -666.75356    65.502531   -601.25103    1987.2535    105250.53    10.472245   0.15735257 
   12700   -656.97118    66.591556   -590.37962    2020.2929    117758.18    10.472245   0.19485246 
   12800   -659.43955    65.019404   -594.42014    1972.5961    113014.76    10.472245   0.18112631 
   12900   -659.72928    61.233759   -598.49552     1857.745    113265.74    10.472245   0.16817797 
   13000   -662.94207    66.296501   -596.64557    2011.3414    110485.21    10.472245   0.16300708 
   13100   -651.06508    63.442079     -587.623    1924.7423    124342.11    10.472245   0.24016473 
   13200   -663.77144    64.689349   -599.08209    1962.5827    109027.61    10.472245   0.18274771 
   13300   -659.66397    61.893998   -597.76998    1877.7757    113232.31    10.472245   0.17845262 
   13400   -654.36677    67.921493   -586.44528    2060.6413    121496.12    10.472245   0.21260746 
   13500   -661.02523    65.749003   -595.27623    1994.7311    112875.39    10.472245    0.1855261 
   13600   -664.06763    65.836646   -598.23099      1997.39    109445.69    10.472245   0.17211062 
   13700   -663.49232    70.672633   -592.81968     2144.107    110145.68    10.472245   0.17173253 
   13800   -661.89063    66.703347   -595.18728    2023.6845    111101.33    10.472245   0.16771045 
   13900   -668.25715    69.069096   -599.18805     2095.458    102556.28    10.472245   0.17512317 
   14000   -663.75603    72.258198   -591.49783    2192.2108    110723.01    10.472245   0.19523403 
   14100   -658.51657    64.903648   -593.61292    1969.0842    115772.38    10.472245   0.26372806 
   14200   -662.58631    61.427706    -601.1586    1863.6291     107756.1    10.472245    0.1827034 
   14300   -663.44805    70.662221   -592.78583    2143.7911    109825.83    10.472245   0.19772182 
   14400   -659.21891    66.791772   -592.42714    2026.3672    114510.85    10.472245   0.19663705 
   14500   -666.03768    67.272609   -598.76507    2040.9551    105061.19    10.472245   0.17228446 
   14600   -659.18129    62.347264   -596.83403    1891.5272    114001.78    10.472245   0.20674034 
   14700   -655.89571    70.521254   -585.37445    2139.5144    119635.96    10.472245   0.18451061 
   14800   -665.11684    66.311786   -598.80505    2011.8051    107223.15    10.472245   0.18895917 
   14900   -659.56197    65.190352   -594.37162    1977.7824    115565.79    10.472245   0.22076054 
   15000   -663.29815     71.17374   -592.12441    2159.3098    110397.56    10.472245   0.18416137 
   15100   -664.74375    63.026465   -601.71729    1912.1331    107400.21    10.472245   0.18248065 
   15200   -662.80304    69.128325   -593.67471    2097.2549    110173.05    10.472245   0.18063317 
   15300   -665.50135    63.027598   -602.47375    1912.1675    105940.69    10.472245   0.16797672 
   15400   -669.69635     69.07552   -600.62083    2095.6529    101462.75    10.472245   0.15053046 
   15500   -661.50874    68.764025   -592.74471    2086.2026    114153.15    10.472245   0.16553474 
   15600   -663.60399    67.065942   -596.53804    2034.6851    108380.24    10.472245   0.18420296 
   15700   -664.53654    66.970359   -597.56618    2031.7853    107426.72    10.472245    0.1912817 
   15800   -662.61694    66.135006   -596.48193    2006.4419    110327.58    10.472245   0.19252657 
   15900   -659.22906    65.663181   -593.56588    1992.1273    114608.06    10.472245   0.20063003 
   16000   -660.89079    70.832989    -590.0578     2148.972    113205.39    10.472245   0.17876689 
   16100   -664.53087    63.259359   -601.27151    1919.1988    106906.12    10.472245   0.17558395 
   16200   -662.29305    67.462285   -594.83076    2046.7096    110480.44    10.472245   0.19503949 
   16300   -655.78785    62.175662   -593.61219     1886.321    117965.48    10.472245   0.20370731 
   16400   -662.32993    61.141905   -601.18803    1854.9583     109660.1    10.472245   0.18858922 
   16500    -656.7793    66.700985   -590.07831    2023.6129    118642.39    10.472245   0.19234601 
   16600   -659.67351    67.260509     -592.413     2040.588    112563.34    10.472245    0.1848495 
   16700   -664.59004     65.37435   -599.21569    1983.3646    107625.87    10.472245   0.14939422 
   16800   -664.67529    66.174101   -598.50119    2007.6279    107071.17    10.472245   0.16299768 
   16900   -658.20209    69.776117   -588.42597     2116.908    117301.08    10.472245   0.17872865 
   17000   -667.92087     68.43887     -599.482    2076.3378    104877.08    10.472245   0.14748235 
   17100   -665.04982    67.690691   -597.35913    2053.6391    107990.34    10.472245   0.17427706 
   17200   -656.69805    69.806021   -586.89203    2117.8152    118961.25    10.472245   0.20026198 
   17300   -662.72628    67.010459   -595.71582    2033.0019    109410.79    10.472245   0.17230391 
   17400   -664.34159    67.647373   -596.69422    2052.3249    108224.25    10.472245   0.20849893 
   17500   -654.13942    71.943819    -582.1956     2182.673    121635.69    10.472245   0.25105948 
   17600   -660.62942    69.358106   -591.27131    2104.2261     112835.4    10.472245   0.19175057 
   17700   -665.82274    66.092346    -599.7304    2005.1476     104833.8    10.472245   0.16573548 
   17800    -662.7918    66.368292    -596.4235    2013.5194     109718.1    10.472245   0.17457279 
   17900   -661.32037    70.630487   -590.68988    2142.8283    111349.08    10.472245   0.17510707 
   18000   -663.36659    62.744282   -600.62231    1903.5721    109240.59    10.472245    0.2013833 
   18100   -664.56861    69.221849   -595.34677    2100.0923    108562.55    10.472245   0.16878041 
   18200   -660.66249     76.40867   -584.25382    2318.1302    116704.53    10.472245   0.16831405 
   18300    -660.2849    61.804669   -598.48023    1875.0656    113004.34    10.472245   0.16409955 
   18400   -662.87568     65.16419   -597.71149    1976.9887    110728.38    10.472245   0.15507175 
   18500   -658.36662    69.217583   -589.14903    2099.9628    118340.45    10.472245   0.19367441 
   18600   -660.23476    65.647229   -594.58753    1991.6434    112816.07    10.472245    0.2435871 
   18700   -661.57538    61.704123   -599.87126    1872.0152    110716.73    10.472245   0.21042697 
   18800   -657.19459    68.244773   -588.94982    2070.4492    117246.09    10.472245   0.20189198 
   18900   -660.89876    75.432667   -585.46609    2288.5196    114970.35    10.472245   0.19386554 
   19000   -659.93375    59.787272   -600.14648    1813.8606    111533.64    10.472245   0.18262227 
   19100   -664.29479    66.942997   -597.35179    2030.9552    108999.04    10.472245   0.16319174 
   19200   -659.07295    69.402678   -589.67027    2105.5784    115179.56    10.472245   0.19717852 
   19300   -667.43053    64.082979   -603.34755    1944.1863    102910.67    10.472245   0.17741745 
   19400   -660.07584     65.43216   -594.64368    1985.1185    113488.99    10.472245   0.22533136 
   19500   -655.10648    62.208938   -592.89755    1887.3305    117429.97    10.472245   0.23062107 
   19600    -664.7996    64.810405    -599.9892    1966.2553    107879.85    10.472245   0.17833429 
   19700   -661.11924    63.788304   -597.33094    1935.2463    112232.27    10.472245   0.18560827 
   19800   -659.09566    67.058132   -592.03752    2034.4482    114663.49    10.472245   0.20260595 
   19900   -662.07483    67.625575   -594.44926    2051.6636     111059.1    10.472245   0.16481864 
   20000   -662.99853    61.015647   -601.98289    1851.1278    110168.82    10.472245   0.20189901 
   20100    -659.2884     66.17992   -593.10848    2007.8045     114224.7    10.472245   0.18723754 
   20200   -661.45042     66.79997   -594.65045    2026.6159     112170.1    10.472245   0.20809983 
   20300   -667.77619     62.71902   -605.05717    1902.8057    102867.08    10.472245   0.14612139 
   20400   -664.16665    62.994277   -601.17238    1911.1566    106622.82    10.472245   0.15999104 
   20500   -659.56541    63.628551   -595.93686    1930.3996    113162.68    10.472245   0.19226366 
   20600   -659.98755    62.292467   -597.69508    1889.8647    111186.54    10.472245   0.17404688 
   20700   -668.26363    64.227006   -604.03662    1948.5558     102159.8    10.472245   0.15807236 
   20800   -661.57908    69.424893   -592.15419    2106.2523    113246.45    10.472245    0.2117607 
   20900   -661.12199    67.256245   -593.86574    2040.4586    111461.06    10.472245   0.22134799 
   21000   -667.16928    60.522376   -606.64691    1836.1627    103452.06    10.472245   0.17324988 
   21100   -662.52124    62.706107   -599.81514    1902.4139    110948.69    10.472245   0.16291615 
   21200   -658.88342      64.2441   -594.63932    1949.0744    115072.31    10.472245   0.19357909 
   21300   -661.85098    64.010447   -597.84053    1941.9858    111323.21    10.472245   0.17863665 
   21400   -664.29716    61.445443   -602.85172    1864.1672    107053.06    10.472245   0.15490682 
   21500   -654.59549    63.080987    -591.5145    1913.7873    118949.32    10.472245   0.22861812 
   21600     -664.942    67.099049   -597.84295    2035.6895    106521.79    10.472245   0.18461502 
   21700   -663.26823    64.967862   -598.30037    1971.0324    109980.87    10.472245   0.19677656 
   21800   -667.80044    72.280505   -595.51994    2192.8876    105788.92    10.472245   0.15296469 
   21900   -669.20843    64.140175   -605.06826    1945.9215    100633.42    10.472245   0.15403083 
   22000    -662.7419    61.774594   -600.96731    1874.1532     108779.5    10.472245   0.18547639 
   22100   -664.73874    69.552798   -595.18594    2110.1328    107614.35    10.472245   0.17080524 
   22200   -659.94285    60.508851     -599.434    1835.7523    113273.67    10.472245   0.18367244 
   22300   -670.10742    64.765836   -605.34159    1964.9032    99135.049    10.472245   0.15401332 
   22400   -663.07049    70.161548   -592.90894    2128.6014    110393.93    10.472245   0.17439014 
   22500   -665.85681    66.243349   -599.61346    2009.7288    106077.82    10.472245    0.1908654 
   22600   -666.10714    60.584762   -605.52238    1838.0554    105134.64    10.472245   0.16391868 
   22700   -661.62771    67.036999   -594.59071     2033.807    112557.17    10.472245    0.1943724 
   22800   -660.68266    66.292437   -594.39022    2011.2181    113674.97    10.472245   0.18838952 
   22900   -665.30389    59.647263   -605.65662     1809.613    104293.75    10.472245   0.18624669 
   23000   -665.50188    66.772052   -598.72983    2025.7689     106453.2    10.472245   0.16338881 
   23100   -662.14151    66.460543   -595.68096    2016.3182     111310.5    10.472245   0.19882918 
   23200   -662.67544     64.63625   -598.03919    1960.9717    108826.31    10.472245   0.18324859 
   23300   -663.34148    65.788392   -597.55309    1995.9261    109115.87    10.472245   0.17374513 
   23400   -659.53224    70.795144   -588.73709    2147.8238     113997.5    10.472245   0.17027241 
   23500   -661.26044    60.408605   -600.85183     1832.711    111419.05    10.472245   0.21700309 
   23600   -661.08396    63.875964     -597.208    1937.9057    112099.21    10.472245   0.18910107 
   23700   -660.08381    74.072879   -586.01093    2247.2656    114437.73    10.472245    0.1812877 
   23800    -662.2217    64.429631   -597.79207    1954.7032    109674.87    10.472245   0.18024677 
   23900   -664.52603    67.116669   -597.40936    2036.2241    108132.34    10.472245   0.18005068 
   24000   -661.03767    70.001895   -591.03578    2123.7577    112098.33    10.472245   0.16192508 
   24100   -659.56045    62.051692   -597.50876    1882.5599    112629.43    10.472245   0.20815701 
   24200   -666.18074    65.734095   -600.44665    1994.2788    105081.73    10.472245   0.18467976 
   24300    -663.2232    74.809326   -588.41387    2269.6084    111379.21    10.472245   0.18128635 
   24400   -661.98594    64.230337    -597.7556    1948.6569    109992.91    10.472245    0.1753688 
   24500   -666.67621    68.842443   -597.83377    2088.5816    105013.78    10.472245   0.17042908 
   24600   -658.43188    69.854098   -588.57778    2119.2738     117778.8    10.472245   0.18310441 
   24700   -663.61324    66.834803   -596.77844    2027.6727    107916.24    10.472245   0.21571277 
   24800   -661.46075    64.078032   -597.38272    1944.0362    109236.77    10.472245   0.19475683 
   24900   -656.81196     65.84649   -590.96547    1997.6887    116917.29    10.472245   0.21478683 
   25000   -660.15547    65.754004   -594.40147    1994.8828    111675.06    10.472245   0.18214693 
   25100    -664.0504    62.344178   -601.70622    1891.4335    106064.48    10.472245   0.17040842 
   25200   -665.07572    71.989983   -593.08574    2184.0735    109548.81    10.472245   0.18723294 
   25300   -654.15892    72.322715    -581.8362    2194.1681    123083.33    10.472245   0.21544777 
   25400   -663.62915     68.17018   -595.45897    2068.1861    110501.18    10.472245   0.15571142 
   25500   -664.41019    63.472035   -600.93816    1925.6511    106840.02    10.472245   0.17444814 
   25600    -654.0254    63.954257   -590.07114     1940.281    120990.99    10.472245   0.23435625 
   25700   -659.03571    65.689082   -593.34663    1992.9131    115836.63    10.472245   0.20262663 
   25800   -663.95022    67.194756   -596.75546    2038.5932    108756.27    10.472245   0.17301133 
   25900   -659.19149    61.359042   -597.83245    1861.5459    113715.91    10.472245   0.19697275 
   26000     -657.714    70.758861   -586.95513     2146.723    118544.25    10.472245   0.18883542 
   26100   -665.87009    67.453081   -598.41701    2046.4304    106463.32    10.472245   0.17678315 
   26200    -664.0908    66.278206    -597.8126    2010.7863    108001.25    10.472245   0.16464903 
   26300   -658.04459    67.747592     -590.297    2055.3654    116832.52    10.472245   0.18544308 
   26400   -659.98089    66.099935   -593.88095    2005.3778     112273.7    10.472245   0.18831986 
   26500   -667.73981    66.889495   -600.85032     2029.332    102491.39    10.472245   0.17399857 
   26600   -660.24129    67.732827   -592.50847    2054.9175    115173.69    10.472245   0.17652518 
   26700   -655.55688    72.049126   -583.50776    2185.8678    120447.61    10.472245   0.24468412 
   26800   -662.04169    63.355209   -598.68648    1922.1068     109077.3    10.472245   0.20345831 
   26900   -662.47317    67.110707   -595.36246    2036.0432    111250.06    10.472245   0.20447145 
   27000   -660.58521    69.965288   -590.61992    2122.6471    113585.33    10.472245   0.19456531 
   27100   -667.20741    65.655682   -601.55173    1991.8998    105031.77    10.472245   0.16935366 
   27200   -660.95219    68.135058   -592.81713    2067.1206    112718.22    10.472245   0.19476266 
   27300   -658.70479    61.045482   -597.65931    1852.0329    114465.21    10.472245   0.19340356 
   27400   -663.76245    61.583794   -602.17865    1868.3646    108562.68    10.472245     0.167371 
   27500   -666.63823    74.808055   -591.83017    2269.5698     107260.7    10.472245   0.15740016 
   27600   -662.01453    64.314617   -597.69991    1951.2139    109898.01    10.472245   0.16012526 
   27700   -667.04531    59.942683   -607.10263    1818.5756    104213.03    10.472245   0.15410827 
   27800   -665.05593    61.435295   -603.62064    1863.8593    106305.57    10.472245    0.1548492 
   27900   -663.32678    68.541065   -594.78572    2079.4383    108318.32    10.472245   0.16873302 
   28000   -663.11827    66.242766   -596.87551    2009.7111    108812.71    10.472245   0.17082616 
   28100    -669.7777    64.773422   -605.00427    1965.1333    101492.62    10.472245   0.15692626 
   28200   -657.43432    61.659079   -595.77524    1870.6486     116855.8    10.472245   0.19696876 
   28300   -664.02103     67.52429   -596.49674    2048.5907    109120.12    10.472245   0.15760617 
   28400   -669.13333    61.543143   -607.59018    1867.1313    101316.05    10.472245   0.13802929 
   28500   -664.85697     65.86132   -598.99565    1998.1386    109031.66    10.472245   0.17994093 
   28600   -662.46805    69.528001   -592.94005    2109.3805    111645.95    10.472245     0.185019 
   28700   -659.17494    57.346412   -601.82853    1739.8084    112597.71    10.472245   0.17981672 
   28800   -667.76521     68.56828   -599.19693    2080.2639    103723.93    10.472245   0.15241447 
   28900   -660.79375    70.176305   -590.61744    2129.0491    113098.19    10.472245   0.20217675 
   29000   -660.36319    59.308633   -601.05456    1799.3394    110901.88    10.472245   0.19914157 
   29100    -666.8526    71.551833   -595.30077    2170.7807    106887.57    10.472245   0.15791263 
   29200   -656.92912    74.461479   -582.46765    2259.0552    119887.48    10.472245   0.23748233 
   29300   -668.02751    69.745327   -598.28218    2115.9739    102977.77    10.472245   0.17992893 
   29400    -661.1976    65.570453   -595.62714    1989.3141     111140.4    10.472245   0.18527641 
   29500   -663.06289    69.889326   -593.17356    2120.3426    110490.75    10.472245   0.19500092 
   29600   -667.86884    64.391885   -603.47695    1953.5581    103852.61    10.472245   0.15394015 
   29700   -661.33589    69.058335   -592.27755    2095.1315     113204.5    10.472245   0.17937846 
   29800   -661.41741    65.250536   -596.16688    1979.6083    111849.64    10.472245   0.17895526 
   29900   -665.48819    62.136699   -603.35149    1885.1389    105747.88    10.472245   0.18434399 
   30000   -660.50516    67.933497   -592.57166    2061.0055    115287.55    10.472245   0.18536103 
   30100   -661.24182    65.334983   -595.90684    1982.1703    111375.15    10.472245   0.16710836 
   30200   -664.84431    63.554541   -601.28976    1928.1542    104831.69    10.472245   0.16164062 
   30300   -660.33836    63.502776   -596.83558    1926.5837    111869.51    10.472245   0.17523993 
   30400   -662.13948    66.096703   -596.04277    2005.2798    110544.15    10.472245   0.17795681 
   30500   -663.55075    62.284007   -601.26675     1889.608    108367.19    10.472245   0.18587343 
   30600   -666.53867    64.172688   -602.36598    1946.9079    105023.37    10.472245   0.17387655 
   30700   -661.20802    68.441401   -592.76662    2076.4146    111854.85    10.472245   0.21026064 
   30800   -658.73251    57.686773   -601.04574    1750.1345    112126.12    10.472245   0.19165188 
   30900   -665.41708    65.719155   -599.69792    1993.8255     105689.2    10.472245   0.14925829 
   31000   -660.60623    69.337338    -591.2689    2103.5961    113507.53    10.472245    0.1724347 
   31100   -663.90033    62.309896   -601.59043    1890.3935    106565.93    10.472245   0.15715443 
   31200   -664.95106    69.474628   -595.47643    2107.7612     106178.2    10.472245   0.16451923 
   31300   -656.79563    69.943245   -586.85239    2121.9784    117812.17    10.472245   0.24873149 
   31400   -666.99698    69.138156   -597.85883    2097.5531    105117.13    10.472245   0.16065975 
   31500     -658.843    59.173912   -599.66908    1795.2522    114682.91    10.472245   0.17168276 
   31600   -659.65451    73.742761   -585.91175    2237.2503    117110.84    10.472245   0.17709249 
   31700   -656.73462    62.863217   -593.87141    1907.1804     115685.6    10.472245   0.22479843 
   31800   -664.89276    66.097248   -598.79551    2005.2963    108614.12    10.472245   0.15809554 
   31900   -671.02499    63.280143   -607.74484    1919.8294    99247.378    10.472245   0.14696635 
   32000   -660.36991    66.718695   -593.65122    2024.1501    113227.06    10.472245   0.19231262 
   32100   -661.38923    65.122386   -596.26684    1975.7204    112695.16    10.472245   0.17756806 
   32200   -666.33645    64.585627   -601.75083    1959.4359    104720.99    10.472245   0.17946547 
   32300   -662.40539    67.030504   -595.37489      2033.61    109955.72    10.472245   0.17228223 
   32400   -662.05019    62.266194     -599.784    1889.0676    109823.06    10.472245   0.19004278 
   32500   -664.93299    70.677131   -594.25586    2144.2434    109258.39    10.472245   0.18310026 
   32600   -657.68801    65.666684   -592.02133    1992.2336    116400.62    10.472245    0.1938917 
   32700   -661.95424    62.548182   -599.40606    1897.6227     110037.5    10.472245   0.20002078 
   32800   -660.23871    65.819257   -594.41945    1996.8625    113964.13    10.472245   0.19683741 
   32900   -657.18251     72.84491    -584.3376    2210.0108    119453.88    10.472245    0.1950534 
   33000   -663.48007     64.65503   -598.82504    1961.5415    108642.85    10.472245   0.16781135 
   33100   -662.26765    64.884929   -597.38273    1968.5163    109874.35    10.472245   0.17474126 
   33200   -655.70376    66.252042   -589.45172    2009.9925     118025.7    10.472245   0.19920971 
   33300    -664.1798    62.181861   -601.99794    1886.5091    109163.39    10.472245   0.16582391 
   33400   -664.72043    66.704055   -598.01638     2023.706    108301.66    10.472245   0.18884259 
   33500   -661.18007    70.286054   -590.89402    2132.3787     113593.9    10.472245   0.17930411 
   33600   -664.63564    66.464458   -598.17119    2016.4369     106766.1    10.472245   0.19338209 
   33700   -661.88137     66.11357    -595.7678    2005.7915    110750.08    10.472245   0.17799605 
   33800    -653.1995    66.679036   -586.52047    2022.9469    123634.17    10.472245   0.22526211 
   33900   -658.44516    60.919982   -597.52518    1848.2255     113471.1    10.472245   0.17921498 
   34000   -658.73394    61.254666   -597.47928    1858.3793    113949.83    10.472245   0.20274866 
   34100   -654.24328    66.262799   -587.98048    2010.3189    120062.11    10.472245   0.21198689 
   34200   -662.08976    59.923188   -602.16658    1817.9841    110038.09    10.472245   0.16517252 
   34300   -660.07313    65.636338    -594.4368     1991.313     112000.1    10.472245   0.20203715 
   34400   -661.92144    68.641158   -593.28029    2082.4749    111603.64    10.472245   0.17173368 
   34500   -663.76274     62.96663   -600.79611    1910.3178    108597.81    10.472245   0.16154506 
   34600    -660.9031    64.981493    -595.9216    1971.4459    112047.34    10.472245   0.18489854 
   34700   -659.49484    71.847591   -587.64725    2179.7535    117016.33    10.472245    0.1904902 
   34800   -663.22511    67.135712    -596.0894    2036.8019    109846.88    10.472245   0.21482325 
   34900   -665.48507    66.867777    -598.6173    2028.6731    106202.68    10.472245   0.17846099 
   35000   -652.70256    64.165698   -588.53686    1946.6959    121967.99    10.472245   0.19489924 
   35100   -666.48526    66.482792   -600.00247    2016.9932    105005.47    10.472245   0.17160145 
   35200   -668.59456     69.85475   -598.73981    2119.2936    103401.04    10.472245   0.15773606 
   35300   -656.75675    67.933363   -588.82339    2061.0014    118343.55    10.472245   0.20497337 
   35400   -665.44515    67.097498   -598.34765    2035.6425    106472.76    10.472245   0.18385326 
   35500   -666.54997    66.317861   -600.23211    2011.9894     105273.9    10.472245   0.18588078 
   35600    -659.1444    68.745315   -590.39909    2085.6349    114631.41    10.472245   0.17977359 
   35700   -663.47668    64.305889   -599.17079     1950.949     108336.4    10.472245   0.16406416 
   35800   -665.91443    66.147531    -599.7669    2006.8218    105527.51    10.472245   0.19153853 
   35900   -660.47956     68.09342   -592.38614    2065.8574    113841.93    10.472245   0.16476333 
   36000   -665.59382    63.257264   -602.33656    1919.1353    103651.59    10.472245   0.15485098 
   36100   -661.36096    64.147554   -597.21341    1946.1454    111631.62    10.472245   0.19236705 
   36200   -660.93373    65.616748   -595.31698    1990.7186    113252.55    10.472245   0.20433714 
   36300    -666.0384    64.611528   -601.42687    1960.2217    104769.09    10.472245   0.14820652 
   36400   -662.93203    64.412984   -598.51905    1954.1982    109761.69    10.472245   0.20271895 
   36500    -661.7057    68.630069   -593.07563    2082.1385    112559.31    10.472245   0.16459201 
   36600   -666.22865    63.846379   -602.38228    1937.0082    104894.35    10.472245    0.1663594 
   36700   -665.06882    71.375292   -593.69353    2165.4247    108261.71    10.472245   0.15753616 
   36800   -657.40485    65.692739   -591.71212    1993.0241    119287.59    10.472245   0.19082493 
   36900   -662.66898     61.79453   -600.87445     1874.758    109149.81    10.472245   0.16175237 
   37000     -664.163    65.182542   -598.98046    1977.5454    109135.69    10.472245   0.16197014 
   37100   -660.66896    69.943616   -590.72534    2121.9897    113594.73    10.472245   0.19838008 
   37200   -665.01525    63.250118   -601.76513    1918.9185    106022.52    10.472245   0.16064267 
   37300   -664.82262    66.809715   -598.01291    2026.9116    109302.37    10.472245   0.16186911 
   37400   -658.72915    66.682267   -592.04688     2023.045    115043.05    10.472245   0.18643443 
   37500   -659.06277    72.264152   -586.79862    2192.3914    115548.96    10.472245   0.17440862 
   37600   -665.64797    67.026301   -598.62167    2033.4825    105673.31    10.472245   0.16303307 
   37700   -663.55723    65.928882   -597.62835    2000.1884    109548.83    10.472245   0.17600975 
   37800   -653.92061    66.652338   -587.26827     2022.137    121555.33    10.472245   0.24475951 
   37900   -663.78243    64.360281   -599.42215    1952.5992    108180.18    10.472245   0.19977031 
   38000   -660.20065    62.043079   -598.15757    1882.2986    111745.62    10.472245   0.21640549 
   38100   -657.98529    64.882083    -593.1032    1968.4299    116151.48    10.472245   0.23651669 
   38200   -665.20777    64.395527   -600.81224    1953.6685    105044.67    10.472245   0.18479929 
   38300   -663.62636    64.567858    -599.0585    1958.8968    109316.85    10.472245   0.16109948 
   38400   -656.30507    63.909414   -592.39566    1938.9206    118665.22    10.472245   0.21625146 
   38500   -663.43817    67.728175   -595.70999    2054.7763    108493.67    10.472245   0.18196362 
   38600   -658.95733    62.770535    -596.1868    1904.3686    114319.12    10.472245   0.20066811 
   38700   -659.24029    66.245778   -592.99452    2009.8025    115134.26    10.472245   0.17701917 
   38800   -661.50964    64.446535   -597.06311    1955.2161    111612.29    10.472245   0.16144605 
   38900   -667.33069    65.030103   -602.30059    1972.9207    104019.09    10.472245   0.15662423 
   39000    -660.4303    70.615155   -589.81515    2142.3632    114472.31    10.472245   0.18231631 
   39100   -660.65015    65.379082   -595.27106    1983.5082     112589.1    10.472245   0.17006628 
   39200   -662.59273    64.369411   -598.22332    1952.8762    109862.33    10.472245   0.18758478 
   39300    -663.9504    72.255544   -591.69486    2192.1303    109541.07    10.472245   0.15314401 
   39400   -653.85882    62.943646   -590.91518    1909.6205    120531.51    10.472245   0.21110496 
   39500   -661.87439    61.513906   -600.36049    1866.2443    109298.92    10.472245   0.17670159 
   39600   -662.22977    68.297389   -593.93239    2072.0455    110982.02    10.472245   0.17841305 
   39700   -658.02657    72.147299   -585.87927    2188.8462    117676.03    10.472245   0.19194668 
   39800   -659.79933    64.360681   -595.43865    1952.6114    112585.24    10.472245   0.19219426 
   39900   -664.63983    62.407161   -602.23267    1893.3443    105351.21    10.472245   0.14888418 
   40000   -666.56817    60.210273   -606.35789    1826.6939    103245.83    10.472245   0.14877125 
   40100   -660.83206     66.61958   -594.21248    2021.1431    111919.38    10.472245    0.1797043 
   40200   -659.69717    62.169631   -597.52754     1886.138    111645.43    10.472245   0.18561698 
   40300    -669.3327    63.805568   -605.52714      1935.77     100060.1    10.472245   0.15889617 
   40400   -664.37876    67.648617   -596.73014    2052.3627    107789.19    10.472245   0.19975826 
   40500   -662.00233    66.755473   -595.24686    2025.2659    111029.38    10.472245   0.18321399 
   40600   -666.09764    60.681642   -605.41599    1840.9946    103430.47    10.472245   0.19022262 
   40700    -662.2238    67.094445   -595.12935    2035.5498    111635.57    10.472245    0.1929015 
   40800   -667.53979    70.848434   -596.69135    2149.4405    105786.32    10.472245   0.18139509 
   40900   -667.35181    65.119992   -602.23181    1975.6478    104122.51    10.472245    0.1766246 
   41000   -664.69342    63.290704   -601.40272    1920.1498    105426.83    10.472245   0.20474967 
   41100   -662.49423    70.830458   -591.66377    2148.8952    109968.19    10.472245   0.16855708 
   41200   -665.94185    65.917292   -600.02456    1999.8367    106069.94    10.472245   0.18576823 
   41300   -660.55227    70.699109   -589.85316    2144.9102    113381.32    10.472245   0.17863694 
   41400   -666.30919    73.228413   -593.08077    2221.6457    105915.28    10.472245   0.15443675 
   41500   -661.98131    61.757777   -600.22354     1873.643     109557.9    10.472245   0.18034834 
   41600   -662.32945    69.736608   -592.59284    2115.7093    111365.08    10.472245    0.1991473 
   41700   -659.28356    71.040923   -588.24264    2155.2804    115657.24    10.472245   0.17488599 
   41800   -662.29205    65.674634   -596.61742    1992.4748     111082.8    10.472245   0.17907052 
   41900   -665.05733    64.978166   -600.07917     1971.345    106741.76    10.472245   0.15228596 
   42000   -664.03786    65.052944   -598.98491    1973.6136    108423.52    10.472245   0.16129799 
   42100   -657.94869    68.340657   -589.60804    2073.3582    116070.32    10.472245   0.18625443 
   42200   -666.10946    64.748028   -601.36143    1964.3629    107342.92    10.472245   0.18561977 
   42300    -659.4935    61.925105   -597.56839    1878.7195    112688.85    10.472245   0.19161676 
   42400   -655.82226    70.595633   -585.22663    2141.7709    120562.68    10.472245   0.20643144 
   42500   -659.94136    68.153794   -591.78756     2067.689    112861.35    10.472245   0.19205911 
   42600   -664.36694    64.692391   -599.67455     1962.675    107534.55    10.472245   0.17024007 
   42700    -664.8662    70.633439   -594.23277    2142.9179    107647.87    10.472245    0.1759164 
   42800   -658.13904    67.215835   -590.92321    2039.2327     117047.6    10.472245   0.19814627 
   42900   -665.06435    66.908674   -598.15568    2029.9138    107700.64    10.472245   0.18288473 
   43000   -663.14634    68.562853   -594.58349    2080.0993    109466.74    10.472245   0.18367654 
   43100    -658.8805    74.286604    -584.5939    2253.7497    118014.32    10.472245   0.18277378 
   43200   -660.74968    65.398194   -595.35148     1984.088    112651.58    10.472245    0.1943632 
   43300   -664.28302    64.547509   -599.73551    1958.2795    107260.64    10.472245    0.1856804 
   43400   -660.01622    66.570405   -593.44582    2019.6512    113427.35    10.472245   0.17992279 
   43500   -657.82371    64.263434   -593.56027     1949.661    115832.24    10.472245   0.21766996 
   43600    -666.5931    64.138009   -602.45509    1945.8558    103580.78    10.472245   0.20777515 
   43700    -663.0912     67.73542   -595.35578    2054.9961    109221.05    10.472245   0.21531131 
   43800   -660.16447    66.231005   -593.93347    2009.3543    113383.11    10.472245   0.17488548 
   43900   -669.57207    62.813745   -606.75832    1905.6795    100424.78    10.472245   0.14835011 
   44000   -662.10878    64.745547   -597.36323    1964.2876    110216.46    10.472245   0.17864143 
   44100   -658.80858    63.038099   -595.77048    1912.4861    114934.88    10.472245   0.18429925 
   44200   -672.14674     64.50594    -607.6408    1957.0183    98174.746    10.472245   0.16232815 
   44300   -666.42189    66.912002   -599.50988    2030.0148    104895.34    10.472245   0.17597364 
   44400   -664.04762    69.573995   -594.47362    2110.7759    107872.95    10.472245   0.17950228 
   44500   -662.72516    66.983181   -595.74198    2032.1743    109494.34    10.472245   0.16391369 
   44600   -668.15754    63.624304   -604.53323    1930.2707    101971.24    10.472245   0.16435563 
   44700     -658.655    66.570017   -592.08498    2019.6395    116981.79    10.472245   0.18456878 
   44800    -668.6472     73.12219   -595.52501    2218.4231    103780.73    10.472245   0.15544449 
   44900   -662.30483    60.120592   -602.18424    1823.9731    107913.14    10.472245   0.19324028 
   45000   -658.07688    69.347922   -588.72896    2103.9171    118372.78    10.472245    0.1995295 
   45100   -666.14328    67.608308   -598.53498    2051.1397    104894.02    10.472245   0.14609766 
   45200   -661.30099    59.787722   -601.51327    1813.8743    109890.99    10.472245   0.17860709 
   45300   -661.85756    68.105408   -593.75215    2066.2211    112180.58    10.472245   0.19115591 
   45400   -663.26515    67.836534   -595.42861    2058.0638    107908.54    10.472245   0.17835488 
   45500   -664.75195    62.184083   -602.56787    1886.5765    106774.72    10.472245   0.18770582 
   45600   -661.13687    64.776599   -596.36027    1965.2297    110065.76    10.472245    0.2109084 
   45700    -662.0509    68.701974   -593.34893      2084.32    111785.06    10.472245   0.17949356 
   45800   -666.90112    63.862397   -603.03872    1937.4941    103662.81    10.472245   0.15338274 
   45900     -663.006    62.908586   -600.09741    1908.5569    108156.41    10.472245   0.18769816 
   46000   -661.69432    67.920333   -593.77399    2060.6061    111448.19    10.472245   0.17342794 
   46100   -661.14088    68.841338   -592.29954    2088.5481    113305.32    10.472245   0.17217651 
   46200   -666.00212    63.012565   -602.98956    1911.7114    105875.19    10.472245   0.17014366 
   46300   -660.15878    66.176734   -593.98205    2007.7078    112662.37    10.472245   0.18897913 
   46400   -658.77762    63.314537   -595.46308    1920.8729    114266.15    10.472245   0.17861785 
   46500   -663.26836    63.603904   -599.66446    1929.6518    109354.74    10.472245   0.16681856 
   46600   -662.25968    66.006244   -596.25344    2002.5354    111341.13    10.472245   0.18362525 
   46700   -658.73529    68.246441   -590.48885    2070.4998    116101.11    10.472245   0.20464905 
   46800   -664.54703    62.176742   -602.37029    1886.3538    106561.95    10.472245   0.16846054 
   46900   -661.97209    64.959842   -597.01225    1970.7891    110831.49    10.472245   0.17418773 
   47000   -659.29621    64.359598   -594.93661    1952.5785    113510.46    10.472245   0.20597569 
   47100   -659.95061    62.299674   -597.65093    1890.0834    114338.38    10.472245   0.16271411 
   47200   -662.97179    61.811138   -601.16065    1875.2619     109183.7    10.472245   0.16468041 
   47300   -655.99505    66.112136   -589.88291     2005.748    118062.67    10.472245   0.20851505 
   47400   -663.01427    65.412182   -597.60209    1984.5124    109065.78    10.472245   0.17561329 
   47500   -665.21836    65.812494   -599.40587    1996.6573    106627.79    10.472245   0.16617233 
   47600   -663.23594    70.213603   -593.02234    2130.1807    110485.78    10.472245   0.17666859 
   47700   -659.32902    72.842723    -586.4863    2209.9444    116732.57    10.472245   0.20998589 
   47800   -664.50953    65.014832   -599.49469    1972.4574    107543.06    10.472245   0.15550142 
   47900   -665.17119    65.735029   -599.43616    1994.3071    107125.98    10.472245   0.16579323 
   48000   -656.34344     67.51149   -588.83195    2048.2024    118328.89    10.472245   0.22415422 
   48100   -658.23535     58.77978   -599.45557    1783.2948    112785.37    10.472245   0.20720536 
   48200   -663.14719    64.820124   -598.32706    1966.5502    108962.07    10.472245    0.2199183 
   48300   -662.64054    70.848605   -591.79194    2149.4457       110713    10.472245   0.18551915 
   48400   -667.70384    60.872111   -606.83173    1846.7731    100887.39    10.472245   0.17093316 
   48500   -664.09955     64.87852   -599.22103    1968.3218    107005.63    10.472245   0.19472579 
   48600     -663.227    70.856064   -592.37094     2149.672     109104.5    10.472245   0.16055293 
   48700   -666.50334    63.266159   -603.23718    1919.4051    102961.68    10.472245   0.17312998 
   48800   -660.14265    60.945581   -599.19707    1849.0021     113266.6    10.472245   0.18083616 
   48900   -660.32703    65.683464   -594.64356    1992.7427    111998.08    10.472245   0.18656879 
   49000   -661.60428    65.933729   -595.67056    2000.3354    111581.79    10.472245   0.20352686 
   49100   -663.68625    64.198199   -599.48805    1947.6819    108288.47    10.472245   0.18224102 
   49200   -665.19277    70.506625   -594.68615    2139.0705    108471.51    10.472245   0.16297199 
   49300   -659.20519    66.548141   -592.65705    2018.9758    114387.39    10.472245   0.20696317 
   49400   -664.04992    61.468218    -602.5817    1864.8582    107290.08    10.472245    0.1747861 
   49500   -666.37528    71.432555   -594.94272    2167.1619    106057.19    10.472245   0.16402115 
   49600   -655.87112    60.852594   -595.01853     1846.181    118571.39    10.472245    0.2084008 
   49700   -658.49108    62.535085   -595.95599    1897.2254    114939.84    10.472245   0.19607536 
   49800   -665.54671    63.788247   -601.75846    1935.2445    105892.72    10.472245    0.1727732 
   49900   -668.26932    67.742473   -600.52685    2055.2101    103344.56    10.472245   0.16309711 
   50000   -662.50363    70.211761   -592.29187    2130.1248    110769.54    10.472245   0.19368178 
   50100   -662.64967    59.171456   -603.47821    1795.1777    108526.17    10.472245   0.18943774 
   50200   -668.01618    66.557147   -601.45903     2019.249    103122.03    10.472245   0.15592945 
   50300   -658.41585    63.778568   -594.63728    1934.9509    114626.67    10.472245   0.20796546 
   50400   -660.41097     65.50238   -594.90859    1987.2489    112783.86    10.472245   0.18697845 
   50500   -666.96503    62.220819   -604.74421     1887.691    103693.95    10.472245   0.16453685 
   50600   -660.06862    65.855889   -594.21273    1997.9739    114093.41    10.472245   0.16958652 
   50700   -658.71254    59.886802   -598.82573    1816.8803    115203.86    10.472245   0.19044351 
   50800   -664.91974    57.334409   -607.58533    1739.4443    105481.72    10.472245   0.17802838 
   50900   -661.10847    63.368084   -597.74039    1922.4974    111261.28    10.472245   0.19183986 
   51000    -661.7003    68.114312   -593.58599    2066.4912    112438.46    10.472245   0.19957577 
   51100   -666.07866    61.061967   -605.01669    1852.5331    105188.76    10.472245   0.18442523 
   51200   -662.44331    65.079983   -597.36333     1974.434    110713.57    10.472245   0.17374116 
   51300   -662.23722    66.250562   -595.98666    2009.9477    110515.42    10.472245   0.17760106 
   51400   -662.30838    64.706335   -597.60204     1963.098    110176.63    10.472245   0.18276011 
   51500   -662.84374    62.854196   -599.98954    1906.9067    108760.44    10.472245   0.17590027 
   51600   -656.17024    66.576698   -589.59355    2019.8422    117583.87    10.472245   0.20923217 
   51700   -656.85286    60.857073   -595.99578    1846.3169    116134.42    10.472245   0.21101106 
   51800   -664.93554    66.293968   -598.64157    2011.2645    107320.75    10.472245   0.17878973 
   51900   -658.83955    65.789603   -593.04995    1995.9628    115177.75    10.472245   0.20887566 
   52000   -653.33558    63.116449   -590.21913    1914.8631     122534.9    10.472245   0.23026594 
   52100    -666.6575    65.031534   -601.62597    1972.9641    103937.32    10.472245   0.16759184 
   52200   -664.71216    71.716447   -592.99571    2175.7748    107982.02    10.472245   0.14990755 
   52300   -661.03052    66.374855   -594.65566    2013.7185    112196.22    10.472245   0.19164074 
   52400   -661.29704      58.5499   -602.74714    1776.3205    109631.94    10.472245   0.17692453 
   52500   -660.27884    67.591236    -592.6876    2050.6218    112688.63    10.472245   0.18430735 
   52600   -663.03512    62.082347   -600.95277      1883.49    108595.92    10.472245   0.18370117 
   52700   -662.84722     61.56391   -601.28331    1867.7613    109395.87    10.472245    0.1675221 
   52800    -663.4773    66.614733   -596.86256    2020.9961     109024.7    10.472245   0.18412209 
   52900   -661.38545    67.004187   -594.38126    2032.8116    111476.35    10.472245   0.17557389 
   53000   -657.62088    66.724194   -590.89669     2024.317    115529.56    10.472245   0.19604406 
   53100   -667.73615    66.256267   -601.47988    2010.1207    103170.05    10.472245   0.15689585 
   53200   -668.03234    74.237744    -593.7946    2252.2674    106128.75    10.472245   0.16103184 
   53300   -657.10537    66.297397   -590.80797    2011.3686    117401.29    10.472245    0.2193575 
   53400   -662.34572    62.240858   -600.10486     1888.299    109546.94    10.472245   0.16111419 
   53500    -663.5586    64.154006    -599.4046    1946.3411    108737.39    10.472245   0.16051501 
   53600   -662.03383    65.799493   -596.23433    1996.2629    111732.77    10.472245   0.16643194 
   53700   -661.15393    65.481005   -595.67292    1986.6004    111389.32    10.472245   0.19628238 
   53800   -657.37335    69.138157    -588.2352    2097.5532    117514.54    10.472245   0.24031069 
   53900   -666.99014    66.156599   -600.83355     2007.097    104324.81    10.472245     0.174408 
   54000   -665.08896    67.227614   -597.86135      2039.59    108849.85    10.472245   0.16123958 
   54100   -654.98413    69.169355   -585.81477    2098.4997    120084.13    10.472245   0.19360691 
   54200   -665.65959    66.461337   -599.19825    2016.3423     107600.5    10.472245   0.15154446 
   54300   -662.71273    62.225471   -600.48726    1887.8321    109224.71    10.472245   0.17970236 
   54400   -662.08342    71.540516   -590.54291    2170.4373    112143.03    10.472245   0.18180868 
   54500   -658.76558    61.954156   -596.81143    1879.6008    113350.18    10.472245   0.20088577 
   54600    -664.8098    67.501541   -597.30826    2047.9006    106210.26    10.472245   0.16883765 
   54700   -658.84093    61.196747   -597.64418    1856.6221     113214.4    10.472245   0.19482263 
   54800   -660.28235    63.411632   -596.87071    1923.8186       112370    10.472245   0.19273602 
   54900    -658.0459    68.158986   -589.88691    2067.8465    117072.72    10.472245   0.18484691 
   55000   -665.66578    63.584201   -602.08158    1929.0541    105683.23    10.472245   0.16721967 
   55100   -659.84785     62.06008   -597.78777    1882.8144     113828.1    10.472245   0.19344751 
   55200   -658.91634    63.425105   -595.49123    1924.2273    115748.02    10.472245    0.1709885 
   55300   -664.98079    66.044843   -598.93595    2003.7064    107658.55    10.472245   0.16681716 
   55400   -668.40596    64.983298   -603.42266    1971.5007     102211.7    10.472245   0.14571483 
   55500   -666.16321    68.915873   -597.24733    2090.8094     106190.9    10.472245   0.17708985 
   55600   -663.38098    72.042868   -591.33811     2185.678    111165.22    10.472245   0.18511553 
   55700   -667.24356    64.249066   -602.99449    1949.2251    103579.93    10.472245    0.1794238 
   55800   -662.91081    65.211937   -597.69888    1978.4372    110035.34    10.472245   0.19412092 
   55900   -663.60947    68.589996   -595.01948    2080.9227    108697.16    10.472245   0.18000846 
   56000   -668.02754     59.95343   -608.07411    1818.9016    101006.23    10.472245   0.15532207 
   56100   -664.03885    67.269198   -596.76965    2040.8516     108194.6    10.472245   0.15962948 
   56200    -662.0749    66.638679   -595.43623    2021.7226     110920.6    10.472245   0.17001483 
   56300   -666.99943    60.764347   -606.23508    1843.5037    103907.72    10.472245   0.16531829 
   56400   -665.94251    70.591784   -595.35072    2141.6541    107575.17    10.472245   0.16714746 
   56500   -658.21219    63.359547   -594.85264    1922.2384    114119.08    10.472245   0.23458592 
   56600   -663.52618    65.641213   -597.88497    1991.4609    109073.41    10.472245   0.20403093 
   56700    -665.2143    62.258654   -602.95564    1888.8389    105192.58    10.472245   0.17548407 
   56800   -660.95558    69.471128   -591.48445     2107.655    111999.08    10.472245   0.17554856 
   56900   -660.32684    61.575883   -598.75095    1868.1246    111062.13    10.472245   0.21234623 
   57000   -668.25106    68.623725   -599.62733    2081.9461    103001.17    10.472245   0.18082147 
   57100   -660.71702    66.099786   -594.61723    2005.3733    113660.04    10.472245   0.18021943 
   57200   -658.95761    63.999682   -594.95793    1941.6591    115890.51    10.472245   0.20321385 
   57300   -666.05647    60.605169   -605.45131    1838.6745    105067.74    10.472245   0.19403541 
   57400   -665.02994    68.853791   -596.17615    2088.9259    107934.28    10.472245   0.17282805 
   57500   -659.23447    64.175807   -595.05867    1947.0026    113848.86    10.472245   0.17802089 
   57600   -667.93553    64.902229    -603.0333    1969.0412    101756.96    10.472245   0.16023088 
   57700   -660.31953    62.594736    -597.7248    1899.0351    113904.34    10.472245   0.18949783 
   57800   -656.65796    64.543677   -592.11428    1958.1632    118574.68    10.472245   0.22023698 
   57900   -664.37093    63.351373   -601.01956    1921.9904    107059.59    10.472245   0.17916915 
   58000   -671.26393    64.152076   -607.11185    1946.2826    98473.584    10.472245   0.14600676 
   58100   -662.07424    67.451224   -594.62302     2046.374    111043.61    10.472245   0.19252289 
   58200   -660.61079    67.536202   -593.07459    2048.9521    113796.63    10.472245   0.20347886 
   58300   -663.52148    59.567277    -603.9542    1807.1863    106160.14    10.472245   0.19078789 
   58400   -659.85774    63.301453   -596.55629    1920.4759    112736.36    10.472245   0.19555186 
   58500    -662.3235    67.383075   -594.94042    2044.3065     110656.3    10.472245   0.17682453 
   58600   -666.02221    66.318784   -599.70343    2012.0174    105422.11    10.472245   0.14411895 
   58700   -663.74969    58.631569   -605.11812    1778.7983    107761.98    10.472245   0.16706715 
   58800   -663.24337    66.858644   -596.38472     2028.396    109186.81    10.472245   0.18676427 
   58900   -662.45308    65.104333   -597.34875    1975.1727    109437.31    10.472245   0.20815743 
   59000   -666.52312    60.604726    -605.9184    1838.6611    102279.05    10.472245   0.18342375 
   59100   -660.20715    66.156726   -594.05043    2007.1008    113877.84    10.472245   0.19178402 
   59200   -665.50711    67.832011    -597.6751    2057.9266    106559.92    10.472245   0.18854206 
   59300   -670.45745    63.685589   -606.77186      1932.13    98950.957    10.472245   0.18641793 
   59400   -665.67336    61.389351   -604.28401    1862.4654    106607.67    10.472245   0.18534305 
   59500   -662.78229    67.785618   -594.99667    2056.5191    111167.25    10.472245   0.16272986 
   59600   -663.21189    68.212082    -594.9998    2069.4574    110104.44    10.472245   0.19514603 
   59700   -665.59212     64.11871   -601.47341    1945.2703    105742.62    10.472245   0.18683879 
   59800   -665.10784    68.704792   -596.40305    2084.4055    107467.02    10.472245   0.16922522 
   59900   -663.62406    71.037104   -592.58695    2155.1645    110149.46    10.472245    0.1827804 
   60000   -669.27166    67.305085   -601.96658    2041.9404    101254.14    10.472245   0.14736592 
   60100   -658.59295    67.159591   -591.43335    2037.5263    116239.83    10.472245   0.21102483 
   60200   -658.99201    65.972104    -593.0199    2001.4996    115706.98    10.472245   0.22170498 
   60300   -666.92779    66.693831   -600.23396    2023.3958    102810.03    10.472245   0.17845698 
   60400    -658.0717    69.831355   -588.24034    2118.5838    118121.63    10.472245   0.18987955 
   60500   -660.11307    68.478186   -591.63488    2077.5306    114704.95    10.472245   0.16937982 
   60600   -661.39353    62.988581   -598.40495    1910.9838    110590.03    10.472245   0.21083651 
   60700   -660.75207    66.241523   -594.51055    2009.6734     110844.4    10.472245   0.19553537 
   60800   -660.00632    71.110491   -588.89583     2157.391    115484.56    10.472245   0.18009919 
   60900   -659.86856    59.032334   -600.83623    1790.9569    110412.09    10.472245   0.17143458 
   61000   -658.70499    65.439905   -593.26508    1985.3535    114586.29    10.472245   0.17239314 
   61100   -661.14872    73.184725     -587.964    2220.3203    113185.19    10.472245   0.21008483 
   61200   -659.09495    59.494995   -599.59995    1804.9934    113667.34    10.472245   0.22134195 
   61300   -663.92827    66.073783   -597.85449    2004.5844    108697.21    10.472245   0.18309028 
   61400   -658.75087    69.278989   -589.47188    2101.8258    116845.25    10.472245   0.20505208 
   61500   -668.37921    67.126733   -601.25247    2036.5294    101469.38    10.472245   0.18184777 
   61600   -661.92157    64.237174   -597.68439    1948.8643    110949.71    10.472245   0.17402987 
   61700   -661.17107     70.26441   -590.90665    2131.7221    111967.17    10.472245   0.18143589 
   61800   -659.19334    63.641518   -595.55183     1930.793    114651.74    10.472245   0.16293478 
   61900   -666.02511    67.216282   -598.80883    2039.2462    105294.57    10.472245   0.16496359 
   62000   -666.10495    72.851662   -593.25329    2210.2156    108067.24    10.472245   0.17341308 
   62100    -665.0632    70.018993   -595.04421    2124.2765    108664.22    10.472245    0.1539509 
   62200   -667.57345    66.766478   -600.80698    2025.5998    104097.48    10.472245   0.14844263 
   62300   -658.34311    67.682315    -590.6608     2053.385    114269.82    10.472245   0.20134678 
   62400   -655.26953    61.356263   -593.91327    1861.4616    119490.33    10.472245   0.21981813 
   62500   -665.52268    64.360431   -601.16225    1952.6038    105225.57    10.472245   0.20301602 
   62600   -658.87847    66.738767    -592.1397    2024.7591    114609.08    10.472245   0.19980042 
   62700   -660.40032    68.875539   -591.52478    2089.5857    113727.51    10.472245   0.17861719 
   62800   -671.25778     68.62627   -602.63151    2082.0233    99210.097    10.472245   0.14170643 
   62900   -659.70806      66.3781   -593.32996     2013.817    113195.93    10.472245   0.19213992 
   63000   -662.87873    69.421812   -593.45692    2106.1589    110655.69    10.472245   0.18943508 
   63100   -662.11359    65.469585   -596.64401    1986.2539    109803.03    10.472245   0.18012999 
   63200   -666.01928    64.189863   -601.82942     1947.429    105161.13    10.472245   0.19233734 
   63300    -664.5711    61.742368   -602.82874    1873.1755    106083.88    10.472245   0.17175218 
   63400   -658.74719    65.342296    -593.4049    1982.3922    114584.15    10.472245    0.2007002 
   63500   -664.50187    62.648692   -601.85317    1900.6721    105964.69    10.472245   0.17560322 
   63600   -664.58843    62.085088   -602.50334    1883.5731    107089.42    10.472245   0.17900022 
   63700   -660.12761    62.811672   -597.31594    1905.6166    112710.95    10.472245    0.1751429 
   63800   -663.21347    67.296231   -595.91724    2041.6718    108278.09    10.472245   0.20264604 
   63900   -658.53041    69.617194   -588.91321    2112.0865    116699.97    10.472245   0.19034604 
   64000   -663.44239    61.984453   -601.45794      1880.52    109654.71    10.472245   0.20002207 
   64100   -665.39988    69.570592   -595.82929    2110.6726    106682.74    10.472245   0.17537771 
   64200    -661.0859    67.494569   -593.59133    2047.6891    111904.55    10.472245   0.17859417 
   64300    -662.1469    65.273867   -596.87304    1980.3161    108380.91    10.472245    0.1690731 
   64400   -661.69124    61.340513   -600.35073    1860.9838    111461.04    10.472245   0.19436261 
   64500   -662.94256    69.861974   -593.08059    2119.5127    110194.83    10.472245   0.14716431 
   64600    -662.6569     66.89327   -595.76363    2029.4465    109184.13    10.472245   0.18760289 
   64700   -670.02688     68.75155   -601.27533    2085.8241    101331.54    10.472245   0.14695324 
   64800   -660.23407     65.27919   -594.95488    1980.4776    112557.83    10.472245   0.19090955 
   64900   -658.61937    71.943903   -586.67546    2182.6755     116741.2    10.472245   0.18619957 
   65000   -663.21248    66.218824   -596.99366    2008.9848    108629.09    10.472245   0.18790869 
   65100   -663.06742    63.077427      -599.99    1913.6793    108810.82    10.472245   0.16005267 
   65200   -656.02453    67.206831    -588.8177    2038.9595    119550.91    10.472245   0.17872083 
   65300   -666.43972    68.898142   -597.54158    2090.2715     106355.3    10.472245   0.17821701 
   65400   -662.61861    67.032784   -595.58583    2033.6792       110268    10.472245   0.18481007 
   65500   -662.92575    64.200784   -598.72497    1947.7603    109138.65    10.472245   0.20519795 
   65600   -667.62531    64.364289   -603.26102    1952.7208    102998.21    10.472245   0.17554602 
   65700   -659.06917    65.770141   -593.29903    1995.3724    113398.53    10.472245   0.21886264 
   65800   -655.69167    61.233783   -594.45788    1857.7457    117513.78    10.472245   0.22092204 
   65900   -669.12835    64.224558    -604.9038    1948.4816    101408.19    10.472245   0.17895405 
   66000   -665.77969    70.532565   -595.24713    2139.8575    105597.43    10.472245   0.17743921 
   66100   -668.36639    73.065929   -595.30046    2216.7162    104510.65    10.472245   0.15669726 
   66200   -661.57969    59.348893    -602.2308    1800.5608    110676.87    10.472245   0.18493529 
   66300   -659.88108     65.51324   -594.36784    1987.5784    112762.67    10.472245   0.18746895 
   66400   -661.98705    68.549547    -593.4375    2079.6956    112273.57    10.472245   0.19273936 
   66500   -667.40803     64.67587   -602.73216    1962.1738    103094.53    10.472245   0.15311906 
   66600   -661.63053    64.023412   -597.60712    1942.3791     110980.6    10.472245   0.17489165 
   66700   -660.76467    66.295607   -594.46906    2011.3143     113471.3    10.472245    0.1597124 
   66800   -667.19267    62.035708   -605.15696     1882.075    105322.31    10.472245   0.16435516 
   66900   -661.31335     67.16072   -594.15263    2037.5605    113463.22    10.472245   0.21245907 
   67000   -664.63586    67.233135   -597.40273    2039.7575    109219.94    10.472245   0.20264441 
   67100   -669.19221      61.9015   -607.29071    1878.0033    101126.03    10.472245   0.15608237 
   67200   -663.06561     61.18133   -601.88428    1856.1544    107343.31    10.472245   0.19210723 
   67300   -660.13374    64.795064   -595.33868    1965.7899    112245.73    10.472245   0.20331412 
   67400   -662.22555    64.498466   -597.72708    1956.7915    109858.14    10.472245   0.18201603 
   67500   -663.75643    60.379176   -603.37725    1831.8182    105803.45    10.472245   0.18543101 
   67600   -659.02198    67.500933   -591.52105    2047.8821    115502.97    10.472245   0.21200713 
   67700   -664.91186    66.466231   -598.44563    2016.4907    107544.54    10.472245   0.16609098 
   67800   -667.09469    65.213588    -601.8811    1978.4874    104462.86    10.472245   0.15264895 
   67900   -662.61891    72.721438   -589.89747    2206.2648    112601.17    10.472245     0.188823 
   68000   -662.19664    62.689438    -599.5072    1901.9082     107507.6    10.472245   0.16735198 
   68100   -662.75454      64.4935   -598.26104    1956.6409     110088.7    10.472245    0.1812725 
   68200   -667.26565    72.675225   -594.59043    2204.8628    104173.29    10.472245   0.16868292 
   68300    -667.7124    65.265083   -602.44731    1980.0496     102044.4    10.472245   0.21660812 
   68400   -656.52709    60.790902   -595.73618    1844.3094       116124    10.472245   0.22189076 
   68500   -660.76632    69.152883   -591.61344    2097.9999    111686.52    10.472245   0.16774811 
   68600   -667.06874    64.255336    -602.8134    1949.4153    104023.29    10.472245   0.14531675 
   68700   -662.87488    67.930883     -594.944    2060.9262    111153.64    10.472245   0.16685176 
   68800   -662.63759    69.149883   -593.48771    2097.9089    110984.93    10.472245    0.1553123 
   68900   -665.62888    62.651802   -602.97708    1900.7664    107872.42    10.472245   0.17691766 
   69000    -658.4911    64.006744   -594.48435    1941.8734    114900.79    10.472245   0.18093697 
   69100   -665.72867    64.768151   -600.96052    1964.9734    106586.47    10.472245   0.15992638 
   69200    -664.6648    60.967046   -603.69775    1849.6533    106236.35    10.472245   0.17179874 
   69300   -665.29797    71.530579   -593.76739    2170.1358    106824.19    10.472245   0.19403584 
   69400   -664.35298    68.640563   -595.71242    2082.4569    109986.69    10.472245   0.17721548 
   69500   -666.71193    62.859973   -603.85195     1907.082    103647.56    10.472245   0.15652453 
   69600   -657.75921    61.804038   -595.95518    1875.0465    116024.19    10.472245   0.21556935 
   69700   -661.69583    66.331297   -595.36453    2012.3971    110335.01    10.472245   0.18372599 
   69800   -669.17293    62.367157   -606.80577    1892.1307    100575.74    10.472245   0.16339832 
   69900   -666.64945    65.636379   -601.01307    1991.3142    104429.72    10.472245   0.16385958 
   70000   -657.72835    63.185996   -594.54235    1916.9731    115389.94    10.472245   0.16903519 
   70100   -662.18821    61.594431   -600.59378    1868.6873    109946.83    10.472245   0.19979283 
   70200   -667.42786    63.858945   -603.56892    1937.3894    103609.41    10.472245   0.14524073 
   70300   -659.73917    66.431168     -593.308     2015.427    114152.48    10.472245   0.19737372 
   70400   -660.23821    60.889967   -599.34825    1847.3149    111036.57    10.472245   0.19320686 
   70500   -661.55082    62.120445   -599.43037    1884.6458    110598.49    10.472245   0.19791281 
   70600   -659.98172    68.433657   -591.54806    2076.1796    114591.97    10.472245   0.24441383 
   70700   -662.71084    60.789546   -601.92129    1844.2682    108717.92    10.472245   0.19360868 
   70800   -663.53445    60.900612   -602.63384    1847.6378    109072.95    10.472245   0.18774314 
   70900   -663.32562    66.010183   -597.31544    2002.6549    108612.35    10.472245   0.16899698 
   71000   -659.34948    67.802845   -591.54663    2057.0417    112871.18    10.472245   0.19969827 
   71100   -667.71537    65.968962   -601.74641    2001.4043    103263.75    10.472245   0.16864179 
   71200   -668.48154    69.057483   -599.42406    2095.1056     103072.4    10.472245   0.16722418 
   71300   -662.11516    67.239574   -594.87558    2039.9529    111300.24    10.472245   0.17144932 
   71400   -658.24849     58.76699   -599.48151    1782.9067    114316.99    10.472245   0.24219307 
   71500   -661.55649    66.576087    -594.9804    2019.8236    111878.14    10.472245   0.19335157 
   71600   -662.21459    70.940577   -591.27402     2152.236     111442.3    10.472245   0.17230429 
   71700   -663.99524    62.121087   -601.87416    1884.6653    106087.59    10.472245   0.16882456 
   71800   -663.45318    68.368256   -595.08492    2074.1955    110402.44    10.472245   0.17385593 
   71900   -660.46779    66.446766   -594.02102    2015.9002    113329.86    10.472245   0.19176124 
   72000   -663.60448    64.152442   -599.45204    1946.2937    109520.42    10.472245   0.18083933 
   72100      -664.89    66.831402    -598.0586    2027.5695     107434.2    10.472245    0.1571662 
   72200   -658.17745    67.152806   -591.02465    2037.3205     116968.7    10.472245   0.22749007 
   72300   -664.56695    59.784026   -604.78292    1813.7622    106164.19    10.472245   0.18379861 
   72400   -661.59253    64.341953   -597.25057    1952.0432    112589.01    10.472245   0.19302241 
   72500   -658.82774    64.331473   -594.49627    1951.7252     113960.8    10.472245   0.21253755 
   72600   -663.51694    63.247241    -600.2697    1918.8312    107901.24    10.472245     0.206652 
   72700    -664.8873    62.686771   -602.20053    1901.8273    106610.52    10.472245   0.17847778 
   72800   -652.59371    58.444663   -594.14905    1773.1278    121018.94    10.472245   0.22521508 
   72900   -661.99087    61.613377   -600.37749    1869.2621    109027.52    10.472245   0.16299925 
   73000   -664.42699    61.753321   -602.67367    1873.5078     106490.5    10.472245   0.16500695 
   73100   -660.72965    65.319685   -595.40996    1981.7062    111736.73    10.472245   0.19729883 
   73200   -663.52705    67.310241   -596.21681    2042.0968    108446.84    10.472245   0.18124416 
   73300    -662.5414    58.508704   -604.03269    1775.0707    107434.72    10.472245    0.1761662 
   73400   -666.80014    74.312872   -592.48727    2254.5467    106999.72    10.472245   0.18452718 
   73500   -660.58218    65.988199   -594.59398    2001.9879    112302.81    10.472245   0.18731263 
   73600   -664.32367     61.58348   -602.74019     1868.355     107680.9    10.472245   0.17112749 
   73700   -663.08805     66.17289   -596.91516    2007.5912    108673.28    10.472245   0.16150827 
   73800   -659.58551    68.573511     -591.012    2080.4226    116121.93    10.472245   0.17658358 
   73900    -665.7006    64.012405   -601.68819    1942.0452    105916.17    10.472245   0.16974735 
   74000   -661.49746     64.83319   -596.66427    1966.9466    112207.36    10.472245   0.16458216 
   74100   -654.84344    73.403709   -581.43973     2226.964    122883.27    10.472245   0.20931419 
   74200   -651.89146    64.036799   -587.85466    1942.7852    122237.04    10.472245   0.22699694 
   74300   -660.85704    60.332667   -600.52437    1830.4072    111056.81    10.472245   0.16487805 
   74400   -662.43634    63.887892   -598.54844    1938.2676    109825.79    10.472245   0.18193978 
   74500    -663.1577    71.946711   -591.21099    2182.7607    111966.26    10.472245   0.18290676 
   74600   -666.00069    68.807433   -597.19326    2087.5195    105118.45    10.472245   0.18391576 
   74700   -664.85419     66.64317   -598.21102    2021.8588    106729.51    10.472245    0.1859395 
   74800   -656.33416    71.382418   -584.95174    2165.6409    120251.04    10.472245   0.20452359 
   74900   -664.46889    67.700724   -596.76817    2053.9435    108047.58    10.472245   0.16564384 
   75000   -663.92384    64.821568   -599.10228     1966.594    107762.38    10.472245   0.17764207 
   75100   -660.47768    73.631516   -586.84616    2233.8753    115923.88    10.472245   0.19111068 
   75200    -666.2933    70.977421   -595.31587    2153.3538    107816.13    10.472245   0.17080138 
   75300   -665.87185    68.838389   -597.03346    2088.4586    105546.67    10.472245   0.17790884 
   75400   -657.68231    70.660356   -587.02195    2143.7345    118476.37    10.472245   0.18906039 
   75500    -660.7997    66.310965   -594.48873    2011.7802    112526.48    10.472245   0.20101082 
   75600   -662.26088    63.646494   -598.61439    1930.9439    109160.57    10.472245   0.21503204 
   75700   -659.56219    68.115252   -591.44694    2066.5197    113823.55    10.472245   0.18616727 
   75800   -659.56536    63.921857    -595.6435    1939.2981    113869.43    10.472245   0.20213895 
   75900   -667.73173    67.027954   -600.70378    2033.5326    102979.84    10.472245   0.15799174 
   76000   -657.14619    68.213722   -588.93247    2069.5071    116628.46    10.472245   0.19956568 
   76100    -659.8706    68.030184   -591.84042    2063.9389    114673.59    10.472245   0.17231384 
   76200   -662.95219    64.081779   -598.87041    1944.1499    108176.07    10.472245   0.18670057 
   76300   -665.49445    65.720459   -599.77399    1993.8651    105958.49    10.472245   0.16011656 
   76400   -656.31906    66.824918   -589.49414    2027.3728    116294.74    10.472245   0.19576681 
   76500   -665.48409    65.480295   -600.00379    1986.5789    106864.68    10.472245    0.1685634 
   76600   -660.79627    62.112978   -598.68329    1884.4193    112337.58    10.472245   0.16078953 
   76700   -656.39272    69.137712   -587.25501    2097.5397    119608.81    10.472245   0.17912891 
   76800   -662.65002    66.298595   -596.35142    2011.4049    110114.37    10.472245   0.20883571 
   76900   -656.07797    56.884381   -599.19359    1725.7911    117416.78    10.472245   0.20788352 
   77000   -665.92179    74.505986   -591.41581    2260.4054    107545.75    10.472245   0.17329429 
   77100   -659.31935    66.820779   -592.49857    2027.2472    114735.95    10.472245   0.19996123 
   77200   -666.00055    65.356871   -600.64368    1982.8343    104351.87    10.472245   0.18447588 
[...]
   81400   -665.94909    64.510537   -601.43855    1957.1578    104026.25    10.472245   0.20067916 
   81500    -657.3143    66.161518   -591.15278    2007.2462    116702.37    10.472245    0.1945779 
   81600   -666.27951    70.656604    -595.6229    2143.6207    106903.16    10.472245   0.15713819 
   81700   -665.27504    65.854166   -599.42087    1997.9216    107681.04    10.472245   0.18435936 
   81800   -659.14475    63.869845   -595.27491    1937.7201    114611.03    10.472245   0.18377187 
   81900   -658.71176    67.185973   -591.52579    2038.3267    114912.88    10.472245   0.27507612 
   82000   -661.18133    68.467694   -592.71364    2077.2123    112087.38    10.472245   0.16663388 
   82100   -664.10286    63.106648   -600.99621    1914.5658    109374.43    10.472245   0.16771246 
   82200   -663.17014     72.35978   -590.81036    2195.2926    111602.16    10.472245   0.19912015 
   82300   -656.07795    64.107874   -591.97007    1944.9416    117994.19    10.472245   0.24686265 
   82400   -662.42732    63.654772   -598.77255    1931.1951    109586.79    10.472245   0.19030802 
   82500   -665.90708    67.853247   -598.05383    2058.5708    105913.35    10.472245   0.18644985 
   82600   -663.83728    69.413247   -594.42403     2105.899    109361.32    10.472245   0.18049113 
   82700   -660.07798    67.116288   -592.96169    2036.2125    113502.49    10.472245   0.19374438 
   82800     -666.032    64.178674   -601.85333    1947.0895    103930.76    10.472245   0.15934429 
   82900   -665.09363    69.856841   -595.23679     2119.357    108564.29    10.472245   0.15989307 
   83000   -657.29221    65.122947   -592.16926    1975.7374    117411.83    10.472245   0.18700594 
   83100   -664.48673    67.072591   -597.41413    2034.8868    106450.79    10.472245   0.20426491 
   83200   -659.08162    59.289444   -599.79217    1798.7572    113576.17    10.472245   0.19360468 
   83300   -671.02076    62.370198   -608.65056    1892.2229    97304.284    10.472245   0.14892377 
   83400   -662.24024    65.041309   -597.19893    1973.2606    109160.33    10.472245   0.18233155 
   83500   -659.41845    64.647508   -594.77094    1961.3133     113312.2    10.472245   0.16309493 
   83600   -668.33192    62.984885   -605.34703    1910.8717    102051.18    10.472245   0.15981921 
   83700   -663.74782    70.645784   -593.10204    2143.2924    110016.22    10.472245   0.17132121 
   83800   -664.06754    67.028029   -597.03951    2033.5349     107351.3    10.472245   0.17469408 
   83900   -666.41083    63.681979   -602.72885    1932.0205     103758.9    10.472245   0.17995683 
   84000   -657.61553    67.613241   -590.00229    2051.2894    115648.65    10.472245   0.22491792 
   84100   -658.46571    61.718635   -596.74708    1872.4554    116017.91    10.472245   0.20649874 
   84200   -664.78547    64.370782   -600.41469    1952.9178    106389.84    10.472245   0.17910587 
   84300   -658.70229    62.801795   -595.90049     1905.317    115195.52    10.472245   0.18679513 
   84400   -658.97973    73.558032    -585.4217    2231.6459    116741.46    10.472245   0.17374925 
   84500   -658.54773    60.472347   -598.07538    1834.6449       114184    10.472245   0.22822969 
   84600   -661.98055     63.52912   -598.45143     1927.383    110596.08    10.472245   0.20704151 
   84700   -659.19788    68.420057   -590.77782     2075.767    116258.14    10.472245   0.17306843 
   84800   -663.79262    65.150685   -598.64194     1976.579    109153.71    10.472245   0.15691451 
   84900   -667.45428    66.670024   -600.78425    2022.6735    103591.43    10.472245   0.15221262 
   85000   -657.94252    66.864429   -591.07809    2028.5715    116875.04    10.472245   0.22707864 
   85100   -658.85104    63.661081   -595.18996    1931.3865    115428.85    10.472245   0.20702585 
   85200   -661.43023     62.86266   -598.56757    1907.1635    110830.94    10.472245   0.15678254 
   85300   -662.93227    60.247812   -602.68446    1827.8328     107745.8    10.472245   0.16640384 
   85400   -657.21272     64.22436   -592.98836    1948.4756    117177.86    10.472245   0.19650112 
   85500   -662.86714    63.505686   -599.36146     1926.672    109293.47    10.472245   0.17565381 
   85600   -666.62411    63.610955   -603.01316    1929.8657    103937.95    10.472245   0.17046727 
   85700   -666.06904    71.710245    -594.3588    2175.5866    106613.47    10.472245   0.18426475 
   85800   -663.47837    66.943376     -596.535    2030.9666    109702.76    10.472245   0.20548533 
   85900   -666.07879     59.97097   -606.10782    1819.4338    103466.83    10.472245   0.18057134 
   86000   -662.70029    66.218307   -596.48199    2008.9691    109857.35    10.472245   0.17936326 
   86100   -659.67369    65.817905   -593.85579    1996.8215    115007.48    10.472245   0.20106991 
   86200   -669.92549    66.095206   -603.83028    2005.2344    99350.953    10.472245   0.14864197 
   86300   -664.32824    66.830234   -597.49801    2027.5341    107129.64    10.472245   0.17041751 
   86400   -662.76753    69.162612   -593.60491    2098.2951    111143.08    10.472245   0.19370019 
   86500   -666.87625    63.440134   -603.43612    1924.6833    103629.46    10.472245   0.18998014 
   86600   -664.19717      62.8954   -601.30177    1908.1568    107974.07    10.472245   0.17073463 
   86700   -661.56812    65.911899   -595.65622    1999.6731     111681.6    10.472245   0.18083445 
   86800    -663.5784    71.992311   -591.58609    2184.1441    108968.36    10.472245   0.18459643 
   86900   -659.40873    69.100842   -590.30789    2096.4211     115583.2    10.472245   0.21161028 
   87000   -666.79829    66.075844   -600.72244     2004.647    104744.99    10.472245   0.17174112 
   87100   -661.18727    67.780439   -593.40684    2056.3619    113376.44    10.472245   0.16304213 
   87200   -654.87518    71.773759   -583.10143    2177.5136    122772.62    10.472245   0.20519523 
   87300   -661.25824    62.325173   -598.93307     1890.857    111767.17    10.472245   0.18448573 
   87400   -664.80068    66.521807   -598.27887    2018.1768    107500.98    10.472245   0.15840149 
   87500   -657.57789    66.891398   -590.68649    2029.3897    118768.36    10.472245    0.1827959 
   87600   -666.50143    70.858001   -595.64343    2149.7308    106258.05    10.472245    0.1477581 
   87700   -665.04668    64.839371   -600.20731    1967.1341    106916.37    10.472245   0.18424702 
   87800   -662.32501    69.393735   -592.93128    2105.3071    111442.34    10.472245   0.17543946 
   87900   -664.81004    69.041795   -595.76825    2094.6297    107846.45    10.472245   0.19140277 
   88000   -657.67958    62.067928   -595.61165    1883.0525    116337.82    10.472245   0.21106469 
   88100   -656.36089    68.205505   -588.15539    2069.2578    118067.56    10.472245   0.20161649 
   88200   -663.27549    63.442899   -599.83259    1924.7672    107998.74    10.472245   0.19297207 
   88300   -658.80626    60.200559    -598.6057    1826.3992    112740.68    10.472245   0.17122903 
   88400   -655.19834    70.420338   -584.77801    2136.4527    118923.04    10.472245    0.1936219 
   88500   -660.74299    72.945368   -587.79763    2213.0585    114519.06    10.472245   0.21810865 
   88600   -664.61899    63.219594   -601.39939    1917.9924    106307.35    10.472245   0.16695142 
   88700   -659.91304     63.36503   -596.54802    1922.4047    111306.96    10.472245   0.19400119 
   88800    -662.3966    70.596987   -591.79961     2141.812     110692.6    10.472245   0.16045799 
   88900   -667.32213    70.423835    -596.8983    2136.5588    104263.22    10.472245   0.15926968 
   89000   -661.87423    65.108456   -596.76577    1975.2978    111297.59    10.472245   0.19419616 
   89100   -657.14766    68.692901   -588.45475    2084.0448     118466.5    10.472245    0.2179419 
   89200   -666.81062    66.372625     -600.438    2013.6509    104341.06    10.472245   0.16780921 
   89300   -666.08767     69.20388   -596.88379    2099.5471    107302.98    10.472245   0.17359027 
   89400   -659.22195    68.400161   -590.82179    2075.1634    115953.25    10.472245   0.20133256 
   89500   -664.60403     63.55368   -601.05035    1928.1281    107576.41    10.472245   0.17773016 
   89600   -664.66524    66.733032   -597.93221    2024.5851    107089.64    10.472245   0.16115589 
   89700   -656.24163    65.570753   -590.67088    1989.3232    118114.16    10.472245   0.19441704 
   89800   -667.18736    63.275362     -603.912    1919.6843    103349.51    10.472245    0.1486246 
   89900   -660.77509    65.834125   -594.94097    1997.3135    114479.32    10.472245   0.17496595 
   90000   -662.59305    68.289517   -594.30353    2071.8067    108819.03    10.472245   0.19007786 
   90100   -666.75039    63.134522   -603.61587    1915.4114    104123.71    10.472245   0.15329648 
   90200   -662.45029    68.420992    -594.0293    2075.7954    110595.74    10.472245   0.17754489 
   90300   -664.57812    69.361155   -595.21697    2104.3186    108070.97    10.472245    0.1768914 
   90400   -663.01444    66.257982   -596.75645    2010.1728    109807.62    10.472245   0.20064873 
   90500   -666.78587    70.976462   -595.80941    2153.3247    105061.26    10.472245   0.18640958 
   90600   -665.39127    67.241103   -598.15017    2039.9993    107498.25    10.472245   0.18186995 
   90700    -666.5854     65.09909   -601.48631    1975.0136    104166.46    10.472245   0.17522393 
   90800   -660.86027    70.438629   -590.42165    2137.0076    113511.27    10.472245   0.18116485 
   90900   -667.06382    69.493234   -597.57058    2108.3257    104264.13    10.472245   0.18286133 
   91000   -663.49821    65.609051   -597.88916    1990.4851    107854.96    10.472245   0.14525951 
   91100   -662.98489    66.950215   -596.03468    2031.1741    109210.15    10.472245   0.19688529 
   91200   -656.01136    69.196297   -586.81506    2099.3171    120599.88    10.472245   0.21602622 
   91300   -664.11262    64.017993   -600.09463    1942.2147    108023.17    10.472245   0.17971921 
   91400   -663.71493     67.38814   -596.32679    2044.4602    107759.05    10.472245   0.17236317 
   91500    -658.3233    71.580388   -586.74291     2171.647    116842.69    10.472245   0.19478047 
   91600   -657.99958    65.428875    -592.5707    1985.0188    116914.58    10.472245   0.22183948 
   91700   -666.74481    66.463469   -600.28134     2016.407    103340.54    10.472245   0.18144495 
   91800   -660.30355    69.673961   -590.62959    2113.8087    113781.14    10.472245   0.19139757 
   91900   -659.45146    67.200879   -592.25058    2038.7789     114124.7    10.472245    0.2042075 
   92000   -662.92237    65.049172    -597.8732    1973.4992     110346.3    10.472245   0.16032196 
   92100   -665.32774     68.09761   -597.23013    2065.9845     106896.8    10.472245   0.18737532 
   92200   -662.11999    74.234077   -587.88592    2252.1561    112314.19    10.472245   0.17102735 
   92300   -666.39032     66.71157   -599.67875     2023.934    105872.97    10.472245   0.16923413 
   92400   -665.72363    71.308632   -594.41499    2163.4023     107488.1    10.472245   0.16527229 
   92500   -658.84986    65.601344   -593.24851    1990.2513    114601.32    10.472245   0.20289721 
   92600    -667.7646     63.73454   -604.03006    1933.6151    102551.02    10.472245   0.17380363 
   92700   -659.49725    65.306727   -594.19052     1981.313     113828.2    10.472245   0.18913956 
   92800   -662.62507    67.571958   -595.05311    2050.0369    111719.84    10.472245   0.17476296 
   92900   -665.02805    67.585016   -597.44304    2050.4331    107427.08    10.472245   0.15086848 
   93000   -662.15937    65.536705   -596.62266    1988.2902    108510.95    10.472245   0.16641818 
   93100   -660.98701    73.021054   -587.96596    2215.3547    113759.51    10.472245   0.19801489 
   93200   -668.35942     69.81045   -598.54897    2117.9496    103712.28    10.472245   0.17185295 
   93300    -660.7051    61.519176   -599.18593    1866.4041    110636.61    10.472245    0.2031273 
   93400   -656.03646    68.452008   -587.58446    2076.7364    120387.93    10.472245    0.1873128 
   93500   -661.76852    59.924588   -601.84393    1818.0266    110421.04    10.472245   0.18128295 
   93600   -666.44405    70.375449    -596.0686    2135.0908    107712.34    10.472245   0.15481769 
   93700   -660.71673    66.935139    -593.7816    2030.7167    114088.72    10.472245   0.18472221 
   93800   -663.53157    59.903932   -603.62764       1817.4    106601.55    10.472245   0.17030997 
   93900   -661.92758    63.108934   -598.81864    1914.6351    111298.18    10.472245    0.1682788 
   94000   -663.07114    66.687282   -596.38386    2023.1971    109445.43    10.472245   0.17851161 
   94100   -655.05922    66.745153   -588.31407    2024.9528    120554.63    10.472245   0.20645832 
   94200   -663.32744    65.429201   -597.89824    1985.0287    108612.39    10.472245   0.18491459 
   94300   -663.04876     64.60413   -598.44463    1959.9973    108831.36    10.472245   0.17308398 
   94400   -655.46023    68.749786   -586.71044    2085.7705    119985.81    10.472245       0.2159 
   94500   -664.91601     64.77789   -600.13812    1965.2689    106639.67    10.472245   0.18060319 
   94600   -665.39316    65.499911   -599.89324     1987.174    106880.79    10.472245   0.19255611 
   94700   -658.35424    67.810373   -590.54386    2057.2701    114706.75    10.472245    0.1714953 
   94800     -661.463    65.644125   -595.81888    1991.5492    111423.48    10.472245    0.1827516 
   94900   -661.25459    64.567467   -596.68713    1958.8849    111054.57    10.472245   0.20080765 
   95000   -661.87185    71.928061   -589.94379    2182.1949    113347.27    10.472245   0.17008345 
   95100   -658.60997     60.74723   -597.86274    1842.9844    113706.95    10.472245   0.19719864 
   95200   -664.24538    62.975297   -601.27008    1910.5808    109114.19    10.472245   0.15538719 
   95300   -656.85892    68.917076   -587.94184    2090.8459    118839.57    10.472245   0.19622299 
   95400   -661.74263    64.856969   -596.88566     1967.668    110335.39    10.472245   0.17647512 
   95500   -662.62492    63.501428   -599.12349    1926.5428    109488.47    10.472245   0.17474364 
   95600   -657.18122    67.594895   -589.58632    2050.7328    118055.83    10.472245    0.2090636 
   95700   -658.14676    66.316794   -591.82997     2011.957    117196.63    10.472245   0.18787009 
   95800   -665.23991    66.426511    -598.8134    2015.2857    107254.84    10.472245   0.16352728 
   95900   -661.81969    64.762438   -597.05725    1964.8001    111046.97    10.472245   0.17858492 
   96000   -660.41214    71.179339   -589.23281    2159.4797    112787.44    10.472245    0.1870283 
   96100   -662.67391     60.81808   -601.85583    1845.1339    109875.54    10.472245   0.16808953 
   96200   -666.38921    71.242036   -595.14718    2161.3819    106252.12    10.472245   0.17433301 
   96300   -657.56449    64.496092   -593.06839    1956.7195    116461.95    10.472245   0.20628166 
   96400   -665.28303    61.722893   -603.56013    1872.5846    105089.13    10.472245   0.15958414 
   96500   -659.53186    66.435988   -593.09588    2015.5732     114337.8    10.472245   0.17030195 
   96600   -665.21446     71.20812   -594.00634    2160.3529    108431.78    10.472245   0.18269687 
   96700    -663.6326     66.29324   -597.33936    2011.2424    108850.53    10.472245   0.14665192 
   96800   -664.10345    66.870241   -597.23321    2028.7478    106618.14    10.472245   0.19834184 
   96900   -658.01381    72.522988   -585.49082    2200.2441     117046.7    10.472245   0.21033609 
   97000   -668.36179    71.210808   -597.15098    2160.4345    103089.98    10.472245   0.16152357 
   97100   -662.53095    64.460118   -598.07083    1955.6281    110699.41    10.472245   0.16274591 
   97200   -664.85008     73.22589   -591.62419    2221.5692    108629.27    10.472245   0.16457065 
   97300   -659.33992    66.582161   -592.75776    2020.0079       114359    10.472245   0.19994628 
   97400   -665.06352    64.567487   -600.49603    1958.8856    106877.91    10.472245   0.16436456 
   97500    -658.2705    66.456535   -591.81396    2016.1966    115885.95    10.472245   0.20373588 
   97600   -661.91042    71.296847   -590.61357    2163.0448    111891.89    10.472245    0.1695192 
   97700   -660.81322    57.555282   -603.25793    1746.1452    111873.24    10.472245   0.17085127 
   97800   -666.57983    72.112434    -594.4674    2187.7885    106581.36    10.472245   0.16405143 
   97900   -660.49321    67.997077   -592.49613    2062.9344    114107.88    10.472245   0.19130898 
   98000   -669.32262    65.457141   -603.86548    1985.8764    102705.82    10.472245   0.15307831 
   98100   -666.23749    70.642823   -595.59467    2143.2026    107110.67    10.472245   0.16738069 
   98200   -661.86553    68.843826    -593.0217    2088.6236     111788.3    10.472245   0.17383836 
   98300   -665.86422    68.951746   -596.91247    2091.8977    107304.04    10.472245   0.17525363 
   98400   -663.01145    64.088397   -598.92305    1944.3507     109100.1    10.472245   0.17405018 
   98500   -664.27289     65.37249    -598.9004    1983.3082       107746    10.472245   0.17498983 
   98600    -663.4421    71.643763   -591.79834    2173.5697    109639.66    10.472245   0.18177686 
   98700   -663.09227    65.672137   -597.42014    1992.3991    108872.76    10.472245   0.18775371 
   98800   -665.47177     62.76185   -602.70992    1904.1051    105889.03    10.472245   0.16419475 
   98900   -661.34327    68.541498   -592.80177    2079.4514    112064.48    10.472245   0.18523811 
   99000   -661.06497    65.091131   -595.97383    1974.7722    110817.02    10.472245   0.18447306 
   99100   -664.34433    61.117568   -603.22676    1854.2199    105908.77    10.472245   0.17716385 
   99200   -661.44518    62.213706   -599.23148    1887.4752    111764.47    10.472245   0.18735255 
   99300    -658.5817    64.353796    -594.2279    1952.4025    114667.82    10.472245   0.19313426 
   99400   -663.03346    61.450704   -601.58276    1864.3268    107527.12    10.472245   0.17074017 
   99500   -667.84349    64.214784   -603.62871    1948.1851    102894.38    10.472245   0.17054359 
   99600   -664.05746    70.812008   -593.24546    2148.3354    108751.81    10.472245    0.1641204 
   99700   -661.62236    59.587871   -602.03449    1807.8111    110380.42    10.472245   0.16460935 
   99800   -664.87443    61.255102   -603.61933    1858.3925    105875.31    10.472245   0.17118242 
   99900   -665.08452    67.651301   -597.43321    2052.4441    107822.59    10.472245   0.15399787 
  100000   -657.38425    63.692323   -593.69192    1932.3343    115910.37    10.472245   0.19556824 
Loop time of 74.7826 on 1 procs for 100000 steps with 256 atoms

Performance: 577.674 ns/day, 0.042 hours/ns, 1337.209 timesteps/s
100.0% CPU use with 1 MPI tasks x no OpenMP threads

MPI task timing breakdown:
Section |  min time  |  avg time  |  max time  |%varavg| %total
---------------------------------------------------------------
Pair    | 44.732     | 44.732     | 44.732     |   0.0 | 59.82
Neigh   | 3.3677     | 3.3677     | 3.3677     |   0.0 |  4.50
Comm    | 0.78184    | 0.78184    | 0.78184    |   0.0 |  1.05
Output  | 0.026502   | 0.026502   | 0.026502   |   0.0 |  0.04
Modify  | 25.73      | 25.73      | 25.73      |   0.0 | 34.41
Other   |            | 0.1453     |            |       |  0.19

Nlocal:    256 ave 256 max 256 min
Histogram: 1 0 0 0 0 0 0 0 0 0
Nghost:    1431 ave 1431 max 1431 min
Histogram: 1 0 0 0 0 0 0 0 0 0
Neighs:    13216 ave 13216 max 13216 min
Histogram: 1 0 0 0 0 0 0 0 0 0

Total # of neighbors = 13216
Ave neighs/atom = 51.625
Neighbor list builds = 6042
Dangerous builds = 3
    
Total wall time: 0:01:14
