LAMMPS (3 Mar 2020)

    # ---------- Initialize simulation ---------------------
    units metal
    atom_style atomic
    dimension  3
    boundary   p p p
    read_data /home/modeler/RemLabs/Lab4/Problem2A_size_3/temp_2600/lammps.data
  orthogonal box = (0 0 0) to (12.27 12.27 12.27)
  1 by 1 by 1 MPI processor grid
  reading atoms ...
  108 atoms
  read_data CPU = 0.000853355 secs

    pair_style eam
    pair_coeff * * /usr/share/lammps-stable/potentials/Ag_u3.eam
Reading potential file /usr/share/lammps-stable/potentials/Ag_u3.eam with DATE: 2007-06-11

    velocity  all create 2600 87287 dist gaussian

    # ---------- Describe computed properties------------------
    compute msdall all msd
    thermo_style custom step pe ke etotal temp press density c_msdall[4]
    thermo 100

    # ---------- Specify ensemble  ---------------------
    #fix  1 all nve
    fix  1 all nvt temp 2600 2600 0.25

    # --------- Compute RDF ---------------
    compute rdfall all rdf 100 1 1
    fix 2 all ave/time 1 25000 25000 c_rdfall[*] file /home/modeler/RemLabs/Lab4/Problem2A_size_3/temp_2600/lammps.rdf mode vector

    # --------- Run -------------
    timestep 0.005
    run 100000
Neighbor list info ...
  update every 1 steps, delay 10 steps, check yes
  max neighbors/atom: 2000, page size: 100000
  master list distance cutoff = 7.55
  ghost atom cutoff = 7.55
  binsize = 3.775, bins = 4 4 4
  2 neighbor lists, perpetual/occasional/extra = 1 1 0
  (1) pair eam, perpetual
      attributes: half, newton on
      pair build: half/bin/atomonly/newton
      stencil: half/bin/3d/newton
      bin: standard
  (2) compute rdf, occasional, copy from (1)
      attributes: half, newton on
      pair build: copy
      stencil: none
      bin: none
Per MPI rank memory allocation (min/avg/max) = 3.723 | 3.723 | 3.723 Mbytes
Step PotEng KinEng TotEng Temp Press Density c_msdall[4] 
       0       -307.8    35.960172   -271.83983         2600    20792.464    10.472245            0 
     100   -284.76127    26.247255   -258.51401    1897.7346    94284.559    10.472245   0.13036237 
     200   -275.94134    37.770428   -238.17091    2730.8855    126759.72    10.472245   0.17036854 
     300   -265.48933    38.957136    -226.5322    2816.6871    160811.18    10.472245   0.45355665 
     400    -260.3198    39.187935   -221.13187    2833.3744    176813.79    10.472245    1.6796049 
     500   -253.63127    37.677514   -215.95375    2724.1676    198215.92    10.472245    2.8984204 
     600   -259.82599    34.648966   -225.17702    2505.1969    175032.57    10.472245     3.885049 
     700   -261.43903    36.686406   -224.75263    2652.5083    174456.17    10.472245    4.3033273 
     800   -255.15898    39.565762   -215.59321    2860.6921    190180.81    10.472245    5.9496163 
     900   -264.28172    38.569999   -225.71172    2788.6963    161615.26    10.472245    7.6258274 
    1000   -256.52064    34.130858   -222.38979    2467.7365    185493.53    10.472245    8.4769707 
    1100    -257.2156    37.913966   -219.30164    2741.2636    186204.55    10.472245    9.7334753 
    1200   -259.43791    31.119337   -228.31858    2249.9969    172576.35    10.472245    11.104388 
    1300   -259.00089     35.04046   -223.96043    2533.5028    179097.86    10.472245    11.532966 
    1400   -256.85749    35.409769   -221.44772    2560.2046    181933.96    10.472245    12.417582 
    1500   -260.04823    38.346021   -221.70221    2772.5021    174446.49    10.472245    14.052268 
    1600   -254.50769    35.276035   -219.23166    2550.5353    193173.48    10.472245    15.577057 
    1700   -255.74765    38.102088   -217.64556    2754.8653    191287.38    10.472245     15.94463 
    1800   -255.68274    33.293029   -222.38971    2407.1596    187999.38    10.472245    17.462613 
    1900   -255.72743    41.843153   -213.88428    3025.3525    195319.28    10.472245    18.259625 
    2000   -259.21021    34.557805   -224.65241    2498.6057    180839.04    10.472245    20.032099 
    2100   -256.26291    34.179732   -222.08318    2471.2702    184754.17    10.472245    21.629386 
    2200   -250.21734    34.236692   -215.98064    2475.3886    198383.16    10.472245    23.243401 
    2300     -259.872    38.201842   -221.67016    2762.0777    177389.74    10.472245     24.65224 
    2400   -259.98935    35.244222   -224.74513    2548.2352    177236.91    10.472245      26.9243 
    2500   -252.67695    36.419123   -216.25783    2633.1832    199454.81    10.472245    28.363236 
    2600   -248.05853    34.398426   -213.66011    2487.0823    208294.53    10.472245    30.245751 
    2700   -259.28761    35.004615   -224.28299    2530.9111    177702.27    10.472245    32.496596 
    2800   -259.22998    34.778387    -224.4516    2514.5543    172965.29    10.472245    35.446863 
    2900   -254.36024    36.068998   -218.29124    2607.8683    191332.48    10.472245    38.081862 
    3000   -261.28305    34.813973   -226.46908    2517.1272    168789.05    10.472245    39.285138 
    3100   -258.77575    33.914379   -224.86137    2452.0846    177746.76    10.472245    40.682059 
    3200   -259.51435    38.837386   -220.67697    2808.0289    175135.82    10.472245    40.937328 
    3300   -260.03971    37.035206   -223.00451    2677.7273    177042.55    10.472245    41.251903 
    3400   -254.67172    39.925444   -214.74627    2886.6979    192882.56    10.472245    43.016093 
    3500   -258.68352    34.648328   -224.03519    2505.1508    178449.64    10.472245    45.213005 
    3600   -256.99963    35.369007   -221.63063    2557.2574     183236.9    10.472245    45.648131 
    3700   -253.48633     38.34531   -215.14102    2772.4507    193015.91    10.472245    46.711029 
    3800   -259.04714    36.611647   -222.43549    2647.1031     179783.5    10.472245     47.10402 
    3900   -260.82441    38.920564   -221.90384    2814.0429    175294.04    10.472245    49.551375 
    4000   -257.30736    40.323924   -216.98344    2915.5089    185089.52    10.472245    50.995587 
    4100   -258.89772     34.09295   -224.80477    2464.9957    177409.16    10.472245     51.30931 
    4200   -253.67061    32.496938   -221.17368    2349.6005    190485.62    10.472245    51.778917 
    4300   -256.08108    37.007648   -219.07344    2675.7348    189069.89    10.472245    53.618854 
    4400   -257.56064    35.859662   -221.70098    2592.7329    182096.25    10.472245    52.863001 
    4500     -256.253    40.044119   -216.20888    2895.2784    190883.82    10.472245    52.803505 
    4600    -258.5046    34.540463   -223.96414    2497.3519    178989.08    10.472245    52.861865 
    4700   -256.99494     34.16077   -222.83417    2469.8992    182345.04    10.472245    54.285551 
    4800   -265.36347    33.227516   -232.13595    2402.4229    158367.04    10.472245    54.938674 
    4900   -260.71816    36.746147   -223.97202    2656.8277    174793.41    10.472245    54.549522 
    5000   -254.68648    35.002375   -219.68411    2530.7491    186383.21    10.472245    55.177607 
    5100   -258.65135    41.195305   -217.45604    2978.5117    184253.51    10.472245    56.452731 
    5200   -264.39626    36.520932   -227.87533    2640.5442     160701.2    10.472245    56.648897 
    5300   -257.25664    35.845903   -221.41074     2591.738    183886.03    10.472245    57.007921 
    5400    -257.4596    36.842973   -220.61662    2663.8284    182535.04    10.472245     57.44655 
    5500   -260.53219    35.781048   -224.75114    2587.0489    175202.28    10.472245    59.979519 
    5600   -262.66198    36.045478    -226.6165    2606.1678     164899.7    10.472245    60.682367 
    5700   -255.37987    36.207584   -219.17228    2617.8884    186398.93    10.472245    60.511957 
    5800   -257.09404    31.630664   -225.46338    2286.9669    181752.19    10.472245     61.60401 
    5900   -259.69759    32.450077   -227.24751    2346.2123    174056.86    10.472245    60.415543 
    6000   -259.06708    35.636615   -223.43046    2576.6061    180746.99    10.472245    63.499671 
    6100    -259.6723    35.384118   -224.28819      2558.35    176962.37    10.472245    64.761567 
    6200   -258.59706    42.727244   -215.86981    3089.2742     183610.5    10.472245    65.161734 
    6300   -258.32491    35.603335   -222.72158    2574.1998    181442.91    10.472245    68.400603 
    6400   -255.76996    37.000709   -218.76925    2675.2331    190727.35    10.472245     69.83549 
    6500   -256.68579    37.140082   -219.54571      2685.31    185705.92    10.472245    71.058953 
    6600   -259.80586    35.814569   -223.99129    2589.4726    174797.07    10.472245    72.389091 
    6700   -258.60048    42.512615   -216.08786    3073.7561    187044.86    10.472245    73.135472 
    6800   -258.82805    35.487441   -223.34061    2565.8204    180871.41    10.472245    76.222793 
    6900   -260.20529    34.252299   -225.95299    2476.5169     175031.3    10.472245    76.804959 
    7000    -254.2768    37.038751   -217.23805    2677.9836    188900.32    10.472245    78.541679 
    7100   -260.14685    37.581702   -222.56515    2717.2402    176433.54    10.472245    79.948805 
    7200   -258.62935    37.355382   -221.27397    2700.8767     180786.8    10.472245    81.133373 
    7300   -259.54766    43.309139   -216.23852    3131.3465    180906.68    10.472245    83.862489 
    7400   -256.22977    31.774805   -224.45497    2297.3887    184681.15    10.472245    83.631727 
    7500   -258.87763     41.40248   -217.47515    2993.4909    180334.39    10.472245    85.270045 
    7600   -258.29409    38.202005   -220.09208    2762.0894     179526.9    10.472245    88.717561 
    7700   -256.89305    32.830416   -224.06263    2373.7117    181689.34    10.472245    90.168045 
    7800   -256.93017    38.914034   -218.01614    2813.5707    185241.54    10.472245    90.803226 
    7900    -259.2644    33.903823   -225.36058    2451.3214    177780.95    10.472245     93.85792 
    8000   -260.45069    35.764914   -224.68578    2585.8824    171606.52    10.472245    94.640784 
    8100   -258.41703    39.268665   -219.14836    2839.2113    181586.79    10.472245    96.322917 
    8200   -260.08143    34.701717   -225.37971    2509.0109    176665.67    10.472245    98.003967 
    8300   -264.49299    30.308663   -234.18433    2191.3834    157820.77    10.472245    98.390174 
    8400   -258.49907    35.541096   -222.95798    2569.6998    179499.98    10.472245    97.516712 
    8500   -257.44143     36.29661   -221.14482    2624.3252    184958.79    10.472245     99.73078 
    8600   -253.20231    38.021509    -215.1808    2749.0392    197193.51    10.472245    100.40487 
    8700   -256.06127    34.507106   -221.55416    2494.9401    185488.09    10.472245    101.30062 
    8800   -253.81685    33.057697   -220.75915    2390.1446    191342.84    10.472245     103.4745 
    8900   -255.75229    35.338117   -220.41417     2555.024     186438.4    10.472245    104.07313 
    9000   -258.50316    29.196102   -229.30706    2110.9427     176457.6    10.472245    104.19687 
    9100   -261.07389    39.061741   -222.01215    2824.2503    173382.57    10.472245    103.85981 
    9200    -260.0377    36.900497   -223.13721    2667.9876    174219.23    10.472245     105.9233 
    9300   -259.70123    33.821787   -225.87944      2445.39    174622.39    10.472245     107.6878 
    9400   -257.20109    40.103341   -217.09774    2899.5602    184939.79    10.472245     106.7524 
    9500   -257.69515    34.239368   -223.45579    2475.5821    180709.08    10.472245    106.88011 
    9600   -257.98004    36.162733    -221.8173    2614.6456    181122.23    10.472245    108.15132 
    9700   -249.78515    41.784166   -208.00098    3021.0877    205526.55    10.472245    111.53753 
    9800   -257.22909    38.949556   -218.27954    2816.1391    186058.07    10.472245    112.64483 
    9900   -257.87792    30.623526   -227.25439    2214.1486    175662.79    10.472245    115.13053 
   10000   -258.15614    36.293084   -221.86306    2624.0702    180600.59    10.472245    116.91401 
   10100   -256.01629    33.862274   -222.15401    2448.3173    188705.53    10.472245    118.77169 
   10200   -259.68952    33.909091   -225.78043    2451.7023    173739.68    10.472245    119.65634 
   10300    -252.4806    36.905026   -215.57557     2668.315    195420.01    10.472245    121.24265 
   10400   -258.11088    35.953634   -222.15725    2599.5273    180685.64    10.472245    122.59285 
   10500   -254.32472    35.354979   -218.96974    2556.2432    191769.73    10.472245    126.96491 
   10600   -257.53718    37.819091   -219.71809    2734.4039     182289.9    10.472245    129.10914 
   10700   -259.12828    33.315756   -225.81252    2408.8028    180172.77    10.472245     129.4204 
   10800   -254.28366    36.539107   -217.74455    2641.8583    192954.01    10.472245    129.66024 
   10900   -250.43938    42.058861   -208.38052    3040.9487    204859.85    10.472245    131.74955 
   11000   -256.46131    35.012631   -221.44868    2531.4907    183076.68    10.472245    135.87324 
   11100   -257.87976    32.452094   -225.42766    2346.3582    180501.63    10.472245    136.21214 
   11200   -257.62214    40.298998   -217.32314    2913.7067    182276.25    10.472245    139.22394 
   11300   -255.60655     35.18103   -220.42552    2543.6663    188101.03    10.472245    138.65728 
   11400   -258.65341    32.994398   -225.65901     2385.568    178006.03    10.472245    141.34221 
   11500   -257.42434    38.847882   -218.57645    2808.7878    182944.19    10.472245     141.2715 
   11600   -258.41006    37.391501   -221.01856    2703.4882    177618.55    10.472245    142.66555 
   11700   -258.40164    33.444557   -224.95709    2418.1154    178452.42    10.472245    147.03796 
   11800   -254.01177    31.708645   -222.30312    2292.6051    191009.51    10.472245    145.87766 
   11900   -254.96414    36.856571   -218.10757    2664.8116       187802    10.472245    144.09146 
   12000   -258.22915     32.29044   -225.93871    2334.6703    175497.42    10.472245    144.59797 
   12100   -261.39443    40.537663   -220.85676    2930.9627    176066.53    10.472245    146.36288 
   12200    -256.0967    43.220623   -212.87608    3124.9466    190469.41    10.472245    146.31932 
   12300    -258.3071    38.113842   -220.19326    2755.7151    180820.21    10.472245    147.01634 
   12400   -259.93194    33.812419   -226.11952    2444.7127    173780.47    10.472245    145.25281 
   12500   -258.12538    35.195236   -222.93014    2544.6934    179831.51    10.472245     149.0036 
   12600   -256.18217    38.802232   -217.37994    2805.4872    185799.22    10.472245    148.33857 
   12700   -259.36254    33.561584   -225.80096    2426.5767    175905.25    10.472245    150.74955 
   12800   -253.92006    37.243356   -216.67671     2692.777    192313.01    10.472245    153.88641 
   12900   -258.76885    37.593888   -221.17496    2718.1213    180852.52    10.472245    153.55123 
   13000    -255.6782    33.332686   -222.34552    2410.0269     189380.9    10.472245    154.66492 
   13100   -252.30423    39.612558   -212.69167    2864.0755    202446.82    10.472245    155.80081 
   13200   -258.03694    34.333442   -223.70349    2482.3838    181779.87    10.472245    155.23776 
   13300   -256.72064    35.391812   -221.32883    2558.9063    184764.47    10.472245    156.21588 
   13400   -255.43383    34.255552   -221.17828    2476.7522    188771.54    10.472245    158.94259 
   13500   -258.44166    33.121873   -225.31979    2394.7847    180689.57    10.472245    159.97264 
   13600   -251.61558    35.772454   -215.84313    2586.4275    196577.37    10.472245    162.38513 
   13700   -260.78325    38.304301   -222.47894    2769.4857    173935.94    10.472245    163.74505 
   13800   -258.97157    36.576269    -222.3953    2644.5452    177355.19    10.472245     165.9976 
   13900   -263.04372     38.55459   -224.48913    2787.5821    166746.23    10.472245    165.21056 
   14000   -260.78131    35.965579   -224.81573    2600.3909    174525.01    10.472245    165.38333 
   14100   -255.90047    38.038016   -217.86246    2750.2327    191092.83    10.472245    166.17903 
   14200   -258.72666    30.633021   -228.09364    2214.8352    177141.62    10.472245    169.79593 
   14300    -258.4567    34.486423   -223.97028    2493.4446    178202.92    10.472245    170.51404 
   14400   -255.03347    38.037658   -216.99581    2750.2068     191736.3    10.472245    169.59033 
   14500   -257.91854    36.767341    -221.1512    2658.3601    184742.86    10.472245    169.57576 
   14600   -262.29131     29.42076   -232.87055     2127.186     165308.2    10.472245    172.77181 
   14700   -260.55681    33.471164   -227.08565    2420.0392    172200.61    10.472245    174.00251 
   14800   -256.80116    37.343117   -219.45804      2699.99    184229.53    10.472245    174.76049 
   14900     -254.867    34.680875   -220.18613     2507.504    189922.51    10.472245    174.91165 
   15000   -261.52483    33.850288   -227.67454    2447.4507    169784.24    10.472245    176.78594 
   15100   -255.89682    35.732693   -220.16413    2583.5527     184505.5    10.472245    180.47178 
   15200   -256.96056    36.387459    -220.5731    2630.8938    181715.91    10.472245    186.44232 
   15300   -263.03569    32.363552   -230.67213    2339.9564    166876.34    10.472245    186.59251 
   15400   -257.30758    36.730976    -220.5766    2655.7308    182677.36    10.472245    189.97001 
   15500   -260.65102    39.137535   -221.51349    2829.7304    175548.51    10.472245    189.35017 
   15600   -262.89931    33.736434   -229.16287    2439.2188    166128.18    10.472245    189.49936 
   15700   -260.64128    37.322059   -223.31922    2698.4674    173490.45    10.472245      189.496 
   15800   -259.74974    37.740151   -222.00959    2728.6964    173081.16    10.472245    187.01553 
   15900   -259.33772     31.84361   -227.49411    2302.3634    173456.55    10.472245    186.11144 
   16000   -251.99548    35.074407   -216.92107    2535.9572    203725.61    10.472245    186.89316 
   16100   -257.27638    34.855268   -222.42111     2520.113     183097.2    10.472245    187.62624 
   16200   -260.69312    37.292358   -223.40077    2696.3199     172222.7    10.472245    188.64092 
   16300   -254.30656    39.348152   -214.95841    2844.9584    191081.14    10.472245    188.92396 
   16400   -256.48682    38.558247   -217.92858    2787.8466    183364.75    10.472245    189.95878 
   16500   -256.69138    34.180586    -222.5108    2471.3319    188189.59    10.472245    188.32936 
   16600   -258.35865    29.932866   -228.42579    2164.2124    174160.58    10.472245    189.26681 
   16700   -259.25789    32.951982   -226.30591    2382.5011    175108.86    10.472245    192.66822 
   16800   -253.96648    32.643983    -221.3225    2360.2322    191172.63    10.472245    190.73861 
   16900   -255.87633    39.440943   -216.43539    2851.6674    187558.18    10.472245    191.33494 
   17000   -260.16621    33.072986   -227.09323      2391.25    174013.17    10.472245    195.05471 
   17100   -256.10435    35.749011   -220.35534    2584.7326    188314.58    10.472245    196.62666 
   17200   -258.64564    36.548233    -222.0974    2642.5181     180072.3    10.472245    195.16432 
   17300   -260.68224    40.037639   -220.64461    2894.8099    172800.75    10.472245    195.62928 
   17400   -252.28407    40.031603   -212.25246    2894.3734    201923.28    10.472245    198.40293 
   17500   -255.05699    32.560342   -222.49665    2354.1847       188813    10.472245    198.29708 
   17600   -260.21976    36.186382   -224.03337    2616.3555    175687.51    10.472245    194.88037 
   17700   -253.27327    39.629498   -213.64377    2865.3003    194926.74    10.472245    194.85141 
   17800   -257.81973    36.441983   -221.37775     2634.836    183909.89    10.472245     196.2442 
   17900   -256.44164    35.108537    -221.3331    2538.4249    182019.33    10.472245    201.48316 
   18000   -258.08953    39.495011   -218.59452    2855.5766    182410.39    10.472245    202.16796 
   18100   -263.55002    34.445595   -229.10442    2490.4927    164178.55    10.472245    205.95603 
   18200   -257.30665    36.271012   -221.03564    2622.4744    183134.46    10.472245    209.87616 
   18300    -259.2575    35.518924   -223.73858    2568.0968    174566.54    10.472245     212.8165 
   18400   -262.57555     37.48596   -225.08959    2710.3178    170192.78    10.472245    213.63493 
   18500    -255.3874    40.000002    -215.3874    2892.0886    193414.31    10.472245    211.75932 
   18600    -262.5517    38.847857   -223.70384     2808.786    167675.17    10.472245    212.40021 
   18700   -257.63887    35.160047   -222.47882    2542.1492    183704.39    10.472245    215.77357 
   18800   -260.36691    39.527168   -220.83974    2857.9017    176609.96    10.472245    218.12426 
   18900   -260.82299    33.917703   -226.90528    2452.3249    169551.32    10.472245    221.00676 
   19000   -265.79463    41.639771   -224.15486    3010.6475    164080.77    10.472245    224.32384 
   19100   -259.46646    40.351148   -219.11531    2917.4772    181119.79    10.472245    225.20558 
   19200   -259.44891    33.558618   -225.89029    2426.3623    174337.44    10.472245    229.19253 
   19300   -252.97765     37.72371   -215.25394    2727.5077     197655.1    10.472245    226.33582 
   19400   -257.50992    35.883744   -221.62618    2594.4741    183200.42    10.472245    226.06519 
   19500   -260.65819    35.306394   -225.35179    2552.7304    170524.56    10.472245    225.41881 
   19600   -256.81558    40.209899   -216.60568    2907.2647       183416    10.472245    228.19013 
   19700   -258.85499     35.81769    -223.0373    2589.6982    181271.56    10.472245    230.64785 
   19800   -258.17891    35.075085   -223.10382    2536.0063    184283.61    10.472245    232.46785 
   19900   -251.24016      37.5364   -213.70376    2713.9647    201792.84    10.472245    235.78373 
   20000    -258.3482    35.726447   -222.62176    2583.1012     178049.7    10.472245    236.31214 
   20100   -256.71029    33.767954   -222.94234    2441.4977    184960.96    10.472245    238.01033 
   20200   -253.22508    40.483787   -212.74129    2927.0673    194415.25    10.472245    236.35021 
   20300    -252.5812    34.660973   -217.92023     2506.065    193980.49    10.472245    235.66056 
   20400   -257.61311    33.852737   -223.76038    2447.6278    179518.06    10.472245    237.03161 
   20500     -250.192    36.976593   -213.21541    2673.4895    201063.74    10.472245    240.36528 
   20600   -254.09962    35.795491   -218.30412    2588.0932    192984.02    10.472245    240.76274 
   20700   -259.35013    35.683096   -223.66703    2579.9667    175419.92    10.472245    242.80967 
   20800   -259.93771    34.861218    -225.0765    2520.5432    171609.85    10.472245    240.06481 
   20900   -257.80311    39.852782   -217.95033    2881.4443    185175.73    10.472245    238.64178 
   21000   -256.38478    33.364916   -223.01987    2412.3572    182543.61    10.472245    239.91601 
   21100   -255.61926    34.538667   -221.08059     2497.222    192113.43    10.472245    240.11418 
   21200   -257.41842    35.606575   -221.81185    2574.4341    185456.88    10.472245    243.43063 
   21300    -257.5902    32.139174   -225.45102    2323.7333    178253.81    10.472245    243.41904 
   21400   -256.74712    33.269087   -223.47804    2405.4286    184390.51    10.472245    248.17032 
   21500   -254.98835    37.045265   -217.94309    2678.4546    189185.19    10.472245    251.87883 
   21600   -259.77106     35.95506     -223.816    2599.6304    175914.77    10.472245    255.91038 
   21700   -254.27449    32.344302   -221.93019    2338.5646    188975.74    10.472245    256.12233 
   21800   -255.92053    35.909726    -220.0108    2596.3526    186786.98    10.472245     257.4742 
   21900   -259.38472    34.270888   -225.11383     2477.861    175545.78    10.472245    259.32515 
   22000   -256.80615    42.064625   -214.74153    3041.3655    185905.02    10.472245    262.14743 
   22100    -255.0151    31.713271   -223.30183    2292.9397    185782.31    10.472245    262.62595 
   22200   -259.09036    38.294009   -220.79635    2768.7416    179107.87    10.472245    265.46374 
   22300   -252.75578    35.710668   -217.04512    2581.9603    198435.15    10.472245     264.5004 
   22400   -261.13905    34.367645   -226.77141    2484.8568    175253.21    10.472245    264.29259 
   22500   -254.08504    34.092491   -219.99255    2464.9625    189755.99    10.472245    266.62594 
   22600   -258.30387    42.647262   -215.65661    3083.4914    184334.43    10.472245    269.21409 
   22700   -253.60915    33.861884   -219.74727    2448.2891    190492.24    10.472245    270.06382 
   22800   -258.24225    34.802594   -223.43965    2516.3046     175652.7    10.472245    274.36712 
   22900   -265.27402    38.093816   -227.18021    2754.2671    162578.28    10.472245    272.66493 
   23000   -255.40256    37.622666   -217.77989     2720.202    182273.37    10.472245    270.54411 
   23100   -258.44309    36.459661   -221.98343    2636.1141     180500.6    10.472245    275.77203 
   23200   -260.65816    35.845974   -224.81219    2591.7432    171779.65    10.472245    275.56381 
   23300   -261.58978    39.001328   -222.58845    2819.8823    171055.28    10.472245    277.64203 
   23400   -257.07068    34.338448   -222.73223    2482.7457       182702    10.472245    281.00754 
   23500   -257.98405    35.315493   -222.66856    2553.3883    180110.88    10.472245    279.91861 
   23600   -253.02808    37.126857   -215.90122    2684.3539    194446.96    10.472245    284.58191 
   23700   -255.49932    35.081664   -220.41765    2536.4819    189671.65    10.472245    284.84689 
   23800   -256.77297    34.217463   -222.55551    2473.9983    181207.44    10.472245    284.85614 
   23900   -253.99842    41.219529   -212.77889    2980.2631    191670.47    10.472245    284.36381 
   24000   -257.44439    33.975148   -223.46925    2456.4784     180345.2    10.472245     282.7168 
   24100   -258.68598    35.619802   -223.06618    2575.3904    179521.79    10.472245    285.22248 
   24200   -255.88425    40.135588   -215.74866    2901.8918    190963.94    10.472245    289.21543 
   24300   -259.72509     33.62269    -226.1024    2430.9948    174765.41    10.472245    288.64654 
   24400   -257.79248    35.797803   -221.99467    2588.2604    179502.74    10.472245    294.31294 
   24500   -260.61921    41.391734   -219.22747    2992.7139    175238.32    10.472245    299.75623 
   24600   -258.57453    34.977481   -223.59704    2528.9492    185362.39    10.472245    299.85534 
   24700   -257.89131    30.460292   -227.43102    2202.3465    176777.54    10.472245    303.91965 
   24800   -252.15425    35.821983   -216.33227    2590.0086    197138.77    10.472245    305.77183 
   24900   -258.64222    35.406198   -223.23602    2559.9464    177550.57    10.472245    304.43966 
   25000   -261.70995    35.907608   -225.80234    2596.1995    168774.17    10.472245    307.77123 
   25100   -253.22329    37.032523   -216.19077    2677.5334     194331.1    10.472245    305.32533 
   25200   -258.43006    37.484257    -220.9458    2710.1947    179496.03    10.472245    301.94931 
   25300   -258.19709    31.713162   -226.48392    2292.9317    176244.58    10.472245    302.72926 
   25400   -256.68103    39.394259   -217.28677    2848.2921    189786.24    10.472245    307.40113 
   25500   -255.82082     35.00411   -220.81671    2530.8746    189145.37    10.472245    306.48118 
   25600   -263.24659    35.442693   -227.80389    2562.5851    166856.64    10.472245    307.26711 
   25700    -259.5959     32.34413   -227.25177    2338.5522    175598.06    10.472245    308.33436 
   25800   -256.96644    36.720003   -220.24643    2654.9375    188002.82    10.472245    309.87202 
   25900   -258.60268     37.03944   -221.56324    2678.0334    182255.09    10.472245    308.71478 
   26000   -261.22165    33.106529   -228.11512    2393.6753    166504.78    10.472245     308.9223 
   26100   -259.68589      37.3253   -222.36059    2698.7018    175764.42    10.472245    306.33133 
   26200   -259.55593    38.153876   -221.40205    2758.6096    182725.62    10.472245    311.14223 
   26300   -261.55913    35.707605   -225.85152    2581.7388    170907.77    10.472245    314.97901 
   26400    -259.2498    34.883368   -224.36643    2522.1447    177123.91    10.472245    318.04656 
   26500   -253.19704    32.577528   -220.61951    2355.4274    194195.67    10.472245    321.27147 
   26600   -260.46509     37.04799    -223.4171    2678.6516    175461.89    10.472245    320.33712 
   26700   -258.16088    31.202715   -226.95817    2256.0253    173431.02    10.472245    321.02393 
   26800   -256.46456    35.395012   -221.06955    2559.1377     186148.8    10.472245    323.26411 
   26900   -257.56667    33.987468    -223.5792    2457.3691    182522.89    10.472245    326.08031 
   27000   -263.11721    34.434303   -228.68291    2489.6763    166560.69    10.472245    324.30869 
   27100    -255.5552    35.877979   -219.67722    2594.0572    191251.51    10.472245    325.03477 
   27200   -259.01206    34.517013   -224.49505    2495.6564    176578.87    10.472245    326.96071 
   27300   -261.98178     31.87908    -230.1027     2304.928    166280.55    10.472245    325.87081 
   27400   -255.23819    35.649963   -219.58823    2577.5712    189086.05    10.472245    329.21303 
   27500   -259.86344    34.732681   -225.13076    2511.2496    176355.05    10.472245    326.54905 
   27600   -259.21058    31.965312   -227.24526    2311.1628    178030.96    10.472245    327.77602 
   27700   -255.72473    35.221549   -220.50318    2546.5959    185783.66    10.472245    329.97873 
   27800   -261.29236    34.683167   -226.60919    2507.6697    173944.74    10.472245    330.37426 
   27900   -259.53368    39.811584    -219.7221    2878.4656    180169.35    10.472245    332.46101 
   28000   -259.49231    38.303468   -221.18884    2769.4255    178740.05    10.472245    333.53765 
   28100    -259.2898    32.240924   -227.04887    2331.0901    175814.17    10.472245    333.55786 
   28200   -258.74359    39.480172   -219.26342    2854.5037    175890.49    10.472245    330.04523 
   28300   -255.53873    35.536086   -220.00264    2569.3376    189185.78    10.472245    328.06231 
   28400   -259.63877    37.463134   -222.17564    2708.6675    176541.91    10.472245    332.33801 
   28500   -262.66856     35.16018   -227.50838    2542.1588    166897.89    10.472245    336.03118 
   28600   -257.64158    38.976282    -218.6653    2818.0714    187558.01    10.472245    339.40927 
   28700   -258.25904    34.744806   -223.51423    2512.1263    179968.42    10.472245     340.6312 
   28800   -261.88655    31.693476   -230.19307    2291.5084    169504.82    10.472245    340.86797 
   28900   -256.50962    34.160449   -222.34917     2469.876    182978.64    10.472245    341.44481 
   29000     -254.261    35.153017   -219.10798    2541.6409    194080.23    10.472245    344.70712 
   29100   -260.23628    31.679275     -228.557    2290.4817    174801.59    10.472245    342.61567 
   29200   -256.80104    41.264295   -215.53674    2983.4998    190517.47    10.472245    340.26424 
   29300   -256.94037    34.062257   -222.87811    2462.7765    185812.01    10.472245    338.93048 
   29400   -260.33092    35.758419   -224.57251    2585.4128     172633.9    10.472245    338.65387 
   29500   -255.75488    39.866496   -215.88839    2882.4359    187480.57    10.472245    338.60282 
   29600   -260.44055    35.172279   -225.26827    2543.0335    176861.98    10.472245    341.88763 
   29700   -260.68632    35.153048   -225.53327    2541.6431     170151.8    10.472245    347.10195 
   29800   -258.37356    42.116936   -216.25663    3045.1476     180192.8    10.472245    349.03405 
   29900   -261.40427    34.801607   -226.60266    2516.2332    166855.72    10.472245    348.59312 
   30000   -257.50565    34.611546    -222.8941    2502.4913    181493.54    10.472245      350.194 
   30100    -257.6888    38.658721   -219.03008     2795.111    183549.85    10.472245    346.98451 
   30200   -259.30204    29.534562   -229.76748    2135.4141    172953.91    10.472245    351.46951 
   30300   -256.81908    36.532256   -220.28682    2641.3629    184428.08    10.472245    356.10376 
   30400   -257.42305    39.300139   -218.12291    2841.4869       187253    10.472245    357.79844 
   30500    -256.7613    32.705292   -224.05601     2364.665    183835.89    10.472245    359.24046 
   30600   -260.42503    33.988069   -226.43696    2457.4126    170629.91    10.472245    360.51649 
   30700   -257.08707    38.806675    -218.2804    2805.8085    183426.14    10.472245    362.50553 
   30800   -254.68457    33.540978   -221.14359    2425.0869    189519.18    10.472245     360.9968 
   30900   -260.35724    36.259054   -224.09819    2621.6098    175723.02    10.472245    363.08096 
   31000   -259.84149    42.317348   -217.52415    3059.6379    178306.03    10.472245    373.35431 
   31100    -259.4205    31.221893   -228.19861    2257.4119    174640.63    10.472245    375.40891 
   31200   -261.21931    38.549189   -222.67012    2787.1917    174432.31    10.472245    377.25655 
   31300   -255.67892    35.873301   -219.80562     2593.719    186168.04    10.472245    379.88081 
   31400    -262.3626    33.816288   -228.54631    2444.9925    170132.86    10.472245    376.73704 
   31500    -259.2405    34.676626   -224.56388    2507.1967    181219.52    10.472245    376.03533 
   31600   -259.06047    37.172264   -221.88821    2687.6369    177542.88    10.472245    378.54395 
   31700   -264.09667    33.951496   -230.14517    2454.7682    160542.51    10.472245    378.17223 
   31800   -259.62147    33.539445   -226.08202    2424.9761    176372.21    10.472245    382.03916 
   31900   -259.16132    38.587509   -220.57381    2789.9623    180251.99    10.472245    384.98696 
   32000   -251.75447       32.021   -219.73347    2315.1891    196877.85    10.472245    388.87799 
   32100   -258.55058    30.730308   -227.82028    2221.8693    173001.65    10.472245    388.19162 
   32200   -258.71689    40.927936   -217.78896    2959.1803    182120.08    10.472245    390.31625 
   32300   -256.38054    36.176806   -220.20373    2615.6631    180965.51    10.472245    390.63908 
   32400   -261.96574    35.726294   -226.23944    2583.0901    172034.85    10.472245    392.36536 
   32500   -257.37151    39.288476   -218.08303    2840.6437    187184.78    10.472245    388.44963 
   32600   -254.89585    33.082013   -221.81384    2391.9027    188351.62    10.472245    389.49561 
   32700     -264.094    37.794161   -226.29984    2732.6014    166209.14    10.472245    386.68978 
   32800   -260.50649    37.965855   -222.54063    2745.0153    176610.81    10.472245    388.34113 
   32900   -256.83577    35.377878   -221.45789    2557.8988    185012.91    10.472245    388.38443 
   33000   -257.24197    35.442064   -221.79991    2562.5396    182253.71    10.472245    391.86607 
   33100   -259.06942    33.770812    -225.2986    2441.7044    175469.11    10.472245    391.38003 
   33200   -257.36107    35.130543   -222.23052     2540.016    181012.82    10.472245    392.59599 
   33300    -259.1413    44.630056   -214.51124    3226.8518     182826.2    10.472245    395.36561 
   33400   -260.49834    39.443781   -221.05456    2851.8726     176614.9    10.472245    399.95106 
   33500   -259.26631    37.588999   -221.67731    2717.7678    178296.43    10.472245    401.00633 
   33600   -260.17303    46.654424    -213.5186     3373.218    186442.96    10.472245    401.41253 
   33700   -258.72195    34.471412   -224.25054    2492.3593    180275.83    10.472245    405.08594 
   33800   -259.64825    36.920392   -222.72786     2669.426    177598.91    10.472245    407.83703 
   33900   -251.92232    38.074562   -213.84776     2752.875    201537.26    10.472245    409.88554 
   34000   -259.18338    33.763867   -225.41951    2441.2023    173605.28    10.472245    411.14074 
   34100   -254.44071     30.98573   -223.45498    2240.3368    187051.48    10.472245    412.03595 
   34200   -253.93663    37.490672   -216.44596    2710.6585       193907    10.472245    410.49548 
   34300   -258.89926    39.057869   -219.84139    2823.9703    180853.34    10.472245    409.23848 
   34400   -257.96269    29.078075   -228.88461    2102.4092    175032.67    10.472245    404.97411 
   34500   -260.68539    36.739724   -223.94567    2656.3633    177000.93    10.472245    407.07188 
   34600   -257.50835    37.061797   -220.44656    2679.6499    182226.01    10.472245    411.14503 
   34700   -260.26613    33.325481   -226.94065     2409.506    171346.68    10.472245    412.11096 
   34800   -261.82482    31.861714    -229.9631    2303.6724     169149.5    10.472245    408.39467 
   34900   -257.71263    34.423734    -223.2889    2488.9121    180715.69    10.472245    412.43812 
   35000   -252.15131    33.111901   -219.03941    2394.0637    199039.46    10.472245    413.44396 
   35100   -259.04938    30.886676    -228.1627     2233.175    175240.28    10.472245    409.36866 
   35200   -260.13266    36.168379   -223.96428    2615.0538    176167.45    10.472245    408.88996 
   35300   -257.68875    36.506607   -221.18214    2639.5085    179852.77    10.472245    409.87032 
   35400   -258.80211    37.697762   -221.10435    2725.6316    175456.01    10.472245    410.84179 
   35500   -259.54231    36.654071   -222.88824    2650.1704    178194.85    10.472245    412.34151 
   35600   -255.32442    36.277531   -219.04689    2622.9458     190083.2    10.472245    409.10926 
   35700   -260.42345    35.859236   -224.56421    2592.7021    172354.39    10.472245    414.64551 
   35800   -262.06118    35.309182     -226.752     2552.932    169269.44    10.472245    413.38944 
   35900   -256.93401    38.875303   -218.05871    2810.7704    187971.42    10.472245    416.28382 
   36000   -261.99436     40.98768   -221.00668    2963.4999    177713.87    10.472245    417.64226 
   36100   -261.48865    35.861145    -225.6275    2592.8401    171102.79    10.472245    421.05757 
   36200   -262.10177    32.232994   -229.86877    2330.5168    166077.12    10.472245    422.44174 
   36300   -258.31871    36.357293   -221.96142    2628.7127    178311.27    10.472245    419.59128 
   36400   -258.26464    36.631121   -221.63352    2648.5111    183483.59    10.472245    420.17838 
   36500   -264.67135    34.894885   -229.77646    2522.9774    160221.62    10.472245    424.20761 
   36600     -258.848    36.746889   -222.10111    2656.8814    179902.43    10.472245    423.17009 
   36700   -260.92031    37.596172   -223.32414    2718.2864    171838.79    10.472245    425.46815 
   36800   -262.12983    31.045192   -231.08464    2244.6361    167043.79    10.472245    426.91454 
   36900   -258.51905    38.534334   -219.98472    2786.1176    181792.71    10.472245    424.62898 
   37000   -262.10902    34.981075   -227.12794    2529.2091    167451.85    10.472245     428.2271 
   37100    -258.2205    33.462987   -224.75752     2419.448    180611.66    10.472245    423.55723 
   37200   -256.30854    37.869216   -218.43932    2738.0281    185395.59    10.472245    424.70901 
   37300    -259.5523    32.154734   -227.39756    2324.8584    173548.08    10.472245    422.65139 
   37400   -257.88336    35.460169    -222.4232    2563.8487    179983.71    10.472245    423.05122 
   37500   -258.33359    36.737917   -221.59568    2656.2327    183142.18    10.472245    419.37871 
   37600   -255.78916      31.7827   -224.00646    2297.9595    182319.34    10.472245    420.55207 
   37700   -260.26952    35.894844   -224.37468    2595.2766    178612.86    10.472245    421.10978 
   37800   -255.66369    39.579015   -216.08467    2861.6504    189838.96    10.472245    421.28898 
   37900   -261.84948    36.297636   -225.55184    2624.3994    172165.53    10.472245    421.23413 
   38000   -257.57903    32.441683   -225.13735    2345.6055    174567.16    10.472245    422.16573 
   38100   -254.91822      36.2496   -218.66862    2620.9263    194544.11    10.472245     425.9106 
   38200   -260.71474    32.164109   -228.55063    2325.5362    167242.46    10.472245    423.10453 
   38300    -262.4841    37.984918   -224.49918    2746.3936    171303.46    10.472245    421.37739 
   38400   -254.77362    35.481354   -219.29226    2565.3804    190459.15    10.472245      424.065 
   38500   -261.87896    35.388398   -226.49057    2558.6594    168719.53    10.472245    424.18949 
   38600    -260.6657    34.229681   -226.43602    2474.8816    172488.75    10.472245    426.39335 
   38700    -260.0432    39.528163   -220.51504    2857.9736    181979.38    10.472245    426.73905 
   38800   -257.74879     35.70478   -222.04401    2581.5346    185201.66    10.472245    433.26746 
   38900   -262.47791     40.77715   -221.70076    2948.2781    168909.32    10.472245    436.36162 
   39000    -257.9424    35.719139   -222.22326    2582.5728    183740.33    10.472245    435.83091 
   39100   -253.65985    35.967275   -217.69257    2600.5135    196540.76    10.472245    442.71504 
   39200   -257.76173    41.808536    -215.9532    3022.8496    185422.92    10.472245    442.85646 
   39300   -255.27277    32.934004   -222.33877    2381.2013    185874.12    10.472245     446.2872 
   39400   -257.18715    38.665506   -218.52165    2795.6016    179292.45    10.472245    448.63497 
   39500   -256.39531    43.862407    -212.5329     3171.349    193147.64    10.472245    449.65276 
   39600   -255.68171    30.302901   -225.37881    2190.9668    182212.47    10.472245    453.11307 
   39700   -255.50264    32.584421   -222.91822    2355.9257    182694.33    10.472245    454.69711 
   39800   -252.96798    36.827898   -216.14008    2662.7385    197850.13    10.472245    460.39026 
   39900    -258.5511    34.647406   -223.90369    2505.0841    181416.27    10.472245    461.46654 
   40000   -257.09956    33.679562      -223.42    2435.1068    182330.25    10.472245      461.106 
   40100   -252.70247    39.377447   -213.32503    2847.0765    197749.85    10.472245    455.81893 
   40200   -255.48529    36.800517   -218.68478    2660.7588    190981.18    10.472245     455.9699 
   40300    -258.7056     35.67295   -223.03265    2579.2332    177215.23    10.472245    459.40718 
   40400   -256.14413    38.053058   -218.09108    2751.3203    187046.71    10.472245    458.72565 
   40500   -253.87133    38.394144   -215.47718    2775.9815    195200.86    10.472245    461.24218 
   40600   -259.87798    35.032104   -224.84587    2532.8986     175358.9    10.472245    459.43078 
   40700   -255.47374    37.196937   -218.27681    2689.4208    191679.89    10.472245    464.02014 
   40800    -254.8675      35.1366    -219.7309    2540.4539    191476.22    10.472245    464.37874 
   40900   -258.50938    33.956637   -224.55274      2455.14     181941.9    10.472245    473.07599 
   41000   -254.13809    38.480703   -215.65739    2782.2399    193123.09    10.472245    472.65917 
   41100   -254.31496    37.557201   -216.75775    2715.4687     195560.2    10.472245    472.07282 
   41200   -254.57245     35.27531   -219.29714     2550.483    190390.18    10.472245    477.14381 
   41300   -257.32856    35.065827   -222.26273    2535.3368    180051.65    10.472245    480.23875 
   41400   -258.29172    30.361198   -227.93053    2195.1818     174857.3    10.472245    478.79047 
   41500   -255.91978    36.750341   -219.16944     2657.131     186244.5    10.472245    482.59726 
   41600   -257.85882    38.783259   -219.07556    2804.1154    183790.69    10.472245     481.1269 
   41700   -262.09076    34.491747   -227.59901    2493.8296    168908.32    10.472245    481.18559 
   41800   -258.27705    35.154145    -223.1229    2541.7224     182633.8    10.472245    477.88597 
   41900   -256.54199     36.72088   -219.82111    2655.0008    184077.42    10.472245    477.21952 
   42000   -253.57486    38.688559    -214.8863    2797.2684    195916.42    10.472245    474.48136 
   42100   -258.58193    34.890295   -223.69164    2522.6455    179301.31    10.472245    471.92028 
   42200   -260.02882     36.25325   -223.77557    2621.1902    177740.93    10.472245    472.72047 
   42300   -256.94165    41.479226   -215.46242    2999.0398    192837.39    10.472245    475.28722 
   42400   -257.26683    35.441965   -221.82487    2562.5325     184611.2    10.472245    477.36903 
   42500   -258.31448    32.164367   -226.15011    2325.5549    179942.12    10.472245    482.61144 
   42600   -253.76631    37.205741   -216.56057    2690.0574    193182.09    10.472245    478.00925 
   42700   -257.79306    34.886938   -222.90612    2522.4028    182784.77    10.472245    482.34367 
   42800   -261.71429     40.48714   -221.22715    2927.3098    172542.81    10.472245    484.92856 
   42900   -255.52117    41.584529   -213.93664    3006.6534    193821.05    10.472245    488.73792 
   43000   -256.84117    33.931015   -222.91015    2453.2874    183796.73    10.472245    489.84647 
   43100   -259.89387    35.392924   -224.50095    2558.9867    175541.71    10.472245    489.82082 
   43200   -258.28017    31.703334   -226.57684    2292.2212    177473.83    10.472245     490.9271 
   43300   -259.06042    38.206715   -220.85371      2762.43    178191.85    10.472245    496.35566 
   43400   -259.23638    32.584391   -226.65198    2355.9235    177716.36    10.472245     487.7855 
   43500   -260.34262    35.182706   -225.15991    2543.7875    173685.88    10.472245    490.33565 
   43600   -258.01802     41.10554   -216.91248    2972.0214    182391.77    10.472245    490.62067 
   43700   -257.85147    31.995873   -225.85559    2313.3724    179399.06    10.472245    492.34399 
   43800   -258.65449    31.988867   -226.66562    2312.8659    180098.84    10.472245    492.02845 
   43900     -258.409    36.148839   -222.26016     2613.641    182464.52    10.472245     495.7774 
   44000   -255.79457    40.928125   -214.86644     2959.194    188491.79    10.472245    496.70273 
   44100   -259.30213    34.820268   -224.48186    2517.5824    174980.76    10.472245     501.1139 
   44200     -263.329    36.608116   -226.72088    2646.8478    164937.04    10.472245    499.82647 
   44300   -255.80507    39.028431   -216.77664    2821.8419    190431.41    10.472245    501.46298 
   44400   -258.66331    35.133162   -223.53015    2540.2053    179291.66    10.472245    505.82464 
   44500   -258.60347    33.771964   -224.83151    2441.7877    176531.68    10.472245    505.34035 
   44600   -257.24124    38.232778   -219.00846    2764.3144    185884.56    10.472245    506.88336 
   44700    -260.0125    37.525535   -222.48697    2713.1792    178228.53    10.472245     507.2743 
   44800   -258.09389    33.394274   -224.69961    2414.4799    181738.53    10.472245    511.10699 
   44900   -255.02198    35.683005   -219.33897    2579.9602    189947.92    10.472245    511.47688 
   45000   -256.23929    35.056362   -221.18293    2534.6525    183351.36    10.472245    511.10033 
   45100   -259.48579    36.126876   -223.35891     2612.053    180431.93    10.472245    512.55608 
   45200   -258.83331    38.277222   -220.55608    2767.5279    175896.97    10.472245    516.34461 
   45300    -256.1177    35.754291   -220.36341    2585.1143    187695.01    10.472245     519.8567 
   45400   -256.40615    38.399136   -218.00701    2776.3425    192133.53    10.472245    530.41413 
   45500   -260.75737    32.942329   -227.81504    2381.8032    169949.57    10.472245    533.54324 
   45600   -259.12529    35.943325   -223.18197    2598.7819    179954.69    10.472245    533.56588 
   45700   -258.82213    37.155228    -221.6669    2686.4052    177843.14    10.472245    536.29817 
   45800   -258.50878    33.203938   -225.30485    2400.7181    181887.99    10.472245    534.11823 
   45900   -257.26193     41.97917   -215.28276    3035.1868    187781.27    10.472245    535.32144 
   46000   -259.12519    35.758227   -223.36696    2585.3989    177090.27    10.472245    537.90397 
   46100   -256.05348    34.447807   -221.60567    2490.6527    184101.65    10.472245    536.42649 
   46200   -259.61264    40.447637     -219.165    2924.4536    176949.23    10.472245    539.05983 
   46300   -253.80862     29.48154   -224.32708    2131.5806    189265.22    10.472245    544.47311 
   46400   -257.00712     35.45668   -221.55044    2563.5964     185159.9    10.472245    538.99824 
   46500   -257.36998    38.414706   -218.95528    2777.4682    185524.79    10.472245    541.67055 
   46600   -260.40593    31.512187   -228.89375    2278.4008    172110.98    10.472245    544.19722 
   46700    -261.2582    37.870355   -223.38784    2738.1105    176395.66    10.472245    542.15021 
   46800   -257.99525    35.010047   -222.98521    2531.3039    181172.36    10.472245    544.38909 
   46900   -264.40711    34.156992   -230.25012    2469.6261    159801.53    10.472245    549.94575 
   47000   -259.01798    37.461681    -221.5563    2708.5624     178811.5    10.472245     550.0339 
   47100   -256.40194     36.66609   -219.73585    2651.0394    184798.08    10.472245    556.69194 
   47200   -261.35894    34.448828   -226.91011    2490.7264    170700.42    10.472245    556.04743 
   47300   -257.21163    32.542252   -224.66938    2352.8768    181237.32    10.472245    558.29577 
   47400   -259.42274    39.802414   -219.62033    2877.8025    178961.98    10.472245    560.08143 
   47500   -262.95423    35.484686   -227.46955    2565.6213    164255.68    10.472245    559.12854 
   47600    -263.4695    38.464481   -225.00502     2781.067    167031.68    10.472245    557.49446 
   47700   -255.16337    36.109082   -219.05428    2610.7665    193484.55    10.472245    562.42989 
   47800   -257.06267     33.91509   -223.14758     2452.136     182797.6    10.472245    566.81077 
   47900   -256.90208    40.897604   -216.00448    2956.9873    189303.74    10.472245    565.86479 
   48000   -255.60936    36.818363     -218.791    2662.0491    185623.99    10.472245    568.72813 
   48100   -254.47863    30.642623   -223.83601    2215.5294    187345.44    10.472245      566.068 
   48200   -256.42776    40.858977   -215.56878    2954.1944    188131.93    10.472245    567.77786 
   48300   -261.49612    36.550292   -224.94583     2642.667     177001.9    10.472245    569.60837 
   48400   -257.47017    35.267119   -222.20305    2549.8907     182331.8    10.472245    568.50834 
   48500   -254.48215    39.926601   -214.55555    2886.7816     190116.3    10.472245    567.57634 
   48600   -256.92529    33.637061   -223.28823    2432.0339    183255.99    10.472245    575.36646 
   48700   -256.37021    35.846858   -220.52335    2591.8071     185910.2    10.472245    569.01459 
   48800   -254.16972    39.166756   -215.00296    2831.8431    194412.38    10.472245     569.0928 
   48900   -254.78002    34.165179   -220.61484     2470.218    192080.16    10.472245    575.19081 
   49000   -265.66665    41.308431   -224.35822    2986.6909    164903.87    10.472245    572.90684 
   49100    -257.6121    38.019215   -219.59289    2748.8734    181285.42    10.472245    577.66413 
   49200   -249.96385    33.393846   -216.57001    2414.4489    205850.44    10.472245    578.03094 
   49300   -258.17701     33.14987   -225.02714    2396.8089    176130.62    10.472245     578.4892 
   49400   -259.52057    40.643954   -218.87661    2938.6478    182181.38    10.472245    577.28652 
   49500     -252.072    37.514337   -214.55767    2712.3695     203292.6    10.472245    580.01556 
   49600   -259.45722    37.065785   -222.39144    2679.9383    177370.93    10.472245    581.21324 
   49700   -258.71301    34.753736   -223.95927     2512.772    180155.64    10.472245    582.93629 
   49800   -255.70948    39.002053   -216.70743    2819.9347    190373.94    10.472245     588.7118 
   49900   -259.22609    34.121206   -225.10489    2467.0386    173956.04    10.472245    589.93511 
   50000    -259.1732    37.842492   -221.33071    2736.0959    181051.03    10.472245    593.13548 
   50100   -256.64965    40.586833   -216.06282    2934.5178    186681.06    10.472245    593.17758 
   50200   -254.00556    31.809307   -222.19625    2299.8832    191211.39    10.472245    597.93604 
   50300   -260.18392    37.051782   -223.13213    2678.9258    177468.72    10.472245    603.28245 
   50400   -254.16372     38.18308   -215.98064    2760.7212     193441.2    10.472245    604.68212 
   50500   -256.93789    32.067387   -224.87051     2318.543    182765.66    10.472245    608.08074 
   50600   -259.10912     36.53926   -222.56986    2641.8693    180167.72    10.472245    605.37623 
   50700   -252.74751    31.160873   -221.58664    2253.0001    192902.91    10.472245    605.75028 
   50800   -260.22667    40.098314   -220.12835    2899.1968    175059.35    10.472245    601.77884 
   50900   -263.07397    34.618859   -228.45511    2503.0201    164696.27    10.472245    607.98396 
   51000   -257.42888    35.437448   -221.99143    2562.2059    182106.47    10.472245    610.80023 
   51100   -257.79374    35.167792   -222.62595    2542.7092    182256.48    10.472245    610.39079 
   51200   -263.07842    33.230821    -229.8476    2402.6619    166118.26    10.472245    611.20691 
   51300   -260.92917    34.490111   -226.43906    2493.7113     172297.9    10.472245    607.70456 
   51400   -257.82983    39.170382   -218.65945    2832.1053    185711.44    10.472245    610.59732 
   51500   -257.26958     32.21115   -225.05843    2328.9374     185027.3    10.472245    610.85514 
   51600   -258.26479    38.262506   -220.00228    2766.4638    184751.12    10.472245    611.03807 
   51700    -259.7782    39.954911   -219.82329    2888.8285    179394.31    10.472245    613.70829 
   51800   -259.13856    33.780198   -225.35837     2442.383    178648.71    10.472245    615.35191 
   51900   -254.01207    40.028355   -213.98372    2894.1386    194814.24    10.472245      613.793 
   52000   -258.90303    37.221152   -221.68188    2691.1716    180275.23    10.472245    615.32724 
   52100   -256.32516    32.966157     -223.359    2383.5261     184156.3    10.472245    619.70127 
   52200   -257.43445    38.749389   -218.68506    2801.6665    181061.47    10.472245    620.80821 
   52300    -255.7826    39.588693   -216.19391      2862.35    190037.94    10.472245    617.42965 
   52400   -259.92111    34.775187   -225.14592     2514.323    180071.91    10.472245    616.04022 
   52500   -253.95438    35.987494   -217.96689    2601.9754    188903.45    10.472245    621.82054 
   52600   -259.95281    33.500574   -226.45223    2422.1656    176111.98    10.472245    628.06414 
   52700   -261.69724    36.654732   -225.04251    2650.2182    171282.22    10.472245    631.63527 
   52800   -256.79382    38.947082   -217.84674    2815.9602    187530.11    10.472245    632.24418 
   52900   -264.38339    38.378582   -226.00481    2774.8564    165752.23    10.472245    628.90808 
   53000   -257.51306    32.358772   -225.15429    2339.6108    179965.76    10.472245    630.46363 
   53100   -254.93346    36.130931   -218.80253    2612.3462    192313.25    10.472245    630.38024 
   53200   -256.33847    33.579011   -222.75946    2427.8368    182532.16    10.472245    631.08257 
   53300   -255.65034    35.731166   -219.91918    2583.4423     192143.5    10.472245    633.53158 
   53400   -263.04268    42.121558   -220.92112    3045.4818    167514.81    10.472245    634.10964 
   53500   -259.89563     33.69441   -226.20122    2436.1804    175925.25    10.472245    641.83207 
   53600   -257.88692    42.192168   -215.69475    3050.5871    187383.69    10.472245    645.14572 
   53700   -256.89362    33.467234   -223.42638    2419.7551    178902.72    10.472245    639.48673 
   53800   -257.12813    35.856577   -221.27155    2592.5098     183060.4    10.472245    647.34237 
   53900   -257.40537    37.962915   -219.44245    2744.8028     180775.8    10.472245    648.95108 
   54000   -261.04492    33.021578   -228.02334    2387.5331    173069.65    10.472245     647.4434 
   54100   -261.11367    40.987717   -220.12595    2963.5026    173188.99    10.472245    644.03697 
   54200   -260.40853    38.972524     -221.436    2817.7997    179009.66    10.472245    649.21576 
   54300   -256.73248    36.656188   -220.07629    2650.3235    187263.35    10.472245    652.93223 
   54400   -252.93107    43.415252   -209.51582    3139.0188    200768.44    10.472245    654.39713 
   54500   -255.19422    35.232835   -219.96139    2547.4119    191110.08    10.472245    652.61146 
   54600   -260.58704    35.522659   -225.06438    2568.3668    173325.06    10.472245    656.97399 
   54700   -263.74305    32.719969   -231.02308    2365.7262       159321    10.472245    658.64144 
   54800   -254.79253    33.307407   -221.48512    2408.1992    187702.58    10.472245    664.19354 
   54900   -257.74009    39.144443   -218.59565    2830.2298    183156.14    10.472245    665.09445 
   55000   -263.50359    36.260475   -227.24312    2621.7125    165938.54    10.472245    667.61484 
   55100   -260.98697    37.856298   -223.13067    2737.0941    179005.07    10.472245    664.36265 
   55200   -256.75537    37.362084   -219.39328    2701.3613    181654.95    10.472245    662.59166 
   55300   -256.40749     30.85914   -225.54835    2231.1841     183555.9    10.472245    668.96049 
   55400   -256.64542     41.43733   -215.20809    2996.0106    192329.18    10.472245    672.98584 
   55500   -255.70279    33.797422   -221.90537    2443.6283    187709.24    10.472245    676.14289 
   55600   -263.74975    39.987453    -223.7623    2891.1813    166240.62    10.472245    675.95362 
   55700   -257.36109    36.918633   -220.44246    2669.2988    184819.93    10.472245    672.52207 
   55800   -258.33492    38.385417    -219.9495    2775.3505    183785.56    10.472245    673.19292 
   55900   -260.08776    35.455294   -224.63247    2563.4962    174059.88    10.472245    672.05333 
   56000   -261.30293    32.946786   -228.35615    2382.1255    169975.41    10.472245    677.63437 
   56100   -254.02435    36.762182   -217.26217    2657.9871    192809.08    10.472245    674.05897 
   56200   -255.66484    34.058119   -221.60672    2462.4773    184607.43    10.472245    675.18342 
   56300    -263.5147     33.05315   -230.46155    2389.8158    162544.67    10.472245    678.57765 
   56400   -260.45724    38.068333   -222.38891    2752.4247    174457.66    10.472245    678.57588 
   56500   -256.06935    36.887888   -219.18146    2667.0759     187124.1    10.472245    676.33241 
   56600    -257.3969    38.078452   -219.31845    2753.1563    179256.72    10.472245    674.75313 
   56700   -259.94664    32.410063   -227.53658    2343.3193    171699.21    10.472245    677.34723 
   56800   -257.01101    36.978362   -220.03265    2673.6174    183778.31    10.472245    684.98349 
   56900   -257.78657    40.973149   -216.81342    2962.4493    184818.43    10.472245    682.14282 
   57000   -258.49953    34.178162   -224.32137    2471.1567    178383.28    10.472245    685.67702 
   57100   -256.90157    34.059821   -222.84175    2462.6004    185240.48    10.472245    686.61909 
   57200   -253.52814    40.174308   -213.35383    2904.6913    195319.75    10.472245    687.40646 
   57300   -254.54462    35.856146   -218.68847    2592.4786    190444.31    10.472245    682.08313 
   57400   -259.64368    34.365367   -225.27831    2484.6921    175261.52    10.472245    683.27187 
   57500   -260.55177    35.779538   -224.77223    2586.9397    174573.38    10.472245    680.20974 
   57600   -260.01103    42.064807   -217.94623    3041.3786    175918.91    10.472245    676.21558 
   57700   -255.78504    32.719564   -223.06547    2365.6969    190018.63    10.472245    678.98576 
   57800   -260.14238    35.996212   -224.14616    2602.6058    172960.55    10.472245    684.11676 
   57900   -257.18337     36.29443   -220.88894    2624.1675    182703.38    10.472245    690.24442 
   58000   -254.63693    39.375813   -215.26112    2846.9584    189463.92    10.472245    692.36747 
   58100   -256.41923    34.172523   -222.24671     2470.749    187071.76    10.472245    692.75971 
   58200   -254.72064    34.468185   -220.25246     2492.126     189912.1    10.472245    692.91757 
   58300   -254.10171    40.568866   -213.53284    2933.2187    197274.77    10.472245    698.74937 
   58400   -260.46718    36.211293   -224.25588    2618.1565    173831.49    10.472245     700.7081 
   58500   -257.65341    36.232137   -221.42127    2619.6636    179894.36    10.472245    704.97017 
   58600   -256.55342    41.638377   -214.91505    3010.5467    187369.11    10.472245    714.46462 
   58700   -260.12748    35.685053   -224.44243    2580.1082    174054.85    10.472245    715.50047 
   58800    -262.2206    33.770934   -228.44967    2441.7133    164340.94    10.472245    708.14135 
   58900   -255.19111    35.646976   -219.54413    2577.3552    192247.76    10.472245    705.96772 
   59000   -252.81835    33.602306   -219.21604     2429.521    194452.27    10.472245    706.23256 
   59100   -256.56452    31.565264   -224.99926    2282.2384    182795.65    10.472245    709.30948 
   59200   -253.71679    35.971859   -217.74493     2600.845    192961.69    10.472245    708.60447 
   59300    -254.7909    38.792374   -215.99852    2804.7745    196942.26    10.472245    709.61987 
   59400   -255.07842    30.900619   -224.17781    2234.1831    187862.26    10.472245    711.99983 
   59500   -257.63628    35.566023   -222.07026    2571.5021    184807.82    10.472245    715.45348 
   59600   -255.25911    33.920422   -221.33868    2452.5216    188736.48    10.472245    715.19525 
   59700   -257.33158    29.584488   -227.74709    2139.0239    178497.89    10.472245    709.83221 
   59800   -257.04412    39.090494   -217.95363    2826.3291    188193.76    10.472245    712.25821 
   59900   -257.87559    37.152942   -220.72265    2686.2399    185027.98    10.472245     711.1193 
   60000   -262.97173    34.040244   -228.93148     2461.185    167506.47    10.472245     709.2762 
   60100   -257.12441    36.387356   -220.73706    2630.8863    184785.28    10.472245    709.97068 
   60200   -260.30288    34.696736   -225.60614    2508.6508    172492.22    10.472245    710.88575 
   60300   -262.69798     32.61567   -230.08231    2358.1851    166413.73    10.472245    717.02231 
   60400   -263.05077    39.157664   -223.89311    2831.1857    167228.78    10.472245    716.30656 
   60500   -256.81975    37.627551    -219.1922    2720.5551    188413.09    10.472245    717.45173 
   60600    -253.4128    34.151354   -219.26145    2469.2185     195026.5    10.472245    717.10047 
   60700   -258.13915    34.571334   -223.56782    2499.5839    178361.35    10.472245    714.43843 
   60800   -256.10377    42.879772     -213.224    3100.3024    187643.34    10.472245    715.23687 
   60900   -259.43423    38.811464   -220.62277    2806.1547    180930.55    10.472245    717.00259 
   61000   -262.30795    34.698468   -227.60948     2508.776    168748.66    10.472245    720.20313 
   61100    -258.7025     36.58676   -222.11574    2645.3037    180925.68    10.472245    717.02744 
   61200   -257.35099    38.256373   -219.09462    2766.0204    187756.57    10.472245    720.77572 
   61300   -256.47055     31.60774   -224.86281    2285.3095    184756.13    10.472245    725.57742 
   61400   -262.21697    30.884861   -231.33211    2233.0437    162897.21    10.472245    725.86594 
   61500   -255.00258    34.044469   -220.95811    2461.4904    186715.55    10.472245    726.81524 
   61600   -256.06557    34.363264   -221.70231      2484.54    185136.01    10.472245    728.70134 
   61700   -261.69347    32.072048   -229.62142      2318.88    169505.02    10.472245    729.34893 
   61800   -257.93292    36.268355   -221.66457    2622.2823    179726.62    10.472245    735.27625 
   61900   -256.99063    37.174532    -219.8161    2687.8009     183245.6    10.472245    731.43346 
   62000   -256.84321     33.04509   -223.79812    2389.2331    183439.35    10.472245    735.55984 
   62100   -256.91789    32.150057   -224.76783    2324.5203    186792.79    10.472245    739.55964 
   62200   -251.68651    35.189697   -216.49681     2544.293    203916.03    10.472245    738.30099 
   62300    -260.0772    36.503511   -223.57369    2639.2846    174391.62    10.472245      735.846 
   62400   -263.83212    35.135986   -228.69613    2540.4095    162030.96    10.472245    733.58303 
   62500   -259.95143    32.885652   -227.06578    2377.7054     171602.5    10.472245    734.08069 
   62600   -255.51564     36.98109   -218.53455    2673.8146    187420.98    10.472245    734.65867 
   62700   -258.48574    35.193531   -223.29221    2544.5701     180413.8    10.472245    732.65245 
   62800   -257.23613    30.734084   -226.50204    2222.1423    177474.86    10.472245    739.26081 
   62900   -258.14185     36.13499   -222.00686    2612.6397     180111.7    10.472245    739.71615 
   63000   -256.93751     38.64357   -218.29394    2794.0156    185541.28    10.472245    744.23464 
   63100    -261.5675    34.019157   -227.54834    2459.6603    170658.06    10.472245    745.92733 
   63200   -259.41408    38.769416   -220.64466    2803.1145    180143.17    10.472245    748.49093 
   63300   -255.40717    35.164587   -220.24259    2542.4774    189586.69    10.472245    748.24077 
   63400    -256.7495    33.345188   -223.40431    2410.9308    183635.12    10.472245     746.6245 
   63500   -252.12013    38.415013   -213.70512    2777.4904    200201.21    10.472245    749.97525 
   63600   -257.09253    36.272177   -220.82035    2622.5586    186352.32    10.472245    745.37692 
   63700   -258.96891    34.453042   -224.51587    2491.0311    175025.68    10.472245    743.15445 
   63800   -255.37292    34.362429   -221.01049    2484.4796    189217.65    10.472245    749.63811 
   63900   -257.93488    42.933601   -215.00128    3104.1943    186226.68    10.472245    749.14441 
   64000   -259.48259    36.144344   -223.33825     2613.316    179226.86    10.472245    750.77021 
   64100   -261.52126    39.052056   -222.46921      2823.55    174892.06    10.472245    750.06989 
   64200   -258.75997    42.839829   -215.92014    3097.4144    181225.05    10.472245    754.42245 
   64300   -259.69894    34.998283   -224.70066    2530.4533    176437.55    10.472245    758.92603 
   64400    -259.4174    33.711826   -225.70557    2437.4396    178947.92    10.472245    758.17994 
   64500   -257.99057    35.254448   -222.73612    2548.9746    177923.26    10.472245     759.4195 
   64600   -256.00042    35.475832   -220.52459    2564.9811    186365.97    10.472245      758.903 
   64700   -257.96603    35.518951   -222.44708    2568.0988    180285.98    10.472245    762.81763 
   64800   -256.34241    34.167555   -222.17485    2470.3898     185323.1    10.472245    763.20688 
   64900   -257.77981    36.197852   -221.58196    2617.1847    180527.73    10.472245    767.05725 
   65000    -260.9689    29.764081   -231.20482    2152.0089    167829.59    10.472245    766.26295 
   65100   -258.14256     34.10752   -224.03504    2466.0491    179690.01    10.472245    769.71645 
   65200   -255.39181    34.961435   -220.43038    2527.7891    189725.46    10.472245    775.23801 
   65300   -253.01485     38.85926   -214.15559    2809.6105    198146.89    10.472245    777.93361 
   65400   -257.69279    34.725634   -222.96716    2510.7401    182066.55    10.472245    778.85067 
   65500   -256.85368    34.468119   -222.38556    2492.1212    183095.57    10.472245    783.90427 
   65600   -250.50609    37.989424   -212.51667    2746.7194    202229.79    10.472245    781.57876 
   65700   -254.65333    37.458703   -217.19463    2708.3471    191266.07    10.472245    785.91316 
   65800   -254.35402    31.407403   -222.94661    2270.8247    191946.17    10.472245    792.17253 
   65900    -254.4786    36.449266   -218.02933    2635.3625    189390.36    10.472245    785.53188 
   66000   -254.80253    37.023675   -217.77885    2676.8936    190847.02    10.472245    786.16898 
   66100   -256.63274     34.03796   -222.59478    2461.0198    184541.08    10.472245    791.99554 
   66200   -255.80391    36.270986   -219.53292    2622.4725    188640.64    10.472245    796.24955 
   66300   -258.81213    29.974461   -228.83767    2167.2198    175940.39    10.472245    793.29314 
   66400   -258.36641    37.425966   -220.94045    2705.9801    182506.43    10.472245    796.57203 
   66500   -257.96436    37.864214   -220.10014    2737.6664    188724.46    10.472245      795.754 
   66600    -261.6008    32.895551   -228.70525    2378.4211    167427.88    10.472245    798.76906 
   66700   -264.48561    40.217225   -224.26838    2907.7943    168245.63    10.472245    802.01801 
   66800   -253.31475    32.162607   -221.15214    2325.4276    193555.14    10.472245    806.51476 
   66900   -262.72329    36.546211   -226.17708    2642.3719     169544.7    10.472245    805.43968 
   67000   -263.10479    35.261763   -227.84302    2549.5035     166168.3    10.472245    805.28684 
   67100   -259.59252    37.803512     -221.789    2733.2775    178524.61    10.472245    811.53031 
   67200   -258.31022    33.019168   -225.29105    2387.3588    176628.21    10.472245    813.97582 
   67300    -261.2511    44.284818   -216.96629    3201.8903    182248.94    10.472245    813.50727 
   67400   -260.92223    35.433536    -225.4887     2561.923    168834.85    10.472245     814.4517 
   67500   -256.36196    35.284611   -221.07735    2551.1554    183434.72    10.472245    816.65849 
   67600   -256.46981    38.168738   -218.30107    2759.6842    189811.76    10.472245    828.43516 
   67700   -257.14663    34.471208   -222.67542    2492.3446    184922.03    10.472245     829.7957 
   67800   -255.40322    38.309866   -217.09335    2769.8881    190365.88    10.472245    829.36848 
   67900   -251.16528    35.090713   -216.07457    2537.1361    199349.71    10.472245    827.00005 
   68000   -261.47643    36.964705   -224.51172    2672.6299     172050.2    10.472245    829.53703 
   68100   -260.29307    35.973487   -224.31958    2600.9627    172561.63    10.472245     827.5346 
   68200   -251.41445    34.450086   -216.96437    2490.8174    201176.67    10.472245    823.49122 
   68300   -255.48889    31.794013   -223.69487    2298.7775    186404.89    10.472245    824.36225 
   68400   -259.63472     35.71401   -223.92071    2582.2019    178303.86    10.472245    821.06986 
   68500   -258.98812    40.611262   -218.37686    2936.2841    180230.49    10.472245    826.20449 
   68600   -261.58643    35.904556   -225.68188    2595.9788    172146.86    10.472245    827.72715 
   68700   -258.95562     37.15321   -221.80241    2686.2593    179639.85    10.472245    832.01966 
   68800   -260.72762    39.462116   -221.26551    2853.1982    176281.57    10.472245    834.27078 
   68900   -262.81055     31.93255     -230.878     2308.794    160989.98    10.472245    840.30105 
   69000    -256.7438    33.119219   -223.62458    2394.5928    183598.39    10.472245     838.4301 
   69100   -258.20356    38.640923   -219.56264    2793.8242     180327.2    10.472245    840.07163 
   69200   -260.61947    34.161117   -226.45835    2469.9243    172619.47    10.472245    846.11665 
   69300   -261.16359    32.756927   -228.40667    2368.3983    170170.38    10.472245    842.83211 
   69400   -258.04688     36.29876   -221.74812    2624.4807     182215.2    10.472245    842.02549 
   69500   -260.19746    36.463982   -223.73348    2636.4265    181300.84    10.472245    848.17473 
   69600   -258.59083    35.591397   -222.99943    2573.3367    180066.52    10.472245    853.67304 
   69700   -254.09344    38.892947    -215.2005    2812.0461    194364.45    10.472245    853.44189 
   69800   -258.45153    34.359169   -224.09236    2484.2439    181845.54    10.472245    848.52908 
   69900   -260.38375    37.201685   -223.18207    2689.7641    177727.42    10.472245    854.06689 
   70000   -256.88786    37.079007   -219.80885    2680.8942    186291.38    10.472245    858.21732 
   70100   -260.71686    34.736774   -225.98009    2511.5456    171402.04    10.472245    857.95594 
   70200   -259.02221     36.17877   -222.84344    2615.8051    178431.43    10.472245    851.73422 
   70300   -257.18769    39.275993    -217.9117    2839.7412    185537.78    10.472245    857.65768 
   70400   -254.59438    31.239454   -223.35493    2258.6816    187590.89    10.472245    858.10769 
   70500   -259.78916    41.095121   -218.69404    2971.2682    183179.76    10.472245     861.9146 
   70600   -260.76412    31.458358   -229.30576    2274.5089     174895.2    10.472245    866.10868 
   70700    -257.1679    33.416778   -223.75112    2416.1069    182558.03    10.472245     866.8667 
   70800   -255.52658    36.234686    -219.2919    2619.8479    188015.78    10.472245    869.08154 
   70900   -260.36827    34.129391   -226.23888    2467.6304    173241.57    10.472245    867.27415 
   71000   -261.24221    36.655523   -224.58669    2650.2754    173991.79    10.472245    861.46692 
   71100   -254.34856     33.80331   -220.54525    2444.0541    194203.28    10.472245    868.49768 
   71200    -259.3233    37.901359   -221.42194    2740.3521    182000.42    10.472245    868.30534 
   71300   -264.35805    34.518376   -229.83968    2495.7549    159838.74    10.472245    874.57694 
   71400   -263.14127    42.504774    -220.6365    3073.1892    170413.41    10.472245    872.65795 
   71500   -257.36831    32.288309      -225.08    2334.5161    183607.76    10.472245    877.14289 
   71600   -256.85503    39.926871   -216.92816    2886.8011     187025.5    10.472245    875.01942 
   71700    -256.4444    36.398183   -220.04621    2631.6691    185857.49    10.472245    882.78387 
   71800   -258.44204    33.915172   -224.52687    2452.1419    179801.35    10.472245    886.85742 
   71900    -259.5497    38.341156   -221.20854    2772.1504    179664.82    10.472245     881.1876 
   72000   -259.37656    32.652044   -226.72452     2360.815    174804.45    10.472245    877.42801 
   72100    -258.3864    34.124629   -224.26177    2467.2862    179888.07    10.472245    880.90785 
   72200   -255.73343    36.583718   -219.14971    2645.0838       187821    10.472245    885.27329 
   72300    -263.6809    35.116483   -228.56441    2538.9994    162234.08    10.472245    884.15245 
   72400   -261.37927    35.636934   -225.74233    2576.6292    173884.15    10.472245    892.50778 
   72500   -254.81003    36.741996   -218.06803    2656.5276    192765.04    10.472245    897.83298 
   72600   -258.60834    36.818527   -221.78982    2662.0609    180105.63    10.472245    895.70828 
   72700   -262.31746    35.740214   -226.57724    2584.0965    170888.87    10.472245    896.17462 
   72800   -255.85068    38.346042   -217.50464    2772.5036    188254.69    10.472245    902.73844 
   72900   -255.89266    35.282111   -220.61055    2550.9747    185357.85    10.472245    898.18023 
   73000   -259.82565    32.844101   -226.98155    2374.7011    175997.01    10.472245    902.82585 
   73100   -251.87211    33.359382   -218.51273    2411.9571    201010.44    10.472245    902.64647 
   73200   -259.73078    38.321924   -221.40885    2770.7599    177177.14    10.472245    902.24584 
   73300   -260.48344    35.841107   -224.64233    2591.3913    178575.61    10.472245    898.27256 
   73400    -256.6252    43.146503    -213.4787    3119.5876    189554.57    10.472245    902.97434 
   73500   -258.46905    37.233161   -221.23588    2692.0399    182033.49    10.472245    903.03555 
   73600   -259.91068     35.68695   -224.22373    2580.2454    176390.77    10.472245    905.38527 
   73700   -260.22099    42.750245   -217.47074    3090.9373    179348.04    10.472245    905.95524 
   73800   -255.87899    39.038578   -216.84041    2822.5755    188826.01    10.472245    904.17437 
   73900   -258.81494    35.691776   -223.12316    2580.5943    181923.65    10.472245    905.10789 
   74000   -260.32215    42.492818   -217.82933    3072.3247     178372.9    10.472245    906.49484 
   74100   -254.70468    36.105044   -218.59964    2610.4746    189501.32    10.472245    908.78736 
   74200   -254.50145    31.643668   -222.85778    2287.9072    189553.08    10.472245    906.96941 
   74300   -255.92894    33.388591   -222.54035     2414.069    186410.68    10.472245    906.86166 
   74400   -261.05165     35.34757   -225.70408    2555.7075    171721.67    10.472245    907.91478 
   74500   -260.37974    36.580649   -223.79909    2644.8619    172020.61    10.472245    903.33683 
   74600   -255.87342    38.712476   -217.16094    2798.9977    189808.09    10.472245    907.22691 
   74700   -261.89355    39.442988   -222.45056    2851.8153    172898.65    10.472245    912.63432 
   74800   -258.35919    36.666773   -221.69241    2651.0888    178324.91    10.472245    911.24522 
   74900   -258.05027    33.298716   -224.75155    2407.5708    179983.17    10.472245    911.09987 
   75000   -258.89579    33.422908   -225.47288    2416.5502    178821.37    10.472245    916.90965 
   75100   -254.59732    37.451399   -217.14593     2707.819    194077.73    10.472245    920.45772 
   75200   -259.49796    38.366597   -221.13136    2773.9898    175484.15    10.472245    916.81537 
   75300   -256.61145    32.110133   -224.50132    2321.6336    180120.28    10.472245    917.94831 
   75400   -253.60127    36.049175    -217.5521    2606.4351    195663.27    10.472245    912.36853 
   75500   -259.03886    42.231064   -216.80779    3053.3993    176078.16    10.472245    917.58203 
   75600   -258.95207    35.228238   -223.72383    2547.0795    177351.59    10.472245    917.90361 
   75700   -257.09992    34.986473   -222.11345    2529.5994    189979.61    10.472245    915.15114 
   75800   -254.60264    38.525245   -216.07739    2785.4604    198322.44    10.472245    913.22079 
   75900   -262.18006    38.831671   -223.34838    2807.6157    172323.52    10.472245    913.80399 
   76000   -259.88125     38.41769   -221.46356     2777.684    178105.86    10.472245    911.09365 
   76100   -255.55403    33.382928   -222.17111    2413.6595    184995.26    10.472245    906.42035 
   76200   -259.59808    34.203951   -225.39413    2473.0213    177456.21    10.472245    904.03983 
   76300   -252.12763    34.690455   -217.43718    2508.1966    199609.35    10.472245    907.17743 
   76400   -255.16629    28.254112   -226.91218    2042.8348    186154.26    10.472245    911.05054 
   76500   -257.86369    35.327384    -222.5363     2554.248     179277.4    10.472245    914.16257 
   76600   -257.00594    38.061126   -218.94481    2751.9036    185017.09    10.472245    917.87369 
   76700    -260.5069    39.037539   -221.46936    2822.5004    176822.42    10.472245     917.3751 
   76800    -257.2552    31.551758   -225.70345    2281.2619    178817.09    10.472245    918.30846 
   76900   -254.35387    38.425662   -215.92821    2778.2603    193250.18    10.472245    921.10442 
   77000   -260.69161    38.189922   -222.50169    2761.2158    174064.81    10.472245    927.16561 
   77100   -259.02804     36.48679   -222.54125    2638.0756    181339.84    10.472245    925.68961 
   77200   -256.43239    35.025019   -221.40737    2532.3863    186531.43    10.472245    926.49339 
[...]
   81400   -257.03057    31.759947   -225.27062    2296.3144    181355.67    10.472245    910.43251 
   81500   -253.25314    34.901819   -218.35132    2523.4787    193990.99    10.472245    912.04245 
   81600   -255.34426    36.499605   -218.84465    2639.0021    187849.28    10.472245    906.67308 
   81700   -260.82015    34.793843   -226.02631    2515.6718    174437.21    10.472245    902.81847 
   81800     -258.413    38.001127   -220.41188    2747.5655    182381.44    10.472245    903.99612 
   81900   -253.54328    38.882384    -214.6609    2811.2824    198484.91    10.472245    896.53508 
   82000   -257.82547    36.753008   -221.07246    2657.3237    182521.65    10.472245     897.1715 
   82100   -261.02934    35.054378   -225.97496     2534.509    173455.83    10.472245    903.17132 
   82200   -258.26628    44.841705   -213.42457    3242.1545    184111.87    10.472245    896.90936 
   82300   -256.85366    34.183943   -222.66971    2471.5747    183880.73    10.472245     894.8831 
   82400   -255.77175    31.829516   -223.94223    2301.3444     184537.7    10.472245     905.2549 
   82500    -263.5447    34.890548   -228.65415    2522.6638    164059.57    10.472245    897.36954 
   82600    -257.5233    38.706759   -218.81654    2798.5843    185339.64    10.472245    903.97815 
   82700    -256.9946    35.028599     -221.966    2532.6452    186406.88    10.472245    908.76634 
   82800   -264.35369    34.771197   -229.58249    2514.0344    161508.35    10.472245    911.74475 
   82900   -260.71862    35.349044   -225.36957    2555.8141    173078.85    10.472245    917.81837 
   83000   -259.62245    40.615841    -219.0066    2936.6152    177550.32    10.472245     918.5962 
   83100   -258.41664    31.387886   -227.02876    2269.4136    178947.49    10.472245     918.4257 
   83200   -260.31872    32.921111    -227.3976    2380.2691    173754.42    10.472245    920.98682 
   83300   -260.26702    39.385601   -220.88142    2847.6661    174251.51    10.472245    921.43391 
   83400   -256.82662    35.140442   -221.68618    2540.7317    183451.66    10.472245    916.56007 
   83500   -253.83977    35.114533   -218.72524    2538.8584    189866.76    10.472245    923.59694 
   83600    -258.6149    35.818495    -222.7964    2589.7564    180426.85    10.472245    925.96812 
   83700   -257.29666     34.81774   -222.47892    2517.3996    185118.25    10.472245     935.5268 
   83800   -251.81312    33.656738   -218.15638    2433.4566    198617.24    10.472245    938.12778 
   83900   -262.95499    38.673755   -224.28123     2796.198    169230.25    10.472245    938.61634 
   84000   -252.83881    35.850633   -216.98818      2592.08    201570.46    10.472245    936.00533 
   84100   -254.16135    39.381489   -214.77986    2847.3688    194152.52    10.472245    937.50725 
   84200   -260.59572    37.906673   -222.68905    2740.7363    174315.22    10.472245    937.62692 
   84300   -257.43569    34.617489    -222.8182     2502.921    181864.95    10.472245    938.75039 
   84400   -253.46366    37.793371   -215.67029    2732.5443    196504.35    10.472245    937.32597 
   84500   -259.15597    36.010052   -223.14592    2603.6064    178444.89    10.472245    942.68303 
   84600   -255.21932    37.446497   -217.77283    2707.4645    191080.58    10.472245    939.86723 
   84700   -258.49825    35.575631   -222.92262    2572.1968    178125.65    10.472245    947.45975 
   84800   -259.38822    33.725504   -225.66271    2438.4285    179228.23    10.472245    944.51155 
   84900   -257.15365    38.667782   -218.48587    2795.7662    187329.09    10.472245    946.25741 
   85000   -256.16939    42.320878   -213.84852    3059.8931     195094.7    10.472245    944.04225 
   85100   -258.67725    34.486069   -224.19118    2493.4191    177971.53    10.472245    944.17153 
   85200   -259.09322    39.976377   -219.11684    2890.3805    179280.77    10.472245    947.77789 
   85300   -255.44475    38.866595   -216.57815    2810.1408    189503.11    10.472245    953.77495 
   85400   -260.77027     36.53353   -224.23674     2641.455     172959.3    10.472245    954.43064 
   85500   -257.65578    40.300299   -217.35548    2913.8007    185707.14    10.472245    955.90615 
   85600   -259.60776    38.835172   -220.77259    2807.8688    179111.35    10.472245    955.11101 
   85700   -257.60493    33.068917   -224.53602    2390.9558    179914.15    10.472245    955.63023 
   85800   -256.16203    36.507051   -219.65498    2639.5405    186925.16    10.472245    960.53703 
   85900   -257.99039    36.855105   -221.13529    2664.7056    180755.88    10.472245    956.20657 
   86000   -261.96919    31.541698   -230.42749    2280.5345    171723.05    10.472245    953.83546 
   86100   -257.29234    32.238076   -225.05426    2330.8842    184976.06    10.472245    959.51569 
   86200   -255.16854    38.317988   -216.85056    2770.4753     192599.2    10.472245    954.45062 
   86300   -258.57268    34.109235   -224.46345    2466.1731    175602.14    10.472245    953.75255 
   86400   -257.28846    33.692388   -223.59607    2436.0342    184996.75    10.472245    957.11765 
   86500    -255.7624    34.550026   -221.21238    2498.0433    184582.51    10.472245    966.89722 
   86600   -260.28627    31.509014   -228.77725    2278.1714    174505.58    10.472245    974.49294 
   86700    -259.6409    38.821841   -220.81906     2806.905     178627.5    10.472245    974.31436 
   86800   -258.59818    38.006597   -220.59158    2747.9611    183282.44    10.472245    980.48046 
   86900    -257.8527    38.173603    -219.6791    2760.0359    180932.45    10.472245    986.91772 
   87000   -258.93828    35.159811   -223.77847    2542.1321     174449.5    10.472245    989.05465 
   87100   -261.43776    36.158287   -225.27947    2614.3241    172885.07    10.472245    993.40364 
   87200   -254.56114    36.890159   -217.67098    2667.2401     191319.4    10.472245    999.08664 
   87300   -261.18423    37.650513   -223.53372    2722.2153     173382.9    10.472245    999.07926 
   87400   -258.51017    35.287174   -223.22299    2551.3407    179054.47    10.472245    997.59772 
   87500   -260.07813    35.835627    -224.2425    2590.9951    176392.45    10.472245    992.86708 
   87600   -262.55285    34.853352    -227.6995    2519.9744    165313.64    10.472245     999.8328 
   87700   -256.25151    37.767473   -218.48404    2730.6719    182874.98    10.472245    994.74495 
   87800   -254.58722    34.798799   -219.78842    2516.0301       190203    10.472245    996.29433 
   87900   -251.64039    38.627045   -213.01334    2792.8208    198287.47    10.472245    996.28899 
   88000   -259.27868    35.315841   -223.96284    2553.4134    178387.32    10.472245    1000.7772 
   88100    -257.7444    36.853438   -220.89096    2664.5851    181652.53    10.472245    1007.8095 
   88200   -254.99041    39.884672   -215.10574      2883.75    193550.93    10.472245    1006.1422 
   88300   -259.75814    34.632056   -225.12608    2503.9743    174053.47    10.472245    1007.9117 
   88400    -254.0037    33.886571   -220.11713     2450.074    190026.21    10.472245    1012.0132 
   88500    -260.9244    37.268014   -223.65638    2694.5598    170265.95    10.472245    1017.8975 
   88600   -260.81845    35.897066   -224.92139    2595.4373    171932.25    10.472245    1021.5537 
   88700   -256.64096    35.136702   -221.50426    2540.4612    187113.21    10.472245    1026.5305 
   88800   -253.19228    40.798316   -212.39397    2949.8085    196780.24    10.472245    1028.8521 
   88900   -258.89986    37.196012   -221.70385     2689.354    176703.52    10.472245    1026.9243 
   89000   -258.20071    33.347622   -224.85309    2411.1068     180875.2    10.472245     1027.915 
   89100   -255.11716    40.097794   -215.01937    2899.1592    194424.08    10.472245    1037.9418 
   89200   -256.69137    37.058463   -219.63291    2679.4089    183460.36    10.472245     1042.407 
   89300   -259.72986     34.73784   -224.99202    2511.6226    175210.98    10.472245    1040.4503 
   89400   -254.66144    40.790392   -213.87105    2949.2356    197442.17    10.472245    1038.1241 
   89500   -255.29084    34.608089   -220.68275    2502.2414    185639.58    10.472245    1040.2381 
   89600   -257.17831    32.915994   -224.26231    2379.8992    184112.78    10.472245    1049.1726 
   89700   -254.60617    34.247799   -220.35837    2476.1916    186763.13    10.472245    1049.3411 
   89800   -261.15481     38.52827   -222.62654    2785.6791    175503.56    10.472245    1050.5524 
   89900   -264.95891    38.026832   -226.93207    2749.4241    161650.12    10.472245    1054.5115 
   90000   -262.60101    34.723419   -227.87759      2510.58    166656.11    10.472245    1055.9109 
   90100   -261.09789    39.391862   -221.70603    2848.1188    175554.27    10.472245    1047.8379 
   90200   -260.81822    37.307599   -223.51062    2697.4219    174749.79    10.472245    1050.0909 
   90300   -252.81478    37.667048   -215.14774    2723.4109    199070.19    10.472245    1058.7696 
   90400   -255.69418    33.447943   -222.24624    2418.3603    185467.79    10.472245    1065.1273 
   90500   -257.49512    35.755334   -221.73978    2585.1897     187436.1    10.472245     1065.599 
   90600   -256.96687    33.928025   -223.03884    2453.0712    181424.28    10.472245     1068.253 
   90700   -261.06997    35.640988   -225.42898    2576.9222    169299.61    10.472245    1067.0727 
   90800   -263.02567    34.386721   -228.63895     2486.236    165876.34    10.472245    1072.0034 
   90900   -256.86506    37.619439   -219.24562    2719.9687    184653.22    10.472245    1078.3123 
   91000   -261.05307    36.675634   -224.37744    2651.7295    173198.18    10.472245    1085.0521 
   91100   -257.87457    30.469463   -227.40511    2203.0096    179206.39    10.472245    1080.9256 
   91200   -255.20751     34.11588   -221.09163    2466.6536    184371.86    10.472245    1083.1334 
   91300   -257.83194    35.110172   -222.72177    2538.5431    182385.69    10.472245    1089.6525 
   91400    -262.0775     33.48422   -228.59328    2420.9832    169710.22    10.472245     1098.604 
   91500   -254.90445    34.522539   -220.38192    2496.0559    188158.22    10.472245    1099.9136 
   91600    -255.3045    33.727878   -221.57662    2438.6002    188244.92    10.472245    1097.7629 
   91700    -263.5056    35.580446   -227.92515     2572.545    163381.53    10.472245    1102.9826 
   91800   -257.59304    37.364949   -220.22809    2701.5685    177373.05    10.472245    1096.0049 
   91900   -255.62438    37.093924   -218.53046    2681.9728    184585.66    10.472245    1100.5184 
   92000   -255.11344    31.111044    -224.0024    2249.3973    184458.12    10.472245    1102.7736 
   92100   -256.77704    34.092228   -222.68481    2464.9435       183342    10.472245    1103.9859 
   92200    -259.5902    32.425669   -227.16453    2344.4476    176784.38    10.472245    1106.7745 
   92300   -254.71942    34.672654   -220.04677    2506.9096    187831.47    10.472245    1111.5313 
   92400   -254.57379    35.958932   -218.61485    2599.9103    193054.03    10.472245    1111.4636 
   92500   -261.97306    33.461976   -228.51109    2419.3749    169801.26    10.472245    1115.3349 
   92600   -256.28824    35.330728   -220.95751    2554.4898    186688.59    10.472245    1119.3897 
   92700   -257.57039    36.153423   -221.41697    2613.9725    182988.69    10.472245    1122.2723 
   92800   -259.54751     29.92956   -229.61795    2163.9734    173862.19    10.472245    1117.9058 
   92900   -259.58073    33.578521    -226.0022    2427.8014    175547.38    10.472245    1119.6063 
   93000   -255.64148    37.498753   -218.14273    2711.2428     191424.5    10.472245     1122.511 
   93100   -259.46992    35.529805   -223.94012    2568.8835    177698.94    10.472245    1122.9129 
   93200   -262.15338    34.758862   -227.39452    2513.1426    168776.97    10.472245    1123.2233 
   93300   -254.29346    35.288254   -219.00521    2551.4188    192360.79    10.472245    1126.5969 
   93400   -258.16755    34.599438   -223.56812    2501.6159    180765.11    10.472245    1121.0672 
   93500    -260.4313    38.201618   -222.22968    2762.0615    173193.81    10.472245    1119.3175 
   93600   -254.40547    36.679595   -217.72587    2652.0159    192597.27    10.472245    1129.1892 
   93700   -258.44384    33.485654   -224.95819    2421.0868    180223.32    10.472245    1127.9468 
   93800   -264.69518    40.697788    -223.9974    2942.5401    165122.54    10.472245    1132.6036 
   93900   -264.16668     40.81008    -223.3566     2950.659    164155.39    10.472245    1134.1971 
   94000   -264.97572    32.833785   -232.14194    2373.9553    161021.99    10.472245    1131.9904 
   94100   -255.73794     32.59897   -223.13897    2356.9776    186058.53    10.472245    1136.3892 
   94200   -256.02766    38.657001   -217.37066    2794.9867    190860.37    10.472245    1140.4312 
   94300   -259.84239    33.074795   -226.76759    2391.3808    173387.84    10.472245    1146.3349 
   94400    -258.4484    35.001452   -223.44695    2530.6824    178879.01    10.472245    1149.9563 
   94500   -258.40067    43.367337   -215.03334    3135.5544    185201.81    10.472245    1153.6942 
   94600   -249.17491    39.484072   -209.69084    2854.7857    214652.35    10.472245    1148.6104 
   94700   -261.42845    39.815507   -221.61294    2878.7492    173511.88    10.472245    1153.5885 
   94800   -261.42769    36.804808   -224.62288     2661.069    171721.89    10.472245    1159.7057 
   94900   -256.03483     36.09396   -219.94087    2609.6732    182443.95    10.472245    1155.2409 
   95000   -256.59952    35.635149   -220.96437    2576.5001    186291.09    10.472245    1161.0972 
   95100   -256.14316    28.685518   -227.45764    2074.0264    184610.73    10.472245    1162.9758 
   95200   -250.79296     34.03867   -216.75429    2461.0711    199304.71    10.472245    1160.8803 
   95300   -254.16935    33.056215   -221.11314    2390.0374    190577.07    10.472245    1163.3968 
   95400   -261.08566    31.423459    -229.6622    2271.9856     174675.5    10.472245    1170.1392 
   95500   -258.23042    37.313193   -220.91723    2697.8264    183094.38    10.472245    1166.8038 
   95600   -255.24184     37.80618   -217.43566    2733.4705    188232.08    10.472245    1167.9648 
   95700   -260.11116    32.749439   -227.36172    2367.8569    173751.59    10.472245    1172.6818 
   95800   -258.12302    33.808286   -224.31473    2444.4138     178598.3    10.472245    1179.0235 
   95900   -259.00524    35.827488   -223.17775    2590.4067    177660.14    10.472245    1179.4441 
   96000   -251.66467    36.133553   -215.53112    2612.5358    196070.35    10.472245    1182.0773 
   96100    -257.3703    37.234634   -220.13566    2692.1464    184293.83    10.472245    1186.1967 
   96200   -261.57617    34.862911   -226.71326    2520.6656    169252.51    10.472245    1181.5946 
   96300   -253.70186     37.69088   -216.01098     2725.134    194145.57    10.472245    1178.8746 
   96400   -258.30479    40.204831   -218.09996    2906.8982    183448.63    10.472245    1174.6837 
   96500   -262.48283    37.171895   -225.31094    2687.6102    171989.72    10.472245    1172.4859 
   96600   -257.90875    41.351733   -216.55701    2989.8217    189038.99    10.472245    1173.1455 
   96700   -256.78243    35.861511   -220.92091    2592.8665    181730.34    10.472245     1171.339 
   96800   -260.36909    36.549742   -223.81935    2642.6272    175164.36    10.472245    1169.1345 
   96900   -252.81448    36.038644   -216.77583    2605.6737     194722.6    10.472245    1166.6263 
   97000   -259.21674    33.342628   -225.87411    2410.7458    177857.21    10.472245    1161.3102 
   97100   -255.71471    33.342573   -222.37214    2410.7418    185555.65    10.472245    1160.5222 
   97200   -258.52287     39.58767    -218.9352    2862.2761    181757.72    10.472245     1156.731 
   97300   -257.93588    35.163963   -222.77192    2542.4323    179690.07    10.472245    1168.5016 
   97400     -256.854     35.48963   -221.36437    2565.9788    182118.39    10.472245    1167.5943 
   97500   -252.95428    41.327897   -211.62638    2988.0984    194960.36    10.472245    1163.2841 
   97600    -259.2691     36.46091   -222.80819    2636.2045    178475.68    10.472245    1157.3859 
   97700   -258.63783    36.138035    -222.4998    2612.8599    177575.29    10.472245    1155.1557 
   97800   -258.51596     44.20474   -214.31122    3196.1005    183883.31    10.472245    1160.1161 
   97900   -258.38533    33.360685   -225.02465    2412.0513    174609.51    10.472245    1161.6816 
   98000   -256.59221    34.552737   -222.03948    2498.2393    185001.48    10.472245    1159.2618 
   98100   -257.71734    40.079931   -217.63741    2897.8677    182062.93    10.472245    1159.3609 
   98200   -260.90259    34.147397   -226.75519    2468.9324    172605.04    10.472245     1162.087 
   98300   -257.72831    36.224901   -221.50341    2619.1404    183040.88    10.472245     1164.902 
   98400   -264.28133    33.594325     -230.687     2428.944     163525.7    10.472245    1162.4108 
   98500   -261.41191    38.408409    -223.0035    2777.0129    171627.39    10.472245    1163.2077 
   98600   -260.49823    39.986588   -220.51164    2891.1188     177090.3    10.472245     1162.303 
   98700   -259.23433    33.517004   -225.71732    2423.3536    174664.32    10.472245    1167.3679 
   98800   -260.96543    36.782012   -224.18342    2659.4209    168715.61    10.472245      1165.16 
   98900   -255.07854    37.164516   -217.91403    2687.0767    190085.47    10.472245    1167.3238 
   99000   -259.94994    34.382989   -225.56695    2485.9662     177888.4    10.472245    1157.1805 
   99100   -256.99068    32.255423   -224.73526    2332.1384     181682.5    10.472245      1156.06 
   99200   -254.27946    35.791108   -218.48835    2587.7763    195976.65    10.472245    1160.5996 
   99300   -258.34621    33.312464   -225.03374    2408.5648    178570.25    10.472245    1164.1757 
   99400   -262.32247     38.78024   -223.54223    2803.8972    168940.69    10.472245    1161.8138 
   99500   -256.84052    38.068045   -218.77247    2752.4039    184708.99    10.472245    1159.9565 
   99600   -258.75087    36.815389   -221.93548     2661.834    176185.13    10.472245    1155.5788 
   99700    -257.9749    33.759635   -224.21526    2440.8963    182132.47    10.472245    1154.4234 
   99800   -256.23449     36.58919    -219.6453    2645.4794    187486.78    10.472245    1155.8889 
   99900   -257.75909    41.126887    -216.6322    2973.5649    188081.55    10.472245     1161.536 
  100000   -259.98274    38.209053   -221.77369    2762.5991    175601.78    10.472245    1166.6426 
Loop time of 31.4738 on 1 procs for 100000 steps with 108 atoms

Performance: 1372.569 ns/day, 0.017 hours/ns, 3177.243 timesteps/s
100.0% CPU use with 1 MPI tasks x no OpenMP threads

MPI task timing breakdown:
Section |  min time  |  avg time  |  max time  |%varavg| %total
---------------------------------------------------------------
Pair    | 18.555     | 18.555     | 18.555     |   0.0 | 58.95
Neigh   | 1.489      | 1.489      | 1.489      |   0.0 |  4.73
Comm    | 0.56686    | 0.56686    | 0.56686    |   0.0 |  1.80
Output  | 0.018411   | 0.018411   | 0.018411   |   0.0 |  0.06
Modify  | 10.759     | 10.759     | 10.759     |   0.0 | 34.19
Other   |            | 0.08488    |            |       |  0.27

Nlocal:    108 ave 108 max 108 min
Histogram: 1 0 0 0 0 0 0 0 0 0
Nghost:    1110 ave 1110 max 1110 min
Histogram: 1 0 0 0 0 0 0 0 0 0
Neighs:    5663 ave 5663 max 5663 min
Histogram: 1 0 0 0 0 0 0 0 0 0

Total # of neighbors = 5663
Ave neighs/atom = 52.4352
Neighbor list builds = 6431
Dangerous builds = 26
    
Total wall time: 0:00:31
