LAMMPS (3 Mar 2020)
Reading data file ...
  orthogonal box = (0 0 0) to (17.469 17.469 17.469)
  1 by 1 by 1 MPI processor grid
  reading atoms ...
  217 atoms
  read_data CPU = 0.00100553 secs
Reading potential file library.meam with DATE: 2012-06-29
Reading potential file LiSi.meam with DATE: 2020-11-07
1 atoms in group Li
216 atoms in group Si
Neighbor list info ...
  update every 1 steps, delay 10 steps, check yes
  max neighbors/atom: 2000, page size: 100000
  master list distance cutoff = 6
  ghost atom cutoff = 6
  binsize = 3, bins = 6 6 6
  2 neighbor lists, perpetual/occasional/extra = 2 0 0
  (1) pair meam/c, perpetual
      attributes: full, newton on
      pair build: full/bin/atomonly
      stencil: full/bin/3d
      bin: standard
  (2) pair meam/c, perpetual, half/full from (1)
      attributes: half, newton on
      pair build: halffull/newton
      stencil: none
      bin: none
Setting up Verlet run ...
  Unit style    : metal
  Current step  : 0
  Time step     : 0.003
Per MPI rank memory allocation (min/avg/max) = 8.895 | 8.895 | 8.895 Mbytes
Step Temp E_pair E_mol TotEng Press Volume 
       0         1800   -951.04357            0   -900.78722   -114161.75    5330.9442 
    3200    1890.0295   -940.22881            0   -887.45882    495.74297    4667.1797 
Loop time of 2.25774 on 1 procs for 3200 steps with 217 atoms

Performance: 367.375 ns/day, 0.065 hours/ns, 1417.344 timesteps/s
100.0% CPU use with 1 MPI tasks x no OpenMP threads

MPI task timing breakdown:
Section |  min time  |  avg time  |  max time  |%varavg| %total
---------------------------------------------------------------
Pair    | 2.156      | 2.156      | 2.156      |   0.0 | 95.49
Neigh   | 0.052795   | 0.052795   | 0.052795   |   0.0 |  2.34
Comm    | 0.014814   | 0.014814   | 0.014814   |   0.0 |  0.66
Output  | 2.5998e-05 | 2.5998e-05 | 2.5998e-05 |   0.0 |  0.00
Modify  | 0.029121   | 0.029121   | 0.029121   |   0.0 |  1.29
Other   |            | 0.004983   |            |       |  0.22

Nlocal:    217 ave 217 max 217 min
Histogram: 1 0 0 0 0 0 0 0 0 0
Nghost:    952 ave 952 max 952 min
Histogram: 1 0 0 0 0 0 0 0 0 0
Neighs:    4118 ave 4118 max 4118 min
Histogram: 1 0 0 0 0 0 0 0 0 0
FullNghs:  8236 ave 8236 max 8236 min
Histogram: 1 0 0 0 0 0 0 0 0 0

Total # of neighbors = 8236
Ave neighs/atom = 37.9539
Neighbor list builds = 90
Dangerous builds = 5
Setting up Verlet run ...
  Unit style    : metal
  Current step  : 3200
  Time step     : 0.003
Per MPI rank memory allocation (min/avg/max) = 9.662 | 9.662 | 9.662 Mbytes
Step PotEng KinEng TotEng Temp Press Density c_msdli[4] c_msdsi[4] 
    3200   -940.22881    52.769987   -887.45882    1890.0295    495.74297    2.1608999            0 2.5853826e-32 
    3300   -940.52306    49.628359    -890.8947    1777.5078   -14046.687    2.1261289   0.13739299   0.14049191 
    3400   -940.01192    47.357071   -892.65485    1696.1586    7721.4064    2.1781165    1.3657185   0.12915698 
    3500   -936.89692    55.360602   -881.53631     1982.816    6154.8446    2.1622399    2.0857515   0.15931862 
    3600   -939.82037    53.803133   -886.01724    1927.0331   -6342.8762    2.1394971    6.6357433   0.15521374 
    3700   -945.57708     54.88482   -890.69226    1965.7752   -5096.3517    2.1589053    3.2629645   0.15986945 
    3800   -940.94957    49.470235   -891.47934    1771.8444    8254.1764    2.1815904    5.7459266   0.17701288 
    3900   -933.95664    53.718346   -880.23829    1923.9963   -9930.8371    2.1205894    6.3025201   0.19378476 
    4000   -939.48267    50.392474    -889.0902    1804.8757    123.66629    2.1603568    3.5685628   0.19506116 
    4100    -941.1486    51.128202    -890.0204    1831.2268    6106.0432    2.1745331    2.9509435   0.17813795 
    4200   -935.62733    48.080222   -887.54711    1722.0592    -2295.152    2.1428453    3.8880056   0.19739182 
    4300   -932.31525    52.387487   -879.92776    1876.3298   -4124.9205    2.1270827     4.447462   0.17803141 
    4400    -939.9636    50.119363   -889.84423    1795.0938      12395.2    2.1934402    3.0809356   0.18412859 
    4500   -940.02695     49.57923   -890.44772    1775.7482   -4144.4051     2.149546    5.0420036   0.19450182 
    4600   -938.19191    53.113099   -885.07881    1902.3186   -11070.686    2.1253849     4.293608   0.18205823 
    4700   -944.74893    50.149412   -894.59952    1796.1701    8030.2232    2.1923337    3.3664886   0.17219255 
    4800   -939.76115    47.701622   -892.05953    1708.4991    2552.0475     2.166601     4.355627    0.1803884 
    4900   -939.12821    51.709165   -887.41904    1852.0348   -9450.5817    2.1337906    8.4690535    0.1541334 
    5000   -939.39438    51.141463   -888.25291    1831.7017    4911.8129    2.1680624    18.587017   0.15370778 
    5100   -941.94953    46.942154   -895.00737    1681.2977    7318.6575    2.1852439    19.784606   0.15655184 
    5200   -935.16281    46.844125   -888.31868    1677.7867   -3463.2888    2.1408461    19.419282   0.16311583 
    5300   -937.31993    49.721652   -887.59828    1780.8493   -386.00305    2.1530078    21.985964   0.15815395 
    5400   -943.78131    48.334062   -895.44725    1731.1508    6839.0303    2.1894661    18.390479   0.14780412 
    5500   -939.01248    52.026119   -886.98636    1863.3869   -4034.7596    2.1455986    18.076829    0.1517278 
    5600    -939.1409    51.120987   -888.01991    1830.9684   -4920.7649    2.1456422    15.457372   0.16324448 
    5700   -941.73613    48.128883   -893.60725    1723.8021    8434.4574    2.1835066    17.245653   0.15084087 
    5800    -939.3543    50.950336   -888.40396    1824.8563    2670.9259    2.1661501    18.848854   0.15262881 
    5900   -939.64334    54.285155   -885.35819    1944.2974   -9643.3727    2.1286374    42.014574   0.15448586 
    6000     -941.237    48.968001     -892.269    1753.8562    2980.7715    2.1732302    53.831221   0.15953424 
    6100   -940.68481     50.74736   -889.93745    1817.5864    8561.1211    2.1805724    52.158738   0.16597049 
    6200   -937.25087    52.745708   -884.50517      1889.16   -9855.9544    2.1282938    51.687865   0.17472556 
    6300   -941.45023    48.112913   -893.33732    1723.2301   -4374.4467    2.1545641    33.239636   0.18379037 
    6400   -943.33121    52.581049   -890.75017    1883.2625    7267.3462    2.1842839    29.379559   0.17561548 
    6500   -935.33098    51.625292   -883.70568    1849.0308    98.093492    2.1497385    33.791507   0.19266612 
    6600   -936.82022     45.80683   -891.01339    1640.6345   -9781.4089    2.1333489    33.655698    0.1817517 
    6700   -939.67046    48.063461     -891.607    1721.4589    8712.3921    2.1828174    28.964358   0.18520693 
    6800   -933.87372    50.913995   -882.95972    1823.5547    12071.911    2.1774497     38.55552   0.18346183 
    6900   -934.99935    46.955979   -888.04337    1681.7929   -14466.567    2.1121896    22.881295   0.19222245 
    7000   -945.23912     51.53071   -893.70841    1845.6431   -4499.4246    2.1563369    21.874471   0.15987819 
    7100   -936.72333    50.439599   -886.28373    1806.5635    18142.098    2.1970245    46.072749   0.18675992 
    7200   -941.23055    54.958867   -886.27169    1968.4273   -9167.3153    2.1390757    60.346121   0.16368806 
    7300   -943.74169    49.044814   -894.69688    1756.6074    -6381.696    2.1485932    44.083765   0.16486132 
    7400   -939.67892    51.126797   -888.55213    1831.1764     4691.701    2.1735897     57.96007    0.1836372 
    7500   -943.06634    57.401226   -885.66512    2055.9038   -4546.6022    2.1482379    50.808688    0.1612753 
    7600   -942.69379    47.512112   -895.18168    1701.7115   -2767.7668    2.1554298    61.253642   0.14851423 
    7700    -938.3464    46.976588   -891.36981     1682.531    3659.6528    2.1644615      67.4625   0.14434463 
    7800   -938.20152    52.968294   -885.23323    1897.1322    1539.8506    2.1585514    64.817626   0.15643681 
    7900   -941.43884    47.119228   -894.31961    1687.6399   -1431.6964    2.1571816    59.676426   0.15135963 
    8000   -940.48166    48.951944   -891.52971    1753.2811    213.04541    2.1553081    69.667475   0.15322503 
    8100    -939.1761     53.75548   -885.42062    1925.3264    4985.1372    2.1666907    70.495638    0.1531196 
    8200   -940.86663    47.515621     -893.351    1701.8372   -1968.4351    2.1564949     61.94536   0.14497192 
    8300   -941.42695    50.689888   -890.73706     1815.528   -6467.1158    2.1441921    62.049974    0.1454766 
    8400   -938.60168    55.084855   -883.51682    1972.9398    5097.4402    2.1609169    57.400177   0.15270901 
    8500    -939.0017    47.505403   -891.49629    1701.4713    5611.8164    2.1690074    61.394226   0.15079894 
    8600   -942.96361    50.167919   -892.79569    1796.8329   -9718.1657    2.1387353    63.000332   0.15637989 
    8700   -941.12678    57.291412   -883.83537    2051.9706   -2317.2505    2.1496066      65.0635   0.14963876 
    8800   -942.93959     51.94803   -890.99156      1860.59    9733.0618    2.1907879    63.542553   0.13754077 
    8900   -942.51858    48.172608   -894.34597    1725.3681   -10692.452    2.1368322    67.896918   0.13920188 
    9000   -939.75519    52.250518   -887.50467    1871.4241   -6099.3682    2.1374626    64.508632   0.15236307 
    9100   -941.56241    50.960608    -890.6018    1825.2242    13437.493    2.1927481    60.512196   0.14738329 
    9200    -940.8056    44.418242   -896.38736    1590.9004    2195.5825    2.1670465    62.104848   0.16053833 
    9300   -940.86463    51.148981   -889.71565     1831.971   -8360.9184     2.133903     67.41622   0.15809862 
    9400   -941.33091    54.261586   -887.06932    1943.4532    2116.4262    2.1645254    64.477926   0.15788293 
    9500   -945.61551    49.259562   -896.35595    1764.2989    4616.5627     2.182452    62.261422   0.15122884 
    9600   -940.26789    51.194342   -889.07355    1833.5957   -8525.2912    2.1382167    70.091584   0.15796371 
    9700   -936.55452    49.180563   -887.37396    1761.4694    744.78452     2.153804    63.069685   0.16133169 
    9800    -941.7827    47.592444   -894.19025    1704.5887    4487.7388    2.1745839    63.487494   0.13652271 
    9900   -941.77213    52.316776   -889.45535    1873.7972     -2208.28    2.1545272    66.546407    0.1501275 
   10000   -937.21026    51.559596   -885.65066    1846.6778   -2553.2566     2.143551    65.451075   0.16413709 
   10100   -936.96398    44.250065   -892.71391    1584.8768    3922.6389    2.1622969    59.858858   0.16675304 
   10200   -942.44019    51.693171   -890.74702    1851.4619    1613.1191    2.1651775    60.064695   0.16402164 
   10300   -936.59649    52.858182   -883.73831    1893.1884   -3738.3213    2.1394111    69.970482   0.17138496 
   10400   -943.19638    49.912221   -893.28416    1787.6747    521.99147    2.1658216     65.00294   0.14565927 
   10500    -940.0771    49.760058   -890.31704    1782.2248    3196.9001    2.1638233    60.096475   0.14268739 
   10600   -936.89113    52.831812   -884.05932    1892.2439   -1437.0017    2.1443576    62.675371   0.15431382 
   10700   -943.79215     49.16599   -894.62616    1760.9475    897.19591    2.1715554    63.334598   0.15280394 
   10800   -940.00741    48.428022   -891.57939    1734.5161   -1503.9228    2.1615282    62.723069    0.1586828 
   10900   -937.90559     51.84724   -886.05835    1856.9801   -1156.3001    2.1476948    59.065646   0.15960058 
   11000   -942.97827    47.772933   -895.20534    1711.0532    4363.9834    2.1743598    63.676857    0.1425203 
   11100   -940.89734    47.380011   -893.51733    1696.9802   -600.24273    2.1615118    62.237315   0.15383244 
   11200   -939.82112     51.95736   -887.86376    1860.9242   -5577.2563    2.1485746    64.395412   0.15729909 
   11300   -942.86638     50.29043   -892.57595    1801.2208    1528.8658    2.1736372    55.616295   0.15415199 
   11400    -945.5668    49.357201    -896.2096    1767.7959    2125.4768    2.1806129    64.885658   0.15090618 
   11500   -937.55543    49.625003   -887.93043    1777.3877   -4938.4806    2.1423379    65.873345   0.14688928 
   11600   -941.34703    51.025045   -890.32198    1827.5321   -1109.4997    2.1599303    64.409766    0.1682609 
   11700   -943.86139    48.203708   -895.65768     1726.482    8693.2518     2.190852    61.763021   0.15398611 
   11800   -935.99987     50.88489   -885.11498    1822.5122   -3231.1974    2.1409415    63.362433   0.16328713 
   11900   -939.87299    49.944756   -889.92824      1788.84   -2879.3296    2.1522571    66.852697   0.16050408 
   12000   -943.34974    50.586227   -892.76352    1811.8152    8942.6332    2.1882215    59.749291   0.15295595 
   12100   -938.41869    55.047748   -883.37094    1971.6107   -428.62545    2.1529456    62.839574   0.17498291 
   12200    -937.2872    49.970617   -887.31658    1789.7663   -4185.5659    2.1412649    61.671951   0.16899525 
   12300   -940.22537    47.523919   -892.70145    1702.1344    4240.8243    2.1749862    62.380913   0.17028041 
   12400   -937.89319    49.354327   -888.53886     1767.693    8737.6047    2.1817383    63.068411    0.1741713 
   12500   -936.56393    51.983296   -884.58063    1861.8531    -10074.54    2.1292152    61.566941   0.18768055 
   12600   -941.16633    46.177238    -894.9891    1653.9012   -1108.6944    2.1624726    62.881322   0.15812637 
   12700   -941.64722    52.129297   -889.51792    1867.0824    12372.252    2.1952787    63.500403   0.16065901 
   12800   -938.89017    51.654538   -887.23563    1850.0782   -6916.9656    2.1399012    61.680421   0.16018596 
   12900    -938.2355    45.051007   -893.18449    1613.5637   -11594.066    2.1343737    63.234169   0.16373352 
   13000   -944.59201    50.591052   -894.00096     1811.988    14309.578    2.2033821    60.447944   0.14562169 
   13100   -938.58893     51.11842   -887.47051    1830.8764    2865.7643    2.1654678    65.450421   0.16316638 
   13200   -938.55028    48.435058   -890.11523    1734.7681   -10193.156     2.136051    59.938163   0.15320821 
   13300   -945.57404    48.805641    -896.7684     1748.041    1796.4213     2.180063    66.057154   0.16623229 
   13400   -943.33821    56.594962   -886.74324    2027.0263    690.60813    2.1668528    63.110548   0.14570384 
   13500    -936.6502    48.300125   -888.35007    1729.9353    410.37201    2.1548547    62.340702   0.16054917 
   13600   -943.09056    48.761216   -894.32934    1746.4499    -3010.775    2.1620497     61.85895   0.14440814 
   13700   -942.56274    51.615319   -890.94743    1848.6735    5243.3767    2.1764208    63.038967    0.1373442 
   13800   -935.60321    50.494101    -885.1091    1808.5156   -1760.9747    2.1468462    63.269347   0.15736817 
   13900   -943.19169    50.479185   -892.71251    1807.9814   -7144.0662    2.1505233    64.947677   0.15039999 
   14000   -937.65541    47.628859   -890.02656     1705.893    7457.7084    2.1757401    64.329657   0.15392098 
   14100   -931.99364    50.125322   -881.86832    1795.3073   -166.75162    2.1457925    61.016113   0.17591972 
   14200   -943.92539     51.85789    -892.0675    1857.3615   -6872.3079    2.1539015    79.680072   0.14835376 
   14300   -939.91522    50.370153   -889.54507    1804.0762    827.44414    2.1640645    80.582687   0.17350518 
   14400    -937.3535    54.836938   -882.51656    1964.0603    6298.3319    2.1663556    77.258754   0.17312646 
   14500   -939.81478    49.578974    -890.2358    1775.7391    -5502.574    2.1443669    78.954806   0.15398907 
   14600   -937.74238    44.835061   -892.90732    1605.8293   -5107.7057    2.1400156    90.523972    0.1815071 
   14700   -935.27406     50.65031   -884.62375    1814.1104     13001.78    2.1871951    101.96937    0.1899094 
   14800   -937.31894    47.238572   -890.08037    1691.9143   -1070.3138    2.1523567     106.3564   0.19489987 
   14900    -941.4502    44.164197     -897.286    1581.8014   -10661.853    2.1389814    108.56594   0.18426036 
   15000   -938.13433     49.90576   -888.22857    1787.4433    9166.5369    2.1795812     107.4506   0.19299461 
   15100   -940.76501    54.205458   -886.55955    1941.4429    5449.5726    2.1773585    110.17751   0.17540872 
   15200   -941.22169    47.088284    -894.1334    1686.5316   -11268.484    2.1374548    98.098927   0.19933178 
   15300   -940.44441    52.398522   -888.04589    1876.7251   -2196.7353    2.1571923    107.78927   0.17074404 
   15400   -938.85192     55.26722    -883.5847    1979.4714    4069.7558    2.1683361    100.32286   0.18849142 
   15500   -941.22472    48.639792   -892.58493     1742.101   -1888.2165    2.1594572    107.27935   0.17660726 
   15600   -939.55493    51.462437   -888.09249    1843.1979   -3132.6192    2.1476621    93.226367   0.19459011 
   15700   -936.74272    54.708717   -882.03401    1959.4678     2774.898    2.1534136     74.63322   0.16800499 
   15800   -939.84521    47.734555   -892.11065    1709.6786    5854.4163    2.1702573    75.251484   0.16964458 
   15900   -939.41883    50.601291   -888.81754    1812.3547   -6262.2929    2.1451627     76.15563   0.16751761 
   16000    -936.3702    52.615276   -883.75492    1884.4884   -1927.0384    2.1483673    66.634273   0.16939827 
   16100   -942.61407    49.251706   -893.36236    1764.0175    8436.6266    2.1875248    74.654346   0.16459148 
   16200   -936.57912    48.165016    -888.4141    1725.0962   -1659.3655      2.15273    68.605516   0.15729608 
   16300   -936.68894    50.753507   -885.93543    1817.8066   -9114.2036    2.1267222    76.707796    0.1438668 
   16400   -947.61399    53.404344   -894.20964    1912.7499    4474.2733    2.1833318    70.125743   0.15469279 
   16500   -942.20829    51.689444   -890.51885    1851.3284    7846.4373    2.1829213    66.154489   0.16144924 
   16600   -932.72434    46.471331   -886.25301    1664.4345   -13470.306    2.1117153    82.345531   0.19208117 
   16700   -941.18089    50.436941   -890.74394    1806.4683   -3091.0001    2.1591132    72.561174   0.17288777 
   16800   -943.67841    52.768337   -890.91008    1889.9705    15197.258    2.2053026    83.051534   0.15630077 
   16900   -940.59774    56.729893   -883.86785     2031.859   -7523.0782    2.1396358    72.413815   0.17225493 
   17000   -938.38556    48.469545   -889.91602    1736.0033   -6549.4378    2.1397509    78.336387   0.15643334 
   17100   -940.08889    47.890173   -892.19871    1715.2523    6836.7645    2.1786328    71.920154   0.14851512 
   17200   -937.20332    51.198633   -886.00469    1833.7494    2619.3376    2.1629057    74.955162   0.15754755 
   17300   -942.50815    56.311997   -886.19616    2016.8915   -8849.7554     2.139413     74.72038   0.16329093 
   17400   -944.09403    50.131818   -893.96221    1795.5399    3164.4697    2.1752343    73.679992   0.15369328 
   17500   -943.02345     55.18838   -887.83507    1976.6476   -254.50057    2.1651878    72.297863   0.16797042 
   17600   -934.47118    48.802147   -885.66903    1747.9159   -2900.2269    2.1433423    73.422801    0.1772138 
   17700   -939.13618    43.096862   -896.03932    1543.5733    2919.7385    2.1646937    67.010405    0.1572743 
   17800    -941.2171    51.531911   -889.68519    1845.6862   -1485.1811    2.1578534    74.549632   0.15094719 
   17900   -938.34294    50.712702   -887.63024    1816.3451    1484.2499      2.15846    76.747562   0.14839122 
   18000   -945.82898     48.61767   -897.21131    1741.3086   -623.32606    2.1727867     75.69567   0.17119665 
   18100   -940.04586    49.974058    -890.0718    1789.8895   -2607.9341    2.1548574    74.295203   0.16458819 
   18200   -937.48314     49.84978   -887.63336    1785.4383    3907.3748    2.1660861    71.436464   0.18277738 
   18300   -945.20988    50.409292   -894.80059     1805.478    -416.7641    2.1678782    69.598096   0.16040035 
   18400   -940.38632    51.681632   -888.70468    1851.0486   -4984.8953      2.14728    72.091026   0.17448704 
   18500   -936.28615    49.961613   -886.32453    1789.4438    4382.4764    2.1619299    72.180731   0.18466506 
   18600   -939.45419    47.114975   -892.33922    1687.4875    4116.7532    2.1693857    73.374771    0.1524128 
   18700   -941.88097    50.760951   -891.12002    1818.0732    -5100.602    2.1485356    74.540128   0.15654789 
   18800   -933.46156     50.37134   -883.09022    1804.1187   -1534.2822    2.1433627    82.505576    0.1578599 
   18900    -939.6534    48.661452   -890.99194    1742.8767    7661.3539    2.1773617    73.367462   0.15357051 
   19000   -944.53104    52.064292   -892.46675    1864.7541   -5409.5003    2.1567891    73.347372    0.1599024 
   19100   -937.72229    54.076049   -883.64625     1936.808   -9494.3864    2.1286133    76.554761   0.17132184 
   19200    -942.7985    50.426967   -892.37153    1806.1111    7720.0125    2.1829963    71.593901   0.14747212 
   19300   -943.72698    51.037448   -892.68953    1827.9763   -2751.7531    2.1608507    76.577316   0.15479808 
   19400   -936.26746    47.861806   -888.40566    1714.2363   -5644.1925    2.1358269    78.294192   0.16951807 
   19500   -937.75198    54.184172   -883.56781    1940.6806    5072.0239    2.1645068    76.795259   0.15683466 
   19600   -942.94189    48.484046   -894.45784    1736.5227    6676.1827    2.1829759     70.01266   0.15275647 
   19700   -938.03285    47.315295   -890.71756    1694.6623    -14174.43    2.1177146    86.197136   0.16560282 
   19800   -936.32491    49.031859   -887.29305    1756.1434    4339.7585    2.1645884    110.48661   0.18234883 
   19900   -939.97832    47.668611   -892.30971    1707.3168    8497.9513     2.183528    98.719142   0.18827935 
   20000   -944.32736     45.62469   -898.70267     1634.111   -10271.428    2.1485451    103.76799   0.16934269 
   20100   -939.26491    51.525594   -887.73932    1845.4599   -5028.4565    2.1447304    102.32518   0.19469823 
   20200   -940.35563    53.464449   -886.89119    1914.9027    5553.1661    2.1743409    114.71685   0.20091015 
   20300   -946.41697    55.349481   -891.06749    1982.4177   -7855.9526     2.152724    102.06895   0.19628861 
   20400   -941.37845    44.593296   -896.78515    1597.1701    -4590.444    2.1606386    103.80552    0.1716321 
   20500   -945.27681     48.40465   -896.87216     1733.679    5169.3216    2.1837325    99.355724   0.16489507 
   20600   -942.34363    53.166671   -889.17696    1904.2374    -2123.293    2.1563439    101.83812   0.16720093 
   20700   -941.16528    50.800406   -890.36487    1819.4863   -5649.3267    2.1449637    102.44925   0.16180932 
   20800   -942.45002    53.456289   -888.99374    1914.6104    4619.1046    2.1744874    105.12877   0.16412379 
   20900   -943.34629    51.360599    -891.9857    1839.5504   -642.08717    2.1672186    99.969799   0.15590221 
   21000   -943.34906    44.510609   -898.83845    1594.2086   -3664.9663    2.1629792    99.615252   0.14385338 
   21100   -940.53476    48.157364   -892.37739    1724.8222    2824.5849    2.1685896    88.314396   0.17382223 
   21200   -938.10299    50.382866   -887.72013    1804.5315    4085.2718    2.1631133    95.759647   0.16450631 
   21300   -938.99365    47.370697   -891.62296    1696.6466   -3723.7391    2.1480675    95.446232    0.1632276 
   21400   -942.90617    44.941602   -897.96457    1609.6452    2282.0455    2.1769568    104.85752   0.15940475 
   21500   -943.82492    56.118734   -887.70618    2009.9695    3890.5438    2.1747501    105.86644   0.15212635 
   21600   -940.52226    50.741178   -889.78108     1817.365   -8425.1625    2.1386946    108.32102   0.14407908 
   21700   -941.68139    47.667665   -894.01372    1707.2829   -3960.0951    2.1537697    98.051455   0.16234878 
   21800   -946.54042    49.966197   -896.57422     1789.608    14872.166    2.2102454    99.627638   0.14887683 
   21900    -941.6041    54.929467   -886.67463    1967.3743   -8400.3418    2.1328898    97.615983   0.14927013 
   22000   -942.08524    50.773595   -891.31165     1818.526   -9621.9758    2.1347845    99.748394   0.15734143 
   22100   -940.72698    50.151011   -890.57597    1796.2273    13442.643    2.1902732    101.82789   0.14839929 
   22200   -932.39689    52.294491    -880.1024     1872.999    1441.2304    2.1419703    116.61243   0.16779031 
   22300   -940.37903     51.38874   -888.99029    1840.5583   -5662.0065    2.1430539    103.96998   0.17607709 
   22400   -942.76128    51.238508   -891.52277    1835.1775    698.47901    2.1684099    102.51399   0.15007714 
   22500    -941.2879    52.579998    -888.7079    1883.2249    2305.8137    2.1671812    103.17068   0.15262825 
   22600   -934.17146    53.067094   -881.10437    1900.6709   -7238.7284    2.1235144    108.71672   0.16470504 
   22700   -942.89292    50.625181   -892.26774    1813.2104    4561.7502    2.1737274     98.41806   0.13939141 
   22800   -939.19642    48.835018   -890.36141    1749.0933    4495.6549     2.170264    99.728496    0.1613734 
   22900   -935.71723    49.129256   -886.58797    1759.6318   -5639.5337    2.1342968    109.82841   0.17360102 
   23000   -933.28195    53.730881   -879.55107    1924.4453    1184.9802    2.1479653     104.0512   0.18473776 
   23100    -939.5643    48.946625   -890.61767    1753.0906    11042.356    2.1895516    97.334384   0.17890866 
   23200   -940.68306    49.789952   -890.89311    1783.2955   -15052.977    2.1262769    105.02536   0.16937995 
   23300   -940.38143    50.043762   -890.33767    1792.3861    1593.4691    2.1613528    100.01941   0.17542354 
   23400    -942.5991    53.482722   -889.11638    1915.5571    10377.494    2.1909923    100.36802   0.16127534 
   23500   -933.22949    54.541951   -878.68754    1953.4949    -7217.034    2.1272846    105.28055   0.18285888 
   23600   -937.99228    48.532631   -889.45965    1738.2628    863.30207     2.160171    100.23732   0.16652991 
   23700   -941.82681    51.018259   -890.80855     1827.289    1907.0654    2.1698636    102.69478   0.15610936 
   23800   -939.01302    49.803788   -889.20923    1783.7911    627.00138    2.1631913    101.41724    0.1679018 
   23900   -932.35338    53.282179    -879.0712    1908.3744   -3722.3315    2.1340097    104.24617   0.18700402 
   24000   -939.73047    49.682802   -890.04766    1779.4578    6731.6694     2.176701    103.85946   0.16396956 
   24100   -938.58807    47.717194   -890.87087    1709.0569    39.918828    2.1606132    94.784639   0.18328139 
   24200   -938.38317    50.502245   -887.88092    1808.8073   -6803.7415    2.1433855    103.87731   0.18942316 
   24300    -932.3051    53.932665   -878.37244    1931.6725    3851.0912    2.1549564    102.42628   0.16530708 
   24400   -940.09749    50.840835   -889.25666    1820.9343    7255.3155    2.1787942    104.95376   0.14330481 
   24500   -939.61859    48.931503   -890.68709     1752.549    -11179.44    2.1335623    123.21594   0.17173498 
   24600   -936.49116    51.531945   -884.95921    1845.6874   -2829.0808    2.1458972    107.32478   0.18933208 
   24700   -942.48928    49.556109   -892.93318    1774.9201    12932.955    2.1940528     101.3782   0.15724936 
   24800   -940.99627    46.685652   -894.31061    1672.1108   -5620.0212    2.1501182    101.78365   0.14859524 
   24900   -938.22795     48.87802   -889.34993    1750.6334   -3914.3686    2.1504691    99.216479   0.16668973 
   25000   -939.13216    52.650193   -886.48197     1885.739    6388.3096    2.1748195    96.225958   0.15342126 
   25100   -943.50353    46.409711   -897.09382    1662.2276   -910.39494    2.1666197    106.44496   0.14989899 
   25200      -939.73    47.371702    -892.3583    1696.6826   -4992.8134    2.1498101    102.27557   0.15003191 
   25300   -942.36196    55.266482   -887.09548    1979.4449    3014.7005    2.1662487    110.29918   0.14947735 
   25400   -943.81996    49.623754   -894.19621    1777.3429    2442.9738    2.1702163    103.90635    0.1505183 
   25500   -942.46174    46.779714   -895.68203    1675.4797   -1344.7271    2.1624623    104.08029   0.14167291 
   25600   -938.88925    51.662693   -887.22656    1850.3703   -625.75651    2.1527612    98.965829     0.154365 
   25700   -942.30241    51.209013   -891.09339    1834.1211    2779.4106    2.1690336    100.11603   0.14920668 
   25800   -945.03036    49.001389   -896.02897    1755.0521   -177.55285    2.1708467    100.19567   0.14538154 
   25900   -933.23016    48.133838   -885.09632    1723.9795   -2414.9886    2.1457906    103.56542   0.18040722 
   26000   -940.73484    52.512684   -888.22215    1880.8139    3915.7979    2.1742919    108.35239   0.15869278 
   26100    -945.4397    52.036633   -893.40306    1863.7635   -4088.6991    2.1629728    103.18138    0.1629911 
   26200   -936.14952    50.618157   -885.53136    1812.9588   -1542.4277     2.149319    103.81996   0.16194936 
   26300   -938.22555    52.695825   -885.52972    1887.3733    1879.1264    2.1604018    99.803678   0.17887751 
   26400    -944.2417    51.694905    -892.5468     1851.524    442.83765    2.1666173    104.78979   0.13002729 
   26500   -941.01065    51.626611   -889.38404     1849.078   -2911.5969    2.1555328    103.20053   0.16232495 
   26600   -932.99491    51.192782   -881.80213    1833.5398    1000.9924    2.1489971    102.40354   0.17155454 
   26700   -942.79979     50.47384   -892.32595    1807.7899    7343.6538    2.1853696    94.076887   0.14366872 
   26800   -945.35442     54.17412    -891.1803    1940.3205     -11559.7    2.1418053    96.164758   0.15186191 
   26900   -936.13888    49.826481    -886.3124    1784.6039   -6427.7669    2.1334549    103.44674   0.16946238 
   27000   -944.36641    48.205413   -896.16099    1726.5431    15384.805    2.2086027    95.869506   0.14747201 
   27100   -941.25908    48.040369   -893.21872    1720.6318   -3078.0565    2.1556826    101.73152   0.16973131 
   27200   -941.61366    52.035676   -889.57799    1863.7292   -12525.012    2.1299525    103.91634   0.14691523 
   27300   -940.93121    52.207622   -888.72359    1869.8877    8112.4067    2.1801307    95.352159   0.16106447 
   27400   -944.09747    46.102998   -897.99447    1651.2422    5051.5688    2.1872835    100.66972   0.14875503 
   27500   -936.85494    47.774834    -889.0801    1711.1213   -10878.369    2.1241368     103.2991   0.16783604 
   27600   -941.69825    53.575728   -888.12252    1918.8883    3706.4227    2.1703533    103.27114   0.13436438 
   27700   -940.52968    47.344576    -893.1851     1695.711    7618.8147    2.1833201    98.418625   0.15100484 
   27800   -936.59496    51.168751   -885.42621    1832.6791   -4775.6516    2.1402029    97.347231    0.1526682 
   27900   -941.69971    56.278804   -885.42091    2015.7027   -1922.1486    2.1545871    98.210645   0.14935116 
   28000   -941.37164    49.935728   -891.43591    1788.5167      4585.53    2.1741374    100.13577   0.16160728 
   28100   -944.68018    53.252266   -891.42791     1907.303   -2750.1236    2.1601818    103.88727   0.15311276 
   28200   -936.20414     54.15642   -882.04772    1939.6866    -6709.931     2.137506    103.87589   0.18016252 
   28300   -944.69419    53.012042   -891.68215    1898.6991     6818.688    2.1853705    99.120827    0.1440197 
   28400   -942.44345    51.027531   -891.41592    1827.6211   -1464.8188    2.1651095    108.41856    0.1684327 
   28500   -930.31989    45.366701   -884.95319    1624.8707   -9203.0094    2.1274623    89.603453   0.19794182 
   28600   -941.30276    50.836425   -890.46634    1820.7764    5201.9537    2.1791561    106.03849    0.1858141 
   28700   -941.92129    49.301628   -892.61966    1765.8055    10669.755    2.1928402      107.923   0.16794991 
   28800   -939.00302    50.030252   -888.97277    1791.9022   -12974.382    2.1230825    106.28003    0.1661269 
   28900   -936.88949    50.218787    -886.6707    1798.6548    -1623.184    2.1518537    100.71025   0.18716419 
   29000   -941.72704    47.888881   -893.83816     1715.206    19238.614    2.2164102    96.604315   0.16693718 
   29100   -942.07493    52.375552   -889.69938    1875.9023   -8412.9002     2.142521    103.07799   0.16771248 
   29200   -938.43443    51.073669   -887.36076    1829.2736   -10012.385    2.1317658    105.33905   0.17976098 
   29300   -939.99087    48.678125   -891.31274    1743.4739    9836.1364    2.1832459    100.63003   0.15385285 
   29400   -942.62735    48.554501   -894.07285    1739.0461    614.46747    2.1677782    73.041599   0.16733848 
   29500   -933.81202    49.119269   -884.69276    1759.2741   -10164.605    2.1210283     75.07225   0.19459897 
   29600   -939.19353    48.017324    -891.1762    1719.8064    7893.0055    2.1769828    76.162639    0.1870031 
   29700   -940.12219    48.185015   -891.93717    1725.8125     7941.736    2.1782626    72.920476   0.18874441 
   29800   -937.11133    52.694674   -884.41666    1887.3321   -8382.8114    2.1316172    78.302863   0.20500692 
   29900   -938.86333    51.644879   -887.21845    1849.7323   -2913.7447    2.1510269    70.387967   0.20863742 
   30000   -945.62966    53.602932   -892.02672    1919.8626    5403.0777    2.1830246    84.673725   0.17838528 
   30100   -936.72335     50.52381   -886.19954    1809.5796   -1461.1394    2.1505356     74.66138   0.19416628 
   30200   -936.26231    49.115943   -887.14637     1759.155   -7440.7009    2.1355803    80.696929   0.18504119 
   30300   -944.74907    51.047596   -893.70147    1828.3397    6003.5709    2.1853706    86.371356   0.17380261 
   30400   -939.93922    54.186498   -885.75273    1940.7639    855.19769    2.1623741     54.51548   0.18333627 
   30500    -935.2728    47.033464   -888.23934    1684.5681   -5503.8352    2.1379678    44.109695   0.17028273 
   30600   -942.61306    47.705848   -894.90722    1708.6505    3536.4711    2.1758341    40.276661   0.14979317 
   30700   -934.88187    48.517776   -886.36409    1737.7308     6939.349    2.1686546    41.159848   0.15823248 
   30800   -932.37168    44.418948   -887.95273    1590.9256    1473.9749    2.1481039    44.195103   0.17054919 
   30900   -945.66122    50.009572   -895.65165    1791.1615   -2836.1955     2.164776    38.873578   0.14731274 
   31000   -939.97701     52.33425   -887.64276    1874.4231     3428.031    2.1677962    43.245577   0.16443663 
   31100   -937.65118    50.220468   -887.43071     1798.715   -166.14096    2.1560527    41.823405   0.14708993 
   31200   -942.05581    46.590658   -895.46515    1668.7084   -1157.5835    2.1650129    44.483959   0.14357244 
   31300   -939.76128    52.295766   -887.46551    1873.0447   -521.66548     2.157811    44.891091   0.13262624 
   31400   -939.56205    52.229748    -887.3323    1870.6802    659.28102    2.1575228    44.524248    0.1486888 
   31500   -944.30482    48.805807   -895.49901     1748.047    530.73554    2.1665621    37.919533   0.14837501 
   31600   -940.16727    52.423143   -887.74413    1877.6069    -3559.335    2.1532565    39.282744   0.17727434 
   31700   -937.49294    50.444487   -887.04846    1806.7386    2795.9627    2.1622159    43.169925   0.17759553 
   31800   -944.27435    49.028377   -895.24597    1756.0186   -1959.7569    2.1676905    43.316545   0.12780697 
   31900   -940.36643    52.764299   -887.60214    1889.8258    -3950.833    2.1488446    43.401883    0.1441209 
   32000   -936.33819    49.606834   -886.73135    1776.7369    4056.4809    2.1647813    43.885288   0.14911872 
   32100   -942.07333    47.702109   -894.37122    1708.5166    1745.5623    2.1714912    42.481929   0.14093541 
   32200   -937.79959    50.515648   -887.28394    1809.2873   -7315.0007    2.1389151     42.03127   0.16477946 
   32300   -940.64837    54.691621   -885.95675    1958.8555    1125.1564    2.1597105    44.371247   0.15763929 
   32400   -941.82961    48.782456   -893.04715    1747.2107    8751.9754    2.1889145     45.92849   0.17206094 
   32500   -937.44259    48.394083    -889.0485    1733.3005   -7967.0013    2.1375294    44.534343   0.17435901 
   32600   -938.27756    52.626578   -885.65099    1884.8932   -4818.7714     2.140185    47.413881    0.1632627 
   32700   -942.48904    50.138486   -892.35056    1795.7787    10751.111    2.1946955    41.367568   0.15225466 
   32800   -938.63977     45.57823   -893.06154    1632.4469    591.02194    2.1625233    41.066697   0.16786984 
   32900   -934.99689    49.532952   -885.46394    1774.0907   -11435.359    2.1216914    43.455965   0.17438809 
   33000   -943.43739     49.93596   -893.50143     1788.525    7754.0584    2.1851658    44.257907   0.14666165 
   33100   -945.07577    52.320027   -892.75574    1873.9136    4122.8618    2.1789254    41.876661   0.14136713 
   33200   -935.28853    48.526339   -886.76219    1738.0375   -7600.5239    2.1290791    41.500579   0.17510981 
   33300   -939.11174    47.215513   -891.89623    1691.0884     853.4492    2.1630262    41.365256   0.17108762 
   33400   -947.27686    53.093086   -894.18378    1901.6018    3657.3142    2.1831094    41.204043   0.14348381 
   33500   -937.06146    49.978024   -887.08344    1790.0316   -2487.1834    2.1449748    43.231355   0.14908488 
   33600   -940.99723    51.156461   -889.84077    1832.2389   -5235.8936    2.1458632    41.992762   0.14743291 
   33700   -943.06524    48.013063   -895.05218    1719.6538    4650.3261    2.1806054    39.899153   0.15436855 
   33800   -936.78238    50.844455   -885.93792     1821.064   -159.71712    2.1524459     36.86228   0.15158617 
   33900   -941.87913      51.5813   -890.29783    1847.4551   -3608.8734    2.1527978    36.148733   0.14876076 
   34000   -946.02729    50.909842   -895.11745    1823.4059   -472.41094    2.1718572    43.297132   0.14621243 
   34100   -938.50895     53.25249   -885.25646    1907.3111   -1065.3113    2.1525848    39.979883   0.15830067 
   34200   -940.10584    50.278042    -889.8278    1800.7771    -745.8002    2.1594656     42.54079   0.15609972 
   34300   -944.09177    49.700846   -894.39092    1780.1041   -604.54449    2.1683824    36.692414   0.15757399 
   34400   -939.71821    55.344322   -884.37389    1982.2329   -4013.3842    2.1458359    44.302459   0.15124795 
   34500   -938.89991    49.871928   -889.02798    1786.2316    4665.9314    2.1672476    40.853977    0.1573927 
   34600   -938.83153    45.154817   -893.67671    1617.2818    484.73136    2.1602067    43.239173   0.16182452 
   34700   -936.79152    50.941749   -885.84977    1824.5487    -2151.243    2.1460851    39.453122    0.1646451 
   34800     -938.056    50.138221   -887.91778    1795.7692    4531.6896    2.1623949    39.245125   0.15107277 
   34900   -941.00482    47.325608   -893.67921    1695.0317    3450.0874    2.1653465    29.918337   0.15401489 
   35000   -939.65233    53.062767   -886.58956    1900.5159   -1947.4653    2.1555881    45.279789   0.16299325 
   35100   -939.89304    53.663829   -886.22921    1922.0437   -5871.3393    2.1423976    53.653312   0.18063411 
   35200   -941.91185    46.941728   -894.97012    1681.2825    8978.0046    2.1883799    50.957371   0.15294832 
   35300   -934.07266    47.363763    -886.7089    1696.3982   -554.81613    2.1469373    49.737036   0.15867778 
   35400   -935.78906    48.496486   -887.29257    1736.9683   -6433.8934    2.1352692    51.336827    0.1840218 
   35500   -942.54846    48.749036   -893.79943    1746.0137    5380.5686    2.1824849    65.029693   0.18834923 
   35600   -942.85155    51.224329   -891.62723    1834.6697      4823.16    2.1735687    63.961404   0.17057404 
   35700   -937.79147    52.004414   -885.78706    1862.6095   -9991.4095    2.1264426    64.223633   0.18820361 
   35800   -937.98836    46.358612   -891.62975    1660.3974    2949.6635    2.1641769    68.464149   0.18400028 
   35900    -942.3508    48.924238   -893.42657    1752.2888     10662.88    2.1958034    63.079536   0.16939293 
   36000   -938.35573    54.802693   -883.55303    1962.8337   -9213.9696    2.1316563    62.990122   0.18421404 
   36100   -942.02108    50.715937   -891.30514    1816.4609   -5176.9535    2.1537992    66.957228   0.14640851 
   36200   -943.68703    52.085989   -891.60104    1865.5312     7253.846     2.188466    62.170162   0.15105073 
   36300   -938.64873    54.071783   -884.57695    1936.6552   -242.83838    2.1523261    61.966149   0.15484897 
   36400   -941.91996    54.668722   -887.25124    1958.0354   -9436.1345    2.1360723    58.568954   0.15710094 
   36500   -946.01819    53.174548   -892.84364    1904.5195    2482.1396    2.1766714    62.168775     0.143845 
   36600   -937.27783    50.350866   -886.92696    1803.3854    6089.0847     2.175053    57.504316   0.15858521 
   36700   -933.04297    46.243594   -886.79938    1656.2778   -8066.3524    2.1294915    61.239237   0.16439818 
   36800   -943.96423    47.910203   -896.05403    1715.9697    1259.5415    2.1732411    61.803438   0.17230907 
   36900   -939.60056    51.438282   -888.16228    1842.3327    9529.2259    2.1820003    55.301678   0.15293683 
   37000   -937.91942    51.202288   -886.71713    1833.8803    -3002.899    2.1419721    51.690472   0.17211278 
   37100   -941.55346    46.191956    -895.3615    1654.4283   -4050.8997      2.15336    55.533731   0.14906325 
   37200    -942.4498    50.905929   -891.54387    1823.2658     4832.769    2.1765328    42.024476   0.15815214 
   37300   -937.73137    51.805403   -885.92597    1855.4817    3964.2669    2.1612355    37.730446   0.19596132 
   37400   -944.69751    50.696859   -894.00065    1815.7776    -7220.757    2.1547411    41.356565   0.16190792 
   37500   -940.15428    48.027419   -892.12686     1720.168    1964.7218    2.1641598    42.018671   0.16663513 
   37600   -941.59028    56.921802   -884.66848    2038.7325   -1362.6544    2.1606879    36.706102   0.17645477 
   37700   -938.48559    46.794326   -891.69126    1676.0031    195.78124    2.1618097     42.06759   0.17650672 
   37800   -940.53519    48.817242   -891.71795    1748.4566    197.13488    2.1645328    37.833547   0.19600798 
   37900   -934.46535    52.541408   -881.92395    1881.8427    1173.8228    2.1510252    58.987363   0.19206281 
   38000   -939.75272    49.809686   -889.94303    1784.0023     813.7994    2.1658084    36.786913   0.17991848 
   38100   -937.95291    47.175064   -890.77785    1689.6397    -430.6766    2.1566957    39.088055   0.19592594 
   38200   -936.30439     53.17782   -883.12657    1904.6367   -3538.3593    2.1475322    52.716938   0.17610198 
   38300   -943.91331    50.644941   -893.26837    1813.9181    5052.2852    2.1849025    45.102511   0.16029499 
   38400    -944.6252     52.26518   -892.36002    1871.9492   -9629.9469    2.1474234    55.828738    0.1693695 
   38500   -935.85307    48.549801   -887.30327    1738.8778   -582.46495    2.1506529    55.805191   0.18336197 
   38600   -943.20855    49.847164   -893.36139    1785.3447    11417.034     2.198659    51.144034    0.1731047 
   38700   -944.52788    48.514593   -896.01329    1737.6168   -7400.3535    2.1566233    48.133817   0.15587257 
   38800   -936.68198    46.732246   -889.94973    1673.7796   -4502.0912    2.1431673     55.70881   0.15174131 
   38900   -938.83826    52.213133   -886.62513    1870.0851    11198.699    2.1875361    46.235479   0.18097068 
   39000   -943.39713     46.89117   -896.50596    1679.4717   -765.54954    2.1726923    50.944668   0.17410473 
   39100   -938.01469    47.251642   -890.76305    1692.3825   -12034.655    2.1299851    52.649838   0.17564088 
   39200   -935.63213    48.939389   -886.69274    1752.8314    7425.7996    2.1763583    52.528096   0.19582617 
   39300   -939.23564    47.288903   -891.94674     1693.717    4474.2125    2.1785875    52.920473   0.17955332 
   39400    -943.5065    48.447023   -895.05948    1735.1967   -8260.1791    2.1523436    55.399865    0.1822341 
   39500   -936.30189      52.3802   -883.92169    1876.0688    529.22567    2.1556801    49.636145   0.17682575 
   39600   -938.83038    51.628042   -887.20234    1849.1292    6021.3273    2.1728835    47.289062   0.17708432 
   39700   -941.14537     48.54239   -892.60298    1738.6124    -3844.683    2.1569232    50.700331   0.16534485 
   39800     -937.962    50.256784   -887.70521    1800.0157    315.18499    2.1579103    52.715516   0.17639268 
   39900    -935.7073    54.019794   -881.68751    1934.7931    1122.0522    2.1549044    56.776518   0.20358628 
   40000   -940.21737    49.605901   -890.61147    1776.7035   -2812.0789    2.1532934    63.413162   0.18585361 
   40100   -937.73694    48.015347   -889.72159    1719.7356   -468.20097    2.1603385    73.297584   0.19904344 
   40200   -932.19793    51.581591   -880.61633    1847.4655    7424.1492    2.1602411    62.556211   0.20369489 
   40300   -942.11129    53.491537   -888.61975    1915.8729   -3544.5719    2.1555232    58.745853    0.1739222 
   40400   -941.56922    49.783295   -891.78593    1783.0571   -8839.6631    2.1431709    50.150638   0.18588113 
   40500    -937.8462    53.511817   -884.33438    1916.5992    7087.7067    2.1680482    58.895228   0.17626908 
   40600   -943.36162    51.877754   -891.48386     1858.073    3679.8147    2.1715091    54.683086   0.15369525 
   40700   -942.48203    48.385761   -894.09627    1733.0025   -13977.324    2.1277866    62.380321   0.17787038 
   40800   -934.82337    47.451084   -887.37228    1699.5258    4468.0494    2.1635856    56.073698   0.17121993 
   40900   -937.99538    51.497652   -886.49772    1844.4591    12820.357    2.1861591    68.010905    0.1857526 
   41000   -941.67167    45.789254   -895.88242     1640.005   -13144.394    2.1334755    62.238021   0.17575217 
   41100   -939.34293    47.824856   -891.51808    1712.9129   -2889.3565    2.1494704    53.041836   0.17351424 
   41200   -936.10035    52.063411   -884.03694    1864.7226    11885.266    2.1811505    49.348722   0.17024743 
   41300   -935.53062    43.639057   -891.89157    1562.9928   -600.94407    2.1526668    49.550263   0.17499012 
   41400   -938.40984      46.9065   -891.50334    1680.0207   -1886.3775     2.151288     58.03719   0.17284921 
   41500   -939.02128    56.472959   -882.54832    2022.6566    340.59938    2.1550027    56.040811   0.17476485 
   41600   -939.44383    50.264645   -889.17918    1800.2973    3844.1446    2.1701442    62.665464   0.17374104 
   41700   -942.61845    50.391483   -892.22697    1804.8402   -8116.5717     2.144099    59.207211   0.16124661 
   41800   -938.72158    56.046711   -882.67487    2007.3899   -3070.7583    2.1485189    53.253889   0.18553418 
   41900   -940.13739    52.215705   -887.92168    1870.1772    5088.8627    2.1736922    48.353745   0.19241946 
   42000   -941.63517    49.156103   -892.47906    1760.5934   -4907.6038    2.1494057    58.839436   0.18874938 
   42100   -938.57507     51.51887    -887.0562    1845.2191     -2295.66    2.1517463    53.248343   0.18376084 
   42200   -936.28709    51.884558   -884.40253    1858.3167    7832.4528     2.173428    49.117618   0.19795948 
   42300   -937.95921    43.789973   -894.16924     1568.398    893.37549    2.1640438     54.39785   0.19649817 
   42400    -942.5087     51.93252   -890.57618    1860.0346   -9617.4632    2.1394678    57.655043   0.18588853 
   42500    -938.8092    54.234471   -884.57473    1942.4821    7064.3626    2.1710079     57.90955   0.17014709 
   42600   -941.50845    48.492315   -893.01613    1736.8189    7600.5648    2.1814332    54.151311   0.17896414 
   42700   -942.16205    49.585667   -892.57638    1775.9788   -14582.139    2.1332671     47.76818    0.1754169 
   42800   -936.32244     50.25608   -886.06636    1799.9905    1127.1814    2.1600161    76.693668   0.16119408 
   42900   -943.34303    51.985835   -891.35719    1861.9441    11120.685    2.1957653     72.89804   0.15302089 
   43000   -942.42257    45.843466    -896.5791    1641.9467   -7559.3883    2.1511429    73.328221   0.16559891 
   43100    -938.9156    51.518693    -887.3969    1845.2128   -10691.328    2.1345711     72.73576   0.15887882 
   43200   -940.95219    52.957988    -887.9942    1896.7631    16491.543    2.2052191    67.832902   0.17583921 
   43300    -943.6847    49.064236   -894.62047     1757.303    19.355011    2.1693715     74.07128   0.16173943 
   43400   -940.39624    52.063657   -888.33258    1864.7314   -17978.165     2.120155    78.477838   0.18809161 
   43500   -941.15315    57.225087   -883.92806    2049.5951    5171.1901    2.1713958    74.091909   0.17861516 
   43600   -944.54717    52.045346   -892.50182    1864.0755     3881.128    2.1792069     73.88404   0.16525535 
   43700   -938.53322     47.84397   -890.68925    1713.5975   -5017.6785    2.1450724    79.031242   0.16345057 
   43800   -937.56694    54.217307   -883.34963    1941.8673   -2493.9043    2.1431988    74.539088   0.15480149 
   43900   -946.11614    53.158932   -892.95721    1903.9602    4186.8726    2.1784256    73.418209    0.1537385 
   44000   -945.08356    53.733523   -891.35003    1924.5399   -5899.4784    2.1512699    75.151295   0.15327293 
   44100   -935.05473    50.072866   -884.98187    1793.4285   -2537.4376    2.1379048    80.960558   0.16910449 
   44200   -945.87536    50.899408   -894.97595    1823.0322    7959.7683    2.1879931    73.961564   0.14754131 
   44300   -941.05088    49.360709   -891.69017    1767.9216   -618.11334    2.1577196    74.698423   0.15271058 
   44400   -939.86812    52.419991   -887.44813     1877.494   -6609.2927    2.1351243    70.873059   0.14811192 
   44500   -944.31291     50.15588   -894.15703    1796.4017    7037.8785    2.1845396    70.979744   0.13050577 
   44600   -943.94134    48.650296   -895.29104    1742.4772    3007.0347    2.1776234     69.65598   0.14557392 
   44700   -937.20446    48.840143   -888.36431    1749.2768   -10178.413    2.1292822    71.104259   0.14748748 
   44800   -939.40878     49.06615   -890.34263    1757.3716     2953.846    2.1625475     70.47382   0.15078032 
   44900   -945.89865    50.560111   -895.33853    1810.8798    10635.897    2.1980579     71.95611   0.14057939 
   45000   -935.37347    50.268744   -885.10472    1800.4441   -8248.8706    2.1272225    68.833433   0.16528948 
   45100   -938.15433    48.407918   -889.74641    1733.7961   -3295.6774    2.1517006    69.025627   0.16418495 
   45200   -942.77425    50.408965   -892.36529    1805.4663    9344.3047    2.1955647    73.133669   0.16997083 
   45300   -938.15627    54.024384   -884.13188    1934.9575   -3640.5893    2.1474239    73.643782   0.15468894 
   45400   -935.35753    48.515865   -886.84166    1737.6623   -6292.8854    2.1360021    74.854375   0.16363442 
   45500   -940.92468    48.338865   -892.58581    1731.3229    5559.6461    2.1773128    75.301904   0.15286394 
   45600   -944.45497     55.38411   -889.07087     1983.658    2186.2584    2.1711196    72.986651   0.13994075 
   45700   -935.07663    51.927127   -883.14951    1859.8414   -6059.6225    2.1323108    64.355347   0.19996659 
   45800   -943.27815    50.025753   -893.25239    1791.7411    1284.1548     2.170806    84.324342   0.18911719 
   45900   -937.42839    48.233919   -889.19447    1727.5641    5705.8518    2.1697379    63.745392   0.19824212 
   46000   -936.90641    51.983753   -884.92266    1861.8695   -5688.4164    2.1463859    84.700718   0.22635882 
   46100   -941.78758    47.250207   -894.53738    1692.3311    2182.6345    2.1652451    80.054945   0.19035374 
   46200   -941.22655    51.872217   -889.35433    1857.8747    3311.7028    2.1681335    57.956825   0.18329158 
   46300    -937.6046    51.446621   -886.15798    1842.6314   -1114.7799    2.1495044    54.400666   0.15981602 
   46400   -941.45819     45.43483   -896.02336    1627.3109   -573.99539    2.1668852    63.824812   0.15147511 
   46500   -941.69793    51.831793   -889.86613    1856.4269    238.30947    2.1667442    55.833689   0.16969255 
   46600   -939.46196    52.774866    -886.6871    1890.2043    640.48976    2.1586354    54.362232   0.16151935 
   46700     -946.101     49.97941   -896.12159    1790.0812    -4549.521     2.163387    54.856748    0.1528318 
   46800   -939.90891    50.011931   -889.89698     1791.246    607.75264    2.1621445    54.889508   0.17486415 
   46900   -937.27671    51.056599   -886.22011    1828.6622    5395.4037    2.1676867    59.756476   0.17134353 
   47000   -942.99512    47.776937   -895.21818    1711.1966    -3014.433    2.1600785    57.109013   0.17348247 
   47100   -939.13388    50.021612   -889.11227    1791.5928   -3310.4921    2.1457142    53.635446   0.18072596 
   47200   -936.94005    52.748186   -884.19186    1889.2487    7268.4714    2.1693287    56.209406   0.18127307 
   47300    -938.8745     45.73696   -893.13754    1638.1321    2176.6161    2.1680317    56.443498   0.16265548 
   47400   -939.79342    48.371275   -891.42215    1732.4836   -8630.5352    2.1367101    60.054484   0.15155329 
   47500   -936.00162    52.032542   -883.96907    1863.6169    4055.1717    2.1555181    52.322295   0.17064814 
   47600   -940.18131    48.724941   -891.45637    1745.1507    11417.926    2.1872386    53.490137   0.15624378 
   47700   -939.92697    46.011101   -893.91586    1647.9508   -5204.6166    2.1453988    55.968114   0.16721965 
   47800   -937.16668    51.425612   -885.74107    1841.8789   -7023.7874    2.1337947    63.340403   0.17518277 
   47900   -943.98806    51.494773   -892.49328     1844.356    9883.5817    2.1921349    58.346704   0.14646665 
   48000   -948.56029    54.159188   -894.40111    1939.7857   -4990.0437    2.1637738    58.057028   0.14790751 
   48100   -936.72686    48.913404   -887.81346    1751.9007   -9456.6328     2.131561    54.232554   0.17619664 
   48200   -939.04126    49.346054   -889.69521    1767.3967    4391.0135    2.1715779    55.501717   0.15194058 
   48300   -942.81137    46.859022   -895.95235    1678.3202    7184.6322    2.1846529     52.39716   0.15669153 
   48400     -935.759    48.331722   -887.42728     1731.067   -5852.4884    2.1352522    62.774196   0.16690523 
   48500   -938.31455    50.879323   -887.43522    1822.3128   -1122.8762    2.1516711    59.933608   0.17924285 
   48600   -941.44406    47.350035   -894.09403    1695.9065    4295.8196    2.1813079    56.640819   0.18194086 
   48700   -938.51905    51.019113   -887.49994    1827.3196   -878.06183    2.1558108    52.708843   0.17867424 
   48800   -937.41998    52.159567   -885.26041    1868.1665   -4780.9756    2.1427495    50.323327   0.20199764 
   48900   -944.04083    52.918125    -891.1227    1895.3353   -2326.9916     2.164895    37.056417    0.1884166 
   49000    -940.4807    50.327777   -890.15292    1802.5584    1515.5105    2.1668049    47.468287   0.18786962 
   49100   -935.50809    52.901751   -882.60634    1894.7489   -5156.4313    2.1399426    45.387638   0.19116057 
   49200   -940.23357    49.272309   -890.96126    1764.7554   -490.61051    2.1561293    48.256882   0.17940704 
   49300   -941.61399    52.563448   -889.05055    1882.6321    7438.1635    2.1832399    56.948901    0.1655089 
   49400   -936.65383    55.239884   -881.41395    1978.4923   -7337.5618    2.1311447    52.505619   0.19230755 
   49500   -941.43054    51.209704   -890.22084    1834.1459   -7172.3573    2.1448101    45.728658   0.15127305 
   49600   -941.43606    50.204972   -891.23109      1798.16    7809.9277    2.1859182      40.9309   0.17177662 
   49700   -940.37875    51.852608   -888.52614    1857.1724    1738.0213    2.1623558    43.241343   0.16333464 
   49800   -936.04451      50.4216   -885.62291    1805.9189   -13216.386    2.1147507    42.648864   0.17175346 
   49900   -945.29581    48.449748   -896.84606    1735.2943    12303.528    2.2036376     42.97365   0.14946936 
   50000   -943.15287    53.042906   -890.10997    1899.8045    5495.7846    2.1786396    40.434802    0.1586186 
   50100   -940.55195    50.773025   -889.77892    1818.5056   -17336.229    2.1152843    46.690297    0.1574132 
   50200   -941.69429    54.360217   -887.33407    1946.9858    1369.0531    2.1659581     40.19357   0.15713728 
   50300   -947.52234    49.084505   -898.43784     1758.029    5539.8993    2.1905826    39.902186   0.16463821 
   50400   -946.85407    52.161318   -894.69275    1868.2292   -11261.302    2.1421311    43.070938   0.15213935 
   50500   -940.66562    50.988405   -889.67721    1826.2198   -152.30712    2.1605727    40.903279   0.15330575 
   50600   -942.42119    53.024793    -889.3964    1899.1558     4556.008    2.1739532     40.24314   0.16669259 
   50700   -944.98124    45.528146   -899.45309    1630.6531   -4304.5828    2.1640008    42.746198   0.14542458 
   50800   -944.94992    52.273658   -892.67627    1872.2529    -6683.458    2.1551958    38.362422   0.16121071 
   50900   -942.05027    54.025051   -888.02521    1934.9814    5608.8239    2.1800625     47.28509   0.15889765 
   51000   -942.22586    49.591937   -892.63392    1776.2033   -1437.0449    2.1600794    36.482538   0.14372871 
   51100   -947.30334    47.469402   -899.83394    1700.1818   -4394.4039    2.1647863    42.913425   0.14917189 
   51200   -943.02181    51.933446   -891.08836    1860.0677    3644.7872    2.1752706    41.893287   0.16526731 
   51300   -944.17557     55.19764   -888.97793    1976.9793   -512.24726    2.1665384    44.161396   0.17919465 
   51400    -942.0124    50.181345   -891.83106    1797.3138   -9676.3871    2.1363692    39.900791   0.15533112 
   51500   -943.58789    52.429018   -891.15887    1877.8173    1453.0872    2.1733937    43.079911   0.15618741 
   51600    -936.7148    56.014952   -880.69985    2006.2524    1061.5886    2.1560459    41.862629   0.15105994 
   51700   -938.82234    50.840549   -887.98179    1820.9241   -7513.7581    2.1401721    46.443936    0.1631524 
   51800    -941.0092    49.117918   -891.89129    1759.2257    1033.9025    2.1694618    44.114912   0.16560133 
   51900   -942.00865    51.222374   -890.78628    1834.5997    10457.556    2.1917579    44.031416   0.15338054 
   52000    -932.3157    50.821944   -881.49376    1820.2577   -10561.346    2.1144188     41.41092   0.16162336 
   52100   -941.53061    49.231819    -892.2988    1763.3052   -4111.3607     2.154242    42.945914   0.16810433 
   52200   -942.58382    52.725343   -889.85848    1888.4306    15474.659    2.2007158    39.791238   0.14988257 
   52300   -939.52924    49.836865   -889.69238    1784.9758   -5309.5387     2.141017     43.80192   0.14555607 
   52400   -932.37506    51.470894   -880.90416    1843.5008   -9393.4906    2.1179439    45.361071   0.16530839 
   52500    -939.8555    47.424204   -892.43129     1698.563    14151.653    2.1958263    42.287142   0.13956113 
   52600    -942.1111    50.483385   -891.62771    1808.1318   -3521.7223    2.1559731    41.884225   0.13855557 
   52700   -941.41165     52.95795    -888.4537    1896.7617   -5958.4613    2.1410273    41.598504     0.126503 
   52800    -941.8927    53.287002    -888.6057    1908.5472    4609.2189    2.1669721    42.766762   0.13211097 
   52900   -942.27014    44.556174   -897.71396    1595.8406    6923.3159    2.1866396    41.082106   0.14952094 
   53000   -937.94246    46.601498   -891.34097    1669.0967    -5839.669    2.1422368    36.099955   0.15919161 
   53100    -936.1703    47.614966   -888.55533    1705.3954    669.52624    2.1496822    42.928589   0.14944946 
   53200   -945.57971    50.471612    -895.1081    1807.7101    4534.5363    2.1824707     40.93924   0.13228772 
   53300   -945.27509    48.063395    -897.2117    1721.4565   -1473.9096    2.1657164    46.646484   0.14981579 
   53400   -936.27369    46.979944   -889.29374    1682.6512   -4688.6875    2.1417737    52.177364   0.17730975 
   53500   -940.03347    52.997784   -887.03569    1898.1884    5263.9565    2.1699871    49.799115   0.16454584 
   53600   -947.45697    52.245848   -895.21112    1871.2568    -1020.847    2.1715782    49.977923   0.16568644 
   53700   -939.23755    45.581246    -893.6563    1632.5549   -8795.8387    2.1351277    35.953981   0.15874085 
   53800   -940.93744    52.970944   -887.96649    1897.2271    4588.7806    2.1752683    41.090809   0.17239836 
   53900   -941.03762    51.055623     -889.982    1828.6273    6868.3292    2.1831776    41.361407   0.15951465 
   54000   -943.45771    46.123921   -897.33379    1651.9916   -15980.941    2.1307429    45.005333   0.16783892 
   54100    -942.3394    52.094031   -890.24537    1865.8193    439.76385     2.165175    46.233207   0.16045279 
   54200   -939.96729    55.043647   -884.92365    1971.4638    16992.498    2.1981365    41.121585   0.15351955 
   54300   -940.55148    47.867367   -892.68411    1714.4355   -8750.9407    2.1374747    43.546819   0.16504323 
   54400   -935.94197    46.551046   -889.39092    1667.2896    -1580.453    2.1479116    41.196687   0.16412541 
   54500   -932.71168    52.706403   -880.00528    1887.7522    8349.8095    2.1651159    42.620046   0.17354236 
   54600   -942.06063     51.80768   -890.25295    1855.5632    275.88984     2.162647    39.699663   0.15999655 
   54700   -937.56011     45.84147   -891.71863    1641.8752   -4970.0453    2.1442722    43.801719    0.1816467 
   54800   -938.35367    54.127527   -884.22614    1938.6517    3373.4916    2.1613593    44.497118   0.16601071 
   54900   -940.70356    51.689348   -889.01422     1851.325    2553.8643    2.1665225     44.98011   0.14009669 
   55000   -945.62347    52.023563   -893.59991    1863.2954    -8737.052    2.1473243    42.918898   0.15534602 
   55100   -940.36136    51.609927   -888.75144    1848.4804    3871.2891    2.1679238    43.012108   0.14188376 
   55200   -935.69287    48.050896   -887.64198    1721.0088    5701.3857    2.1682969    38.794454   0.15854281 
   55300   -940.70135    42.494244    -898.2071    1521.9897   -1674.2863    2.1609632    41.365668   0.15661268 
   55400   -942.73437    49.998728   -892.73564    1790.7731   -4306.3497    2.1531118    41.443583   0.15027805 
   55500   -942.04852    54.705188   -887.34333    1959.3414    5634.2914    2.1749339     42.20739   0.14014981 
   55600   -941.36112    48.293429   -893.06769    1729.6955   -1138.5722    2.1575778    39.716769   0.16287669 
   55700   -944.37377     45.86048   -898.51329    1642.5561   -8011.0743    2.1512056    45.575097   0.16118536 
   55800   -942.15543    53.069606   -889.08582    1900.7608    6239.9479    2.1756659     45.50719   0.14420259 
   55900   -939.71684    50.649462   -889.06737    1814.0801    4264.1913     2.166828    42.003253   0.15428111 
   56000   -939.93334    44.380332   -895.55301    1589.5425   -15815.806    2.1237091    42.164087   0.15087404 
   56100    -939.5955     47.48049   -892.11501     1700.579    8189.8061    2.1801062    41.669604   0.15404117 
   56200   -935.21432    50.979098   -884.23522    1825.8864    13157.195    2.1831116    41.917908   0.16756013 
   56300   -940.92721    49.140462   -891.78675    1760.0331   -10727.773    2.1296649    42.670522    0.1514349 
   56400   -942.55256     51.77468   -890.77788    1854.3813   -1751.5934    2.1588479     46.52338   0.14031949 
   56500   -930.27039    49.997288    -880.2731    1790.7215    12673.594    2.1703685    45.687289   0.16766352 
   56600   -939.50429    51.066682   -888.43761    1829.0234   -4168.3685    2.1470257    45.438119    0.1634838 
   56700   -941.88288    48.857667   -893.02521    1749.9045   -6893.9754    2.1476518    41.533255   0.15439504 
   56800   -936.25297    49.360435   -886.89254    1767.9118    7141.5615    2.1743536    39.703776   0.15141239 
   56900   -933.56424    49.702728   -883.86151    1780.1715    1331.9089    2.1539305    42.605266   0.17390461 
   57000   -943.81499    49.842455   -893.97254     1785.176   -6951.4819    2.1559227    42.992202   0.14780479 
   57100   -938.40454    48.474131   -889.93041    1736.1676    3757.7889    2.1672868    40.499639   0.16368333 
   57200   -934.67537    50.115932   -884.55944    1794.9709    2690.2441      2.15712    41.252209   0.16202955 
   57300     -940.421     46.57224   -893.84876    1668.0487   -4760.5975    2.1536916    39.235362    0.1590799 
   57400   -942.58596    49.101617   -893.48434    1758.6419   -3687.6677    2.1571224    43.202242   0.15314982 
   57500   -938.26442    51.262029   -887.00239      1836.02    8835.2813    2.1739901    41.501544   0.15502746 
   57600   -942.22931    49.682768   -892.54654    1779.4566   -3201.0317    2.1549134    40.370561    0.1430798 
   57700   -941.31608    43.369666   -897.94642    1553.3441   -7957.7482    2.1476286    39.431797    0.1419687 
   57800   -939.41918    50.707399   -888.71178    1816.1552    10853.039    2.1843232     36.56778   0.15458339 
   57900   -937.74387    48.710066    -889.0338    1744.6179    4259.6546    2.1663141    42.008063    0.1755075 
   58000   -942.62097    46.806998   -895.81397    1676.4569   -16296.171    2.1241789     41.47529    0.1512996 
   58100   -940.38257    48.164366    -892.2182    1725.0729    6919.9951    2.1805648    37.772023   0.12753855 
   58200   -937.34067    52.763271    -884.5774     1889.789    10982.299    2.1797043    42.099294   0.16021493 
   58300    -938.6868    46.255452   -892.43135    1656.7025   -10361.949     2.134209    47.987541   0.16439776 
   58400   -941.27765    50.273469   -891.00418    1800.6133   -1298.7021    2.1568801    42.711547   0.16708836 
   58500   -936.63332    55.747389   -880.88593    1996.6693    6614.7276    2.1607933    40.901989   0.15027324 
   58600    -939.0992    49.042817   -890.05639    1756.5358    1595.5552    2.1549651     42.05567   0.14229033 
   58700   -943.36064    50.704293   -892.65635    1816.0439    -5005.532     2.150234    42.266119   0.12142997 
   58800    -940.9054     56.40752   -884.49788    2020.3128    2574.6572    2.1608734    42.183409   0.14600301 
   58900   -939.92928    52.051562   -887.87772    1864.2982    1092.8566    2.1576587    44.137468   0.14787861 
   59000   -942.00417    47.872035   -894.13214    1714.6027   -5487.4474    2.1499134    42.881713   0.14630542 
   59100   -943.58648    55.762443   -887.82403    1997.2085    2041.7692    2.1650901    42.672392    0.1383892 
   59200   -938.66454    50.941501   -887.72304    1824.5398    4525.5833    2.1671751    37.656542   0.15689753 
   59300   -941.86086    44.863702   -896.99716    1606.8551   -1873.4377    2.1598748    41.841528   0.14426909 
   59400   -943.04913    52.258214   -890.79091    1871.6997   -2513.7848    2.1575658     36.40971   0.14536534 
   59500   -939.11853    52.923442   -886.19509    1895.5258    5995.0276    2.1690908    40.306658    0.1735785 
   59600   -946.17771    50.328452   -895.84926    1802.5826   -3878.2017    2.1598861    44.068348   0.12136598 
   59700   -940.96449    48.917633   -892.04686    1752.0522   -8792.1915    2.1370201    43.901291   0.14728559 
   59800   -937.65977    51.832967    -885.8268    1856.4689    14541.613    2.1927886    46.022069   0.15960227 
   59900   -940.87995    49.100331   -891.77962    1758.5958    1480.0442    2.1639034     42.31582   0.14749815 
   60000   -941.34899    46.888837   -894.46015    1679.3881   -15932.856    2.1226347    41.727572   0.15816187 
   60100   -940.69425    53.482108   -887.21214    1915.5352    11179.597    2.1911053    38.836203     0.171372 
   60200   -933.05425    47.722297   -885.33196    1709.2396    8498.7491    2.1690289    40.138628   0.16633167 
   60300   -937.55192    45.129208   -892.42271    1616.3646   -10386.112    2.1317678    44.680176   0.18078068 
   60400   -940.47752    50.872292   -889.60523     1822.061    2272.3787    2.1656935    41.227409    0.1476544 
   60500   -931.50746    51.578216   -879.92925    1847.3446     7619.632    2.1650042    43.306852   0.18341317 
   60600    -939.3781    49.726325   -889.65177    1781.0166   -2444.0427    2.1527356    37.953791   0.16102407 
   60700   -940.84421    48.778071   -892.06614    1747.0536   -6264.4538    2.1454355    42.617478   0.16103212 
   60800    -941.2758    55.616667   -885.65913    1991.9873    4707.2543    2.1737537    42.407247   0.16155878 
   60900   -936.07454    51.493507   -884.58103    1844.3107    505.16991    2.1524003    39.769614   0.14892802 
   61000   -945.84043    52.070387   -893.77004    1864.9724   -7427.4258    2.1505613    43.475658   0.15401864 
   61100   -943.53936    53.657969   -889.88139    1921.8338    2474.4299    2.1701218    43.459094    0.1524272 
   61200   -940.34843     53.99869   -886.34974    1934.0373    2584.3706    2.1621281    40.201101   0.15253757 
   61300   -938.70879     53.01991   -885.68888    1898.9809   -10809.569    2.1272638    40.501295   0.16012016 
   61400   -944.07934    48.833386   -895.24596    1749.0348    7899.1292     2.189041      39.8905   0.12704829 
   61500   -944.86994    54.706419   -890.16352    1959.3855    6616.0825    2.1829983    38.239672   0.14440636 
   61600   -939.53064     49.80369   -889.72695    1783.7876    -13425.13     2.127071    40.277654   0.17140204 
   61700   -937.20139    50.742686   -886.45871     1817.419   -1534.6868    2.1560017    43.557796   0.16814274 
   61800   -931.36697     54.93769   -876.42928    1967.6688    5037.7617    2.1552264    44.836861   0.17462652 
   61900   -935.45032    48.836244   -886.61408    1749.1371   -1739.6205    2.1486498    44.112592   0.16436159 
   62000   -938.76189    48.487218   -890.27467    1736.6363   -551.36494    2.1572738    40.848989   0.15655153 
   62100   -942.44846    50.278547   -892.16991    1800.7952    1810.2729    2.1677877    39.795522    0.1564503 
   62200   -941.67306    57.922731   -883.75033    2074.5822   -1455.9837    2.1545367    41.984166   0.15510393 
   62300   -937.71241    52.826454   -884.88596     1892.052   -2704.8864     2.146579    46.446741   0.16203329 
   62400   -939.81197    48.341062   -891.47091    1731.4015   -981.09425    2.1564074    43.223452   0.15858014 
   62500   -940.62474    49.830188   -890.79455    1784.7366    2248.1688    2.1696378      42.0784   0.17295561 
   62600   -937.19949    56.829364   -880.37013    2035.4217   -4061.1707    2.1425872    37.827433    0.1682413 
   62700   -941.69302    51.918516    -889.7745     1859.533    688.59662    2.1628107    43.703121   0.15327667 
   62800   -943.20444    51.564188   -891.64025    1846.8422   -2274.8335    2.1590166     43.70907   0.15924241 
   62900   -939.06843    52.688327    -886.3801    1887.1048    367.12029    2.1567123    44.712693   0.16085044 
   63000   -936.89981    55.185131   -881.71468    1976.5313    612.63568    2.1466665    41.655073   0.15240461 
   63100    -942.1189    49.800893   -892.31801    1783.6874     898.8126    2.1667006    39.626348   0.17266228 
   63200   -939.59299    49.436304   -890.15669    1770.6291    2590.0749    2.1657891    39.816351   0.17840081 
   63300   -938.88024    51.450597   -887.42964    1842.7738    -3368.585    2.1451446    42.434953   0.16933903 
   63400   -933.68094    56.709593   -876.97135     2031.132    2134.8637    2.1488337    44.646949   0.18887115 
   63500   -936.85534    49.858211   -886.99712    1785.7403    5902.6586    2.1707867    39.719285   0.16553998 
   63600   -938.98224    48.988344    -889.9939    1754.5848   -9513.0923    2.1320028    43.499016   0.16959805 
   63700   -942.13265    51.429431   -890.70322    1842.0157   -276.95472    2.1662909    42.964466   0.16191032 
   63800    -941.3368    44.396697    -896.9401    1590.1287    12510.251    2.1998814    40.810567   0.17054207 
   63900   -942.81246      42.2285   -900.58396    1512.4717   -4529.0874    2.1609164     41.68913   0.16877353 
   64000   -941.27895    49.373611   -891.90534    1768.3837   -8496.7435    2.1435855    42.408967   0.16556754 
   64100   -944.34933    54.420972   -889.92836    1949.1619    6856.2782    2.1845872     41.05828   0.14600636 
   64200    -943.6071    52.169002    -891.4381    1868.5045   -2417.2008    2.1659445    43.250817   0.15250748 
   64300    -933.3538    53.012117   -880.34168    1898.7018   -6262.0474    2.1304787     45.76242   0.16544795 
   64400   -936.52234    51.247767   -885.27458    1835.5091    7502.0294    2.1675882    34.335432   0.14885258 
   64500   -942.35591    52.058818   -890.29709    1864.5581   -1520.5237    2.1629717     41.76203   0.16092085 
   64600   -941.40724     49.61968   -891.78756     1777.197   -4529.5921    2.1530682    40.691326   0.16737338 
   64700   -938.22813    54.992392   -883.23573    1969.6281    3420.7481      2.16097    40.606991   0.15543313 
   64800   -934.51301    49.455866   -885.05714    1771.3298    3402.4606    2.1571368    42.172263   0.15880789 
   64900   -942.37425    50.555278   -891.81897    1810.7067   -4806.9227    2.1508204    42.179871   0.14345842 
   65000   -942.18868    52.323583    -889.8651     1874.041    1487.5733    2.1648636    40.133165   0.13610522 
   65100   -932.90893    52.537162   -880.37177    1881.6906    2644.0652    2.1479468    42.880661   0.15384549 
   65200   -938.18543    49.075502   -889.10993    1757.7065   -172.87801    2.1534888    42.705147   0.14033542 
   65300   -943.42964    51.867983   -891.56166    1857.7231   -5201.4671    2.1520261     42.95357   0.13202558 
   65400   -937.98663    50.290634     -887.696    1801.2281    7147.3074    2.1697955    43.732945   0.15722724 
   65500   -937.99009     58.04678   -879.94331    2079.0251   -1728.3038     2.145066    43.141062    0.1541648 
   65600   -938.74745    49.151136   -889.59632    1760.4154   -3287.4496    2.1435408     44.73464   0.15518019 
   65700   -939.19466    48.049977   -891.14468    1720.9759   -5.2848947     2.156686    45.943691    0.1476458 
   65800   -936.34031    47.215701   -889.12461    1691.0952    10385.103    2.1751817    46.590454   0.14978247 
   65900   -939.19005     47.69566   -891.49439    1708.2856   -4533.7918    2.1489703    46.033331   0.16797958 
   66000   -947.26263    47.258617   -900.00402    1692.6323   -2386.1031    2.1714508    39.613485   0.15402358 
   66100   -941.70194    49.957854   -891.74408    1789.3091    5035.2141    2.1766819    37.749393    0.1675344 
   66200    -939.0839    49.598586   -889.48531    1776.4415   -5198.3783    2.1451402    43.389473   0.17621349 
   66300   -939.48896    50.363076   -889.12588    1803.8228   -3994.4614    2.1461568    36.223894   0.16060244 
   66400   -947.83446    49.922082   -897.91238    1788.0279    15193.628    2.2143292    39.328995   0.16023325 
   66500   -937.52727    48.583045   -888.94422    1740.0685   -5554.4417    2.1406585    42.799335   0.16219177 
   66600   -939.29077    49.168925   -890.12185    1761.0526   -14628.478    2.1230732    43.235743   0.15194733 
   66700   -941.52151    51.751442   -889.77006     1853.549    16126.849    2.1995731    43.399122   0.16756415 
   66800   -943.45984    44.102617   -899.35722    1579.5958    3400.7497    2.1757381    43.373405   0.14841474 
   66900   -941.09683    50.117152   -890.97968    1795.0146   -11606.961     2.130999    41.386521   0.17043591 
   67000   -943.60994    54.798544   -888.81139    1962.6851    3642.4365    2.1736456    40.575497   0.15622703 
   67100   -942.26709    50.924132   -891.34296    1823.9177    1591.0784    2.1695444     40.73071   0.15815892 
   67200   -943.48403    48.728204   -894.75583    1745.2676   -8378.0285    2.1513538     42.80123   0.16842087 
   67300   -947.03295    44.526729   -902.50622    1594.7859    4447.9895    2.1906587     39.52393   0.14871888 
   67400   -941.38437    48.792622   -892.59175    1747.5748    2819.0069     2.171182    40.423119   0.14760295 
   67500   -943.55763     52.95793    -890.5997     1896.761   -9046.9796    2.1435643    44.604149   0.16931142 
   67600   -937.88969    50.102675   -887.78702    1794.4961    1683.7768    2.1625251    40.657987   0.16586316 
   67700   -945.47241     47.71878   -897.75363    1709.1136    3194.5652    2.1809295    41.766194   0.16704808 
   67800   -945.28968      50.9614   -894.32828    1825.2525   -10987.387    2.1443537    41.305197   0.14668708 
   67900   -939.97972    50.830512   -889.14921    1820.5646    2795.1388    2.1677658    40.633893   0.15657141 
   68000   -943.37571    53.899013    -889.4767    1930.4672     4388.508    2.1740011    42.438683   0.15349308 
   68100   -945.78848     46.52594   -899.26254    1666.3904   -9536.2103    2.1519969    41.144072   0.15126148 
   68200   -941.21942    48.137477   -893.08194    1724.1098   -3840.6454     2.154856    39.869385   0.15213931 
   68300   -941.16084    54.312578   -886.84826    1945.2796    15827.156    2.1964441    45.630687   0.15409199 
   68400   -941.95452    49.758398   -892.19613    1782.1654   -9164.3541    2.1414969    44.455504   0.15447484 
   68500    -940.7605    48.309279   -892.45122    1730.2632   -13154.387    2.1302861    41.249247   0.17436937 
   68600   -941.23407    59.454609   -881.77946    2129.4485    9866.7774    2.1792416    40.199956   0.15272591 
   68700   -940.66479    53.937446   -886.72735    1931.8437    2571.2763    2.1628016     43.46271     0.159977 
   68800   -942.64469    50.626573   -892.01812    1813.2602   -8375.2959    2.1442004    41.067008   0.15605812 
   68900   -942.02142    52.682998   -889.33843    1886.9139    1132.6553    2.1674726    42.610583   0.14510359 
   69000   -930.66977     49.96241   -880.70736    1789.4724    2741.2657    2.1484877    45.366461   0.17102822 
   69100   -940.26529     49.33089    -890.9344    1766.8536    1369.5423    2.1640039    40.742213   0.15021794 
   69200   -937.90668      46.7893   -891.11738     1675.823    115.36077    2.1580987    40.699755   0.16673952 
   69300   -934.41055    51.027493   -883.38306    1827.6197    1894.8492     2.153744     40.11911   0.17006601 
   69400   -939.34963    50.555503   -888.79412    1810.7148    1262.5666    2.1593734     40.31916   0.17530086 
   69500   -941.98159    49.267829   -892.71376     1764.595   -4567.7303    2.1537328    42.878091   0.15678742 
   69600   -940.50672    52.371583   -888.13514    1875.7602    2671.5364    2.1671379    42.424323   0.15727433 
   69700   -936.96948    49.766843   -887.20263    1782.4678    1148.0192    2.1562607    38.201691   0.14688681 
   69800   -942.09151    44.442391   -897.64912    1591.7653    1702.9875     2.168894    40.886219   0.15332687 
   69900   -943.65067    51.578513   -892.07216    1847.3553   -2083.9073    2.1603522    43.923971   0.15322512 
   70000   -944.32161    56.609989   -887.71163    2027.5645    315.56907    2.1619492    43.475031    0.1475578 
   70100   -944.00665    49.619012   -894.38764    1777.1731   -3348.4895     2.158664    41.155381    0.1759199 
   70200   -943.87613    47.485331    -896.3908    1700.7524   -2063.2688    2.1639547    39.719466   0.15737551 
   70300   -942.67925    54.609938   -888.06931    1955.9299    4196.3404    2.1709892    37.680755   0.16722798 
   70400   -942.86268    51.525013   -891.33766    1845.4391   -4984.9959     2.152111    44.169694    0.1634068 
   70500   -948.61102    50.081823    -898.5292    1793.7493   -4478.6369     2.163977    41.718724   0.13881817 
   70600   -941.26697    50.953529   -890.31345    1824.9706    8340.8619     2.183627    43.841057   0.15212387 
   70700   -940.04688     51.67314   -888.37374    1850.7445     1659.626    2.1593191    40.315866   0.14578831 
   70800   -941.56522    48.552629   -893.01259    1738.9791   -11054.118    2.1338035    39.887915   0.16365902 
   70900   -941.38119    50.209368   -891.17182    1798.3175    7778.7021    2.1851613    40.512444   0.17173338 
[...]
  186800   -942.12985    49.028479   -893.10137    1756.0223    -6213.388    2.1460411     682.2443   0.15848787 
  186900   -943.26589    47.820504   -895.44539     1712.757    3167.0938    2.1800203    686.83986   0.16410676 
  187000   -938.52676    53.164522   -885.36224    1904.1604    748.58035    2.1575895    679.90949   0.15919393 
  187100   -942.13003     51.20533    -890.9247    1833.9892   -6387.9742    2.1464194     675.2209   0.14648323 
  187200   -941.02866    47.941066   -893.08759    1717.0751    808.22793     2.168403    679.33776    0.1577139 
  187300   -934.68477    52.643907   -882.04087    1885.5138    5651.5919     2.164342     685.4453   0.16540114 
  187400   -941.82627    54.306035   -887.52024    1945.0452   -3873.2332    2.1512506    690.29086   0.16614436 
  187500   -939.80671    46.550974   -893.25573    1667.2871   -4033.4409    2.1531867    698.37327   0.18176153 
  187600   -941.19807    53.568416   -887.62965    1918.6264    7211.7724    2.1806337     678.6655   0.16461791 
  187700   -936.32006    52.703472   -883.61658    1887.6472   -753.62209    2.1505145     699.0305   0.17305768 
  187800   -938.64198    44.905414   -893.73656    1608.3491   -6642.6436     2.143229    694.47771    0.1737793 
  187900   -943.23178    52.895046   -890.33673    1894.5087    5226.8336    2.1791843    685.39966   0.15087681 
  188000   -937.10013    53.846898   -883.25323    1928.6006    4947.8624    2.1620926    804.79027    0.1952266 
  188100   -934.65879    48.834428   -885.82436    1749.0721   -10129.185    2.1244703    766.86165    0.2092873 
  188200   -942.56804    49.489196   -893.07884    1772.5235   -1595.3389    2.1643111    742.18382   0.16528173 
  188300   -939.27785    53.889092   -885.38876    1930.1118     11686.68     2.190126    745.56414   0.18026259 
  188400   -937.90381    47.374933   -890.52888    1696.7983   -9021.5213    2.1359375    768.33269   0.17407034 
  188500   -944.82141    47.225803    -897.5956     1691.457   -8892.7683    2.1490288    755.54151   0.17235909 
  188600   -938.44551    50.421584   -888.02393    1805.9183    14803.408    2.1929436    750.18405    0.1838784 
  188700   -939.96048     51.33472   -888.62576    1838.6235    637.74683     2.159236    744.85834   0.17407493 
  188800   -943.67442    48.366364   -895.30805    1732.3078     -10215.1    2.1453727     759.1708   0.15778121 
  188900   -940.67202     48.38164   -892.29038    1732.8549    5545.0687    2.1770359    787.68333    0.1671377 
  189000   -939.18935    53.057714   -886.13164    1900.3349    1486.6626    2.1592393    758.87788   0.17157286 
  189100   -944.14538    51.104297   -893.04108    1830.3706   -6599.1264    2.1510003    754.54054    0.1630396 
  189200   -941.09752    50.029094   -891.06842    1791.8607    1196.3198    2.1666171    754.88412   0.15546503 
  189300   -934.25367    51.394106   -882.85956    1840.7505    2419.8531    2.1527948    747.35836   0.15908256 
  189400   -941.17967    49.451457   -891.72821    1771.1718   -3391.6824    2.1573377    780.79139   0.16489183 
  189500   -940.23586    50.039109   -890.19675    1792.2194   -2212.1728    2.1565507    760.67637   0.16502287 
  189600   -934.31172    52.485356   -881.82637    1879.8351    2265.5779    2.1515145    777.32356   0.19757915 
  189700   -938.30595    46.798578   -891.50737    1676.1554    926.48097    2.1595309    751.91512   0.18465445 
  189800   -940.76292    50.393628   -890.36929     1804.917   -6860.6215    2.1490721     746.5926   0.19830742 
  189900   -937.36404    54.363381   -883.00066    1947.0991    586.93643     2.154988    734.29814   0.16337405 
  190000   -943.24588    52.177918   -891.06796    1868.8238    6737.2656    2.1816096    711.27263   0.15411218 
  190100   -940.94605    49.191878   -891.75417    1761.8747   -8309.3503    2.1451002    731.82155   0.16613072 
  190200   -938.01511    52.994705   -885.02041    1898.0782   -3746.6098    2.1452866    728.31576   0.17823031 
  190300    -941.9693    51.380556   -890.58874    1840.2652    12483.551    2.1936327    717.57307   0.19171251 
  190400   -940.24117    46.398297   -893.84287    1661.8187     2154.474    2.1632238    726.29495   0.17466291 
  190500   -934.92725    49.469973   -885.45727     1771.835   -11472.569    2.1235438    759.83572   0.18254282 
  190600   -939.14056    50.697116   -888.44344    1815.7868     8039.946    2.1785711    713.85137   0.17609459 
  190700   -944.13287    50.902104   -893.23077    1823.1288    3303.2247    2.1823354    745.83373   0.17082879 
  190800   -933.47689    48.970202   -884.50669     1753.935   -11177.447    2.1196956     730.1265   0.18879601 
  190900   -939.42853    52.465713   -886.96282    1879.1316   -2821.0434    2.1556266    723.50878   0.15736477 
  191000   -942.71068     51.45608    -891.2546    1842.9702    10262.184    2.1934453    726.00877   0.16028645 
  191100   -937.80052    53.122645   -884.67788    1902.6605   -7935.7514     2.135127     738.1737   0.17923557 
  191200   -938.31492    53.285895   -885.02902    1908.5075   -8090.7803    2.1333785    738.62836   0.16031339 
  191300   -943.58926    52.562258     -891.027    1882.5895    4736.6515    2.1836601    730.39328   0.16800484 
  191400   -936.75763    48.394355   -888.36327    1733.3103    1647.8377    2.1592502    715.32426   0.16941855 
  191500   -938.68691     55.36878   -883.31813    1983.1089   -7161.4788    2.1336441    752.39259   0.17203118 
  191600   -942.74322    50.686536   -892.05668    1815.4079    3062.3658    2.1733196    703.76475     0.173503 
  191700   -938.06704    49.829314   -888.23773    1784.7053    1073.4646    2.1605148    730.46745    0.1784391 
  191800   -937.00933    52.990228   -884.01911    1897.9178   -4456.2151    2.1375725    747.57831   0.17549436 
  191900   -941.72156    48.244237   -893.47732    1727.9336    4016.2159    2.1737057     734.3683   0.18372056 
  192000    -938.6287    50.440968   -888.18773    1806.6126    1707.3457     2.165289    744.10996   0.17584366 
  192100   -936.39649    50.993291    -885.4032    1826.3948   -5508.7165    2.1381341    753.14617     0.197159 
  192200   -941.87233      47.2722   -894.60013    1693.1188    4702.4312    2.1745686    733.90444   0.17829803 
  192300   -938.72201    50.024379   -888.69763    1791.6918      2513.09    2.1672449    723.44959   0.18717395 
  192400   -935.30504    49.579294   -885.72575    1775.7505    16.289292    2.1520675    730.15972   0.20036527 
  192500   -944.87859    50.868173   -894.01042    1821.9135    -2506.301    2.1627718      719.212   0.17170262 
  192600   -940.85677    50.979305   -889.87746    1825.8938    2389.0056    2.1705031    709.18571   0.18334049 
  192700    -937.2961    52.769473   -884.52662    1890.0111    325.41319    2.1600113    720.24495   0.20159073 
  192800   -945.13763    52.390519   -892.74711    1876.4384   -10797.523    2.1480696    740.73065   0.18343052 
  192900   -938.57685    49.454565   -889.12229    1771.2832    3380.0751    2.1698858     747.7674   0.19807465 
  193000   -934.13653    52.422255   -881.71427    1877.5751    5794.1019    2.1668976    729.32081   0.21175592 
  193100   -938.06765    48.319928   -889.74772    1730.6446   -9140.4882     2.138071    747.57416   0.17356365 
  193200   -939.14837    47.601028   -891.54734    1704.8962   -381.55799    2.1617033    724.44865   0.16738279 
  193300   -935.44129    54.295542   -881.14575    1944.6694    9147.4642    2.1742329    713.18273   0.18575027 
  193400   -936.82589    49.720525   -887.10537    1780.8089   -3670.0709    2.1453656     726.2277   0.20703992 
  193500   -937.86697    44.864827   -893.00214    1606.8954    -6966.531    2.1453834    738.77454   0.20116511 
  193600   -938.63149    53.129356   -885.50213    1902.9009    10037.235     2.181718    745.38346   0.19828628 
  193700   -936.57724     51.85442   -884.72282    1857.2373    1976.8449    2.1558893     747.9327   0.18485571 
  193800   -939.25019    45.284121   -893.96607     1621.913   -8088.6772    2.1449927    732.90975   0.17560875 
  193900   -936.58049    48.489294   -888.09119    1736.7107     4520.858    2.1675196    745.54572   0.18343869 
  194000    -939.3069    55.507496   -883.79941    1988.0772    4388.5978    2.1645844    742.77807   0.18398156 
  194100   -940.35628    46.757604   -893.59867    1674.6878   -4507.9712    2.1498682     755.1341   0.18690843 
  194200   -941.74824    50.555834   -891.19241    1810.7266   -3758.4658    2.1584693    723.81697   0.18863478 
  194300   -935.63638    51.186862   -884.44952    1833.3278    5276.1925    2.1633476    732.23462   0.17223683 
  194400   -939.42103    47.789839   -891.63119    1711.6587   -3857.0408    2.1550746    668.75667   0.21004849 
  194500   -939.51666     48.42826    -891.0884    1734.5247   -4149.5379    2.1587791    705.48353   0.21331091 
  194600   -935.26874    51.402213   -883.86653    1841.0408    629.88302    2.1563856    702.88243   0.21240875 
  194700   -938.92515    47.471216   -891.45394    1700.2468   -585.26868    2.1644238    717.73272   0.19780382 
  194800   -936.35233     45.15932   -891.19301    1617.4431   -647.63703    2.1627401    736.69083   0.21416483 
  194900   -937.64339    54.499946   -883.14344    1951.9904   -3575.0948    2.1467403    760.27433   0.20860987 
  195000   -939.87892    48.531155   -891.34776      1738.21    2214.6312    2.1674741    709.14603   0.18776563 
  195100   -938.19392    47.258562   -890.93536    1692.6303    103.69589    2.1622968     730.1094   0.21813617 
  195200   -935.02557     51.81083   -883.21474     1855.676   -3680.3655    2.1436244    722.60192    0.2063735 
  195300   -938.88209    47.290212   -891.59187    1693.7639    2124.7091    2.1686941    734.89065   0.18188069 
  195400   -939.61031    49.628299   -889.98201    1777.5057   -3229.8142    2.1519493    782.64963     0.238251 
  195500   -934.67508    51.383095   -883.29199    1840.3561   -1533.4577    2.1436381     737.4144    0.1933959 
  195600   -941.56462    49.949082   -891.61554     1788.995    7402.8542    2.1786216    754.37748   0.19193267 
  195700   -942.44283    51.617855   -890.82498    1848.7644   -5714.9412    2.1499915    728.99484   0.18432266 
  195800   -934.28036    49.658511   -884.62185    1778.5878    -5084.417    2.1324124    749.66348   0.21304989 
  195900   -940.02434    47.902373   -892.12197    1715.6893    11388.397    2.1887494    726.93478   0.20595718 
  196000   -939.81664    47.485128   -892.33151    1700.7451     2849.189     2.165599    728.23083   0.20202165 
  196100   -934.32309    48.270899   -886.05219    1728.8885   -9426.5697    2.1241493    745.24113   0.20028593 
  196200   -936.23125    46.034099   -890.19715    1648.7745    7282.7337    2.1742349    720.54942    0.2067959 
  196300   -941.10726     47.69216    -893.4151    1708.1602    8251.2046    2.1841863    715.72223    0.1944578 
  196400   -937.88441    52.678019   -885.20639    1886.7356   -11095.972    2.1240563    739.74951   0.19854088 
  196500   -937.36706    49.315551   -888.05151    1766.3042   -1837.7548    2.1489606    718.11651   0.19471734 
  196600   -941.33357    49.457441   -891.87613    1771.3862    11302.904    2.1900426    716.23751   0.20633581 
  196700   -942.19227    58.632212   -883.56006    2099.9932    -8143.361    2.1373263    742.26061   0.20995825 
  196800   -938.69854    51.720575   -886.97797    1852.4434   -8546.0173    2.1339538       753.35   0.22156873 
  196900   -940.46748    49.113249   -891.35423    1759.0585     7008.526     2.179606    723.25453   0.21827718 
  197000   -940.57196    55.217574   -885.35439    1977.6933    1912.3439    2.1654052    743.18285   0.22906028 
  197100   -933.19868    49.198796   -883.99989    1762.1224   -3941.6777    2.1339144    774.94052   0.24740987 
  197200   -944.14243    51.580841   -892.56159    1847.4387   -1821.0959    2.1674931    772.00526     0.243567 
  197300   -937.52108    49.420099   -888.10098    1770.0487    3176.5588    2.1645544    786.18572   0.24467137 
  197400   -936.12695    52.776918   -883.35003    1890.2778   -8064.4275    2.1391774     785.8637   0.24525699 
  197500   -938.97182    45.305121    -893.6667    1622.6651    2318.6263    2.1705046    822.04644   0.22938942 
  197600   -941.62751    51.999317   -889.62819     1862.427    1704.4816    2.1668489    824.41637   0.22489835 
  197700    -938.3046    53.840096    -884.4645     1928.357   -3880.6713    2.1481944    838.76962   0.22684391 
  197800   -944.18635    49.001007   -895.18535    1755.0384   -2236.6796    2.1671351    812.25188   0.21725878 
  197900   -941.88835    49.429877   -892.45847    1770.3989   -879.43642    2.1672555     828.3066   0.23714941 
  198000   -937.14039    50.037031   -887.10336     1792.145    951.80033    2.1589348    849.01592   0.21420888 
  198100   -938.60593    50.901531    -887.7044    1823.1083    -2996.261    2.1524118     847.8789     0.220977 
  198200   -939.88988    43.476325   -896.41355    1557.1643    6475.4588     2.183931    837.03533    0.2071063 
  198300    -937.1074    48.500563   -888.60684    1737.1143    323.51941    2.1534382    844.76105   0.23092102 
  198400   -937.64391    49.580851   -888.06306    1775.8063   -5146.6825     2.147802    848.74825   0.23213649 
  198500   -941.53502    49.255047   -892.27998    1764.1371    4589.5971    2.1771781    872.02065   0.23238464 
  198600   -942.03683     45.53321   -896.50362    1630.8345    9908.2439    2.1933407    862.69746   0.22528027 
  198700   -935.56134    48.515864   -887.04547    1737.6623   -5349.5319     2.135889     910.4713   0.25691687 
  198800   -934.37784    47.045531   -887.33231    1685.0003    3328.4629    2.1619803    894.56731   0.25131915 
  198900   -940.46558    48.882632   -891.58295    1750.7986    9060.5361    2.1841417    907.55125   0.25384009 
  199000   -944.15186    44.584029   -899.56783    1596.8382   -4593.7592    2.1651982    888.59139    0.2469878 
  199100   -938.69982    49.449382   -889.25044    1771.0975   -4144.2859    2.1491262    873.78934   0.23312776 
  199200   -938.94241    52.275637   -886.66677    1872.3238    13054.654    2.1853548    840.72809   0.23621836 
  199300   -942.56709    50.277828   -892.28926    1800.7695   -4481.8408    2.1540806    855.81992   0.24040384 
  199400   -945.63924    46.093779   -899.54546     1650.912   -8877.2474    2.1486871     842.4553   0.22991439 
  199500   -944.34609      54.5517   -889.79439     1953.844    5595.1943    2.1814411    879.40446   0.23379272 
  199600   -939.45282    51.675676   -887.77714    1850.8353    5605.6674    2.1703455    905.42989   0.24044295 
  199700    -939.1693    46.944735   -892.22457    1681.3902   -13135.868    2.1278976    882.07459   0.24597847 
  199800   -938.27283    47.867784   -890.40505    1714.4504    1598.6314    2.1631772    870.26698   0.22041899 
  199900    -932.5644    51.099259   -881.46514    1830.1901     4191.051    2.1572386    867.47184   0.21956101 
  200000    -940.1435    51.294766   -888.84874    1837.1925   -3843.3514    2.1503823    874.75232    0.2437645 
  200100   -940.30883    49.387286   -890.92155    1768.8735    446.63714    2.1627219    882.35764   0.23709426 
  200200   -938.92427    52.398813   -886.52545    1876.7355    4625.8492    2.1666864    896.72314   0.23523602 
  200300   -937.09966    55.005466   -882.09419    1970.0963   -8798.0374    2.1310268    894.51417    0.2615363 
  200400   -941.27017    50.590872    -890.6793    1811.9816   -2007.1616    2.1571507    894.08073   0.24007583 
  200500   -939.05955    49.453292   -889.60625    1771.2376    4714.5064    2.1740446    897.34297   0.24683762 
  200600   -933.78887    52.709123   -881.07975    1887.8496   -3492.8133    2.1390814    931.89903   0.23906936 
  200700   -940.32632    52.930478   -887.39584    1895.7778   -5363.7566    2.1434807    876.46866   0.22624099 
  200800   -943.93985    53.516534   -890.42332    1916.7682    85.462363    2.1715019    861.90538   0.24507103 
  200900   -940.73113    52.503654   -888.22747    1880.4905    4521.1276    2.1708519     874.3659   0.24699182 
  201000   -935.52477    54.936282   -880.58849    1967.6184   -9000.9249    2.1199693    873.31794   0.25588612 
  201100   -936.47086    50.975596   -885.49527     1825.761   -4556.9969    2.1395631    893.85727   0.23355749 
  201200    -942.2698    53.350463   -888.91933    1910.8201    14112.356    2.1938933    861.42523   0.22976533 
  201300   -941.53993    52.524571   -889.01536    1881.2397   -4198.5517    2.1522033    891.64547    0.2154289 
  201400   -935.67719    49.692087   -885.98511    1779.7903   -14616.582    2.1155302    825.23821   0.23580093 
  201500   -934.77725    58.704527   -876.07272    2102.5833     9874.002    2.1669865    799.84357    0.2373908 
  201600   -938.05336    52.880661    -885.1727    1893.9935    8921.8661    2.1714913     1009.384   0.22228878 
  201700   -937.05732    47.033341   -890.02398    1684.5637   -8359.8274    2.1289716    983.94413   0.22147336 
  201800    -939.9103    52.228499    -887.6818    1870.6354    1922.8521    2.1568086    989.79864   0.21768584 
  201900   -934.87799    57.833189    -877.0448    2071.3751    4603.7769    2.1526063    1042.1333   0.19750844 
  202000   -937.97994    51.272392   -886.70755    1836.3912   -1477.1686      2.14587    1042.8766   0.20092545 
  202100   -939.61385    48.935638   -890.67821    1752.6971   -2308.7257    2.1496671    1042.2592   0.21025492 
  202200   -944.43682    53.614565   -890.82226    1920.2793    563.21939     2.171719    1040.0758   0.21063637 
  202300   -936.93492    51.804209   -885.13071    1855.4389    3839.8873    2.1587497    1020.1473   0.19925855 
  202400   -935.87015    52.847617   -883.02253      1892.81   -8403.9244    2.1237926    1043.6491    0.2115351 
  202500    -941.2591    50.535834   -890.72326    1810.0103    1080.5043    2.1597622    1047.7585    0.1979884 
  202600   -941.40943    51.429639   -889.97979    1842.0231    9140.4869    2.1811087    1035.5258   0.20341818 
  202700     -934.191    51.003524   -883.18747    1826.7613   -3214.2497    2.1277711    1057.6364   0.20919296 
  202800   -938.66293    54.214221   -884.44871    1941.7568   -7500.7977    2.1328197    1036.1413   0.20150977 
  202900   -945.59361    55.155454   -890.43815    1975.4683    6341.5498    2.1802783    1027.5815   0.18095265 
  203000   -941.72014    51.676906   -890.04323    1850.8794    1232.8635    2.1652837    1031.5091   0.19558085 
  203100   -936.86095    52.418156   -884.44279    1877.4282   -14027.795    2.1159135    1047.1167   0.21584814 
  203200   -939.09083    60.271111   -878.81972    2158.6926    3919.1603    2.1604677    1030.7895   0.20344551 
Loop time of 141.078 on 1 procs for 200000 steps with 217 atoms

Performance: 367.457 ns/day, 0.065 hours/ns, 1417.657 timesteps/s
100.0% CPU use with 1 MPI tasks x no OpenMP threads

MPI task timing breakdown:
Section |  min time  |  avg time  |  max time  |%varavg| %total
---------------------------------------------------------------
Pair    | 134.14     | 134.14     | 134.14     |   0.0 | 95.09
Neigh   | 3.7703     | 3.7703     | 3.7703     |   0.0 |  2.67
Comm    | 0.94635    | 0.94635    | 0.94635    |   0.0 |  0.67
Output  | 0.070908   | 0.070908   | 0.070908   |   0.0 |  0.05
Modify  | 1.8382     | 1.8382     | 1.8382     |   0.0 |  1.30
Other   |            | 0.3073     |            |       |  0.22

Nlocal:    217 ave 217 max 217 min
Histogram: 1 0 0 0 0 0 0 0 0 0
Nghost:    951 ave 951 max 951 min
Histogram: 1 0 0 0 0 0 0 0 0 0
Neighs:    4176 ave 4176 max 4176 min
Histogram: 1 0 0 0 0 0 0 0 0 0
FullNghs:  8352 ave 8352 max 8352 min
Histogram: 1 0 0 0 0 0 0 0 0 0

Total # of neighbors = 8352
Ave neighs/atom = 38.4885
Neighbor list builds = 6387
Dangerous builds = 96
Total wall time: 0:02:23
