LAMMPS (3 Mar 2020)
Reading data file ...
  orthogonal box = (0 0 0) to (17.469 17.469 17.469)
  1 by 1 by 1 MPI processor grid
  reading atoms ...
  217 atoms
  read_data CPU = 0.000956397 secs
Reading potential file library.meam with DATE: 2012-06-29
Reading potential file LiSi.meam with DATE: 2020-11-07
1 atoms in group Li
Neighbor list info ...
  update every 1 steps, delay 10 steps, check yes
  max neighbors/atom: 2000, page size: 100000
  master list distance cutoff = 6
  ghost atom cutoff = 6
  binsize = 3, bins = 6 6 6
  2 neighbor lists, perpetual/occasional/extra = 2 0 0
  (1) pair meam/c, perpetual
      attributes: full, newton on
      pair build: full/bin/atomonly
      stencil: full/bin/3d
      bin: standard
  (2) pair meam/c, perpetual, half/full from (1)
      attributes: half, newton on
      pair build: halffull/newton
      stencil: none
      bin: none
Setting up Verlet run ...
  Unit style    : metal
  Current step  : 0
  Time step     : 0.000719225
Per MPI rank memory allocation (min/avg/max) = 9.27 | 9.27 | 9.27 Mbytes
Step PotEng KinEng TotEng Temp Press Density c_msdli[4] 
       0   -951.04357    50.256344   -900.78722         1800   -114161.75    1.8918427            0 
     100       -919.5    33.303638   -886.19636    1192.8155   -84501.341    1.8918427  0.057633788 
     200   -904.20815    43.405718   -860.80243    1554.6354   -66606.094    1.8918427  0.058344975 
     300   -898.09812    50.865746   -847.23238    1821.8266   -57969.607    1.8918427   0.78750323 
     400   -904.63291    51.267323   -853.36558    1836.2096   -65438.207    1.8918427   0.29247649 
     500   -903.17339    42.181039   -860.99235    1510.7719   -65381.079    1.8918427  0.086868854 
     600   -906.79055    56.909551     -849.881    2038.2937   -62796.656    1.8918427  0.046977501 
     700   -905.49716      52.1831   -853.31406    1869.0094   -65526.568    1.8918427   0.19909753 
     800   -907.59143    51.790585   -855.80085    1854.9509   -68846.246    1.8918427   0.16097047 
     900    -906.1587     52.84075   -853.31795     1892.564   -65296.339    1.8918427   0.18616195 
    1000   -900.94988    55.010514   -845.93936    1970.2771   -59137.731    1.8918427   0.14776582 
    1100   -908.04173    52.085922   -855.95581    1865.5289   -69408.345    1.8918427   0.11016843 
    1200   -905.23096    51.538526   -853.69243    1845.9231   -66798.806    1.8918427     0.234374 
    1300   -901.26804    48.766214   -852.50182    1746.6289   -64859.258    1.8918427   0.12179711 
    1400   -901.50483    51.608007   -849.89683    1848.4116   -62629.091    1.8918427  0.066404894 
    1500   -904.54248    46.140655   -858.40182    1652.5909   -68043.605    1.8918427   0.17528899 
    1600   -903.27593    49.062373   -854.21356    1757.2363   -64956.718    1.8918427   0.21746727 
    1700    -902.1603    51.295021   -850.86528    1837.2016   -62651.876    1.8918427   0.18259947 
    1800   -904.64555    48.245573   -856.39998    1727.9815   -65203.932    1.8918427   0.02417581 
    1900   -908.78752    52.826579   -855.96094    1892.0565   -70225.567    1.8918427   0.13271935 
    2000   -899.88011    51.230263   -848.64985    1834.8822   -59216.577    1.8918427   0.14603807 
    2100   -906.01672    47.721149   -858.29557    1709.1985   -69590.344    1.8918427   0.10370223 
    2200   -905.98423    50.700099   -855.28413    1815.8937   -66904.245    1.8918427  0.036221344 
    2300   -898.74437    47.845188   -850.89918    1713.6411   -60850.333    1.8918427   0.13434873 
    2400   -901.29693    49.446631    -851.8503     1770.999   -62803.371    1.8918427   0.13182576 
    2500   -905.57425    49.403867   -856.17038    1769.4674   -66733.295    1.8918427   0.14305364 
    2600   -903.21095    51.140901   -852.07005    1831.6816   -63629.402    1.8918427    0.2943902 
    2700   -899.96313     56.86634   -843.09679    2036.7461   -60992.469    1.8918427   0.15316027 
    2800   -904.99738    50.908891   -854.08849    1823.3718   -65605.017    1.8918427    0.3685842 
    2900   -907.68191     50.86824   -856.81367    1821.9159   -69094.491    1.8918427  0.047505598 
    3000    -899.5928    52.483838   -847.10897    1879.7807   -61128.813    1.8918427  0.070714078 
    3100    -903.3532    51.127736   -852.22547    1831.2101   -65676.542    1.8918427   0.07963175 
    3200    -905.3162    50.421928   -854.89427    1805.9306   -66996.787    1.8918427    1.4194414 
    3300   -899.86096    47.427313   -852.43365    1698.6744   -63204.762    1.8918427  0.045730256 
    3400   -905.19351     48.41769   -856.77582    1734.1461   -67940.534    1.8918427   0.17547192 
    3500   -906.35026    49.471311   -856.87895    1771.8829   -66785.591    1.8918427   0.13728265 
    3600   -904.08951    53.251163   -850.83835    1907.2635   -65124.632    1.8918427 0.0036080644 
    3700     -904.063    45.671492   -858.39151    1635.7872   -67905.246    1.8918427  0.045128429 
    3800    -902.5453    54.475729   -848.06957     1951.123    -63648.54    1.8918427  0.029943215 
    3900   -903.39191    53.691866   -849.70005    1923.0479   -65674.983    1.8918427   0.54682953 
    4000   -907.54121    48.978848   -858.56237    1754.2447   -69522.354    1.8918427   0.15008175 
    4100   -899.80546    46.306547   -853.49891    1658.5326   -65661.818    1.8918427  0.085623577 
    4200   -901.34168    51.285321   -850.05636    1836.8542   -63922.002    1.8918427   0.22676599 
    4300   -900.90844    48.712286   -852.19615    1744.6974   -63940.547    1.8918427  0.072741639 
    4400   -907.25478     50.24233   -857.01245     1799.498   -69646.905    1.8918427   0.18454671 
    4500    -903.7421    48.290136   -855.45197    1729.5775   -66196.989    1.8918427   0.38256221 
    4600   -903.23464    49.725649   -853.50899    1780.9924   -66331.354    1.8918427  0.069550707 
    4700   -897.58941    44.684975   -852.90444    1600.4537   -60952.045    1.8918427   0.36414777 
    4800     -902.564    49.908298    -852.6557    1787.5343   -65517.851    1.8918427   0.02579893 
    4900   -904.67911    47.306398   -857.37271    1694.3436   -69096.954    1.8918427   0.14629295 
    5000   -902.25139    54.609065   -847.64232    1955.8987   -61831.715    1.8918427  0.074335812 
    5100   -901.37233    50.689695   -850.68263    1815.5211   -63455.495    1.8918427  0.087864301 
    5200   -907.26716    47.973897   -859.29327     1718.251   -71871.173    1.8918427   0.23204575 
    5300   -902.82427    45.993623   -856.83065    1647.3248    -65816.79    1.8918427  0.029239784 
    5400   -904.82508    56.299183    -848.5259    2016.4326   -66517.629    1.8918427 0.0068150509 
    5500   -902.02453    47.772501   -854.25203    1711.0377   -64240.433    1.8918427   0.45556931 
    5600   -902.26804    42.732261   -859.53578    1530.5146   -66641.169    1.8918427   0.39613589 
    5700   -907.32635     53.82187   -853.50448    1927.7042    -67745.63    1.8918427   0.36465469 
    5800   -902.43971    50.041288   -852.39842    1792.2974   -67754.071    1.8918427   0.44012044 
    5900   -900.93567    49.762489   -851.17318    1782.3119   -64725.037    1.8918427    1.0064405 
    6000   -904.00857    53.530185   -850.47838    1917.2571   -65004.551    1.8918427   0.37907986 
    6100   -900.68453     43.44814   -857.23639    1556.1548   -65734.649    1.8918427   0.35419961 
    6200   -905.61603    53.143458   -852.47258    1903.4059   -68998.059    1.8918427  0.068612434 
    6300   -901.22737    49.751061   -851.47631    1781.9026   -65105.449    1.8918427  0.090270393 
    6400    -896.5295    50.482181   -846.04732    1808.0887   -62667.868    1.8918427 0.0060615425 
    6500   -900.49153    47.109031    -853.3825    1687.2746   -67365.353    1.8918427 0.0070512689 
    6600   -903.97642    52.383506   -851.59291    1876.1872   -69408.314    1.8918427  0.032802858 
    6700   -903.95556    45.850724   -858.10483    1642.2066   -70312.627    1.8918427   0.10591977 
    6800   -900.66526    50.329753   -850.33551    1802.6292   -66042.187    1.8918427   0.25214128 
    6900   -901.61758    56.981524   -844.63606    2040.8716   -66340.476    1.8918427    1.4652806 
    7000   -899.50059    49.262134   -850.23845     1764.391   -65793.175    1.8918427   0.35521107 
    7100   -906.30528     54.02884   -852.27644    1935.1171   -69949.247    1.8918427   0.77700865 
    7200    -905.2924    44.579721   -860.71268    1596.6839   -70284.603    1.8918427    1.2490035 
    7300   -900.17721    48.284192   -851.89302    1729.3646   -65820.562    1.8918427    1.0518941 
    7400   -901.50109    50.646403   -850.85469    1813.9705   -63050.071    1.8918427   0.41586748 
    7500   -903.30864     46.41293   -856.89571    1662.3428   -67370.031    1.8918427   0.24070511 
    7600   -897.47927    49.637066    -847.8422    1777.8197   -60611.318    1.8918427   0.60546949 
    7700    -902.5096    50.276098    -852.2335    1800.7075   -64372.445    1.8918427     1.315908 
    7800    -905.3207    48.097402   -857.22329    1722.6745   -68841.202    1.8918427    1.6039658 
    7900   -900.29016    46.468179   -853.82199    1664.3216   -64307.442    1.8918427   0.89401219 
    8000    -898.4219    48.847516   -849.57438    1749.5409    -61000.84    1.8918427    8.5858855 
    8100   -906.00881    46.642577   -859.36624     1670.568    -71040.75    1.8918427    8.9078171 
    8200   -901.90696    48.248463   -853.65849     1728.085   -66452.019    1.8918427    8.0964733 
    8300   -903.45837    52.245407   -851.21296     1871.241    -67251.84    1.8918427    3.6790302 
    8400   -903.07915    52.123762   -850.95538    1866.8841   -65905.684    1.8918427    4.8090308 
    8500   -906.08725    49.530035   -856.55722    1773.9862   -68958.342    1.8918427    9.8818486 
    8600   -904.16575    53.858226   -850.30753    1929.0063   -70963.678    1.8918427    3.3943741 
    8700   -899.05154    51.488112   -847.56343    1844.1174    -63603.91    1.8918427    4.8308363 
    8800   -901.90022    49.085628   -852.81459    1758.0692    -64917.05    1.8918427      5.91295 
    8900   -901.02125    46.559734   -854.46152    1667.6008   -66966.123    1.8918427    6.6027804 
    9000   -899.99134    53.348355   -846.64298    1910.7446   -64691.868    1.8918427    2.3874961 
    9100   -905.75332    49.770848   -855.98247    1782.6113   -71540.634    1.8918427    5.4176392 
    9200   -909.25733    50.483445   -858.77389    1808.1339    -73218.43    1.8918427    5.7250757 
    9300   -901.91212    50.155554   -851.75657    1796.3901   -69068.532    1.8918427    12.047432 
    9400   -902.94472    55.926944   -847.01778    2003.1003   -67740.298    1.8918427    14.805336 
    9500   -903.27242      48.6887   -854.58372    1743.8527   -69817.362    1.8918427    14.068361 
    9600   -902.82982    48.644673   -854.18515    1742.2758    -67952.37    1.8918427     10.66667 
    9700   -899.92783    54.163354   -845.76448    1939.9349   -65102.115    1.8918427    12.003752 
    9800   -902.32872    51.095786   -851.23293    1830.0658    -67869.47    1.8918427    11.587151 
    9900   -898.00795     44.78382   -853.22413     1603.994   -64328.533    1.8918427     15.57874 
   10000    -903.7877    57.055933   -846.73177    2043.5366   -66156.978    1.8918427    11.220859 
   10100   -904.09131    50.722297   -853.36901    1816.6887   -71352.911    1.8918427    13.118271 
   10200   -902.96791     46.80284   -856.16507     1676.308   -68055.019    1.8918427    15.283758 
   10300   -901.71224    47.351712   -854.36053    1695.9666   -67589.041    1.8918427    13.838331 
   10400    -897.9965    52.454977   -845.54152     1878.747   -60737.606    1.8918427    9.7971514 
   10500   -901.29532    48.711255   -852.58407    1744.6605   -68409.303    1.8918427    8.3724164 
   10600   -901.94771    48.833726   -853.11399     1749.047   -67989.152    1.8918427    11.076418 
   10700   -895.65476    51.818775   -843.83599    1855.9606   -58408.703    1.8918427    13.158357 
   10800   -901.86731     50.24217   -851.62515    1799.4923   -69222.762    1.8918427    11.332813 
   10900   -902.80884    53.143821   -849.66502    1903.4189   -66043.846    1.8918427    14.284031 
   11000   -905.37237    47.956298   -857.41607    1717.6207   -72791.549    1.8918427    13.373826 
   11100   -901.49623    48.675695   -852.82054    1743.3869   -69544.142    1.8918427    16.099249 
   11200   -898.27081     50.01715   -848.25366    1791.4329   -62592.751    1.8918427    13.081668 
   11300   -902.63602    50.408562   -852.22746    1805.4519   -66143.095    1.8918427    14.975227 
   11400   -896.27703    52.631714   -843.64531    1885.0771   -63385.859    1.8918427    12.611139 
   11500   -896.50186    48.786482   -847.71537    1747.3548   -64810.644    1.8918427    13.337215 
   11600   -901.25176    51.226439   -850.02532    1834.7453   -69147.803    1.8918427    11.017331 
   11700    -901.1594     49.27769   -851.88171    1764.9481   -68492.681    1.8918427    14.870668 
   11800   -894.88878    49.082257   -845.80652    1757.9484   -66385.095    1.8918427    16.518378 
   11900     -898.022    52.485295    -845.5367    1879.8329   -63116.775    1.8918427    13.327884 
   12000   -901.26782    50.018965   -851.24886    1791.4979   -67365.476    1.8918427    7.7304531 
   12100    -898.4188    53.223833   -845.19497    1906.2847    -62898.86    1.8918427    14.842879 
   12200   -897.75558    45.410018   -852.34556    1626.4222   -65933.708    1.8918427    11.815795 
   12300   -902.71166    52.358957   -850.35271     1875.308   -71011.098    1.8918427    12.891681 
   12400   -896.31011    51.443844   -844.86627    1842.5319   -63328.672    1.8918427    10.527773 
   12500   -895.17603    47.046644   -848.12939    1685.0402   -62723.377    1.8918427    14.742459 
   12600   -903.18794     50.88248   -852.30546    1822.4259   -70049.508    1.8918427    11.769044 
   12700   -906.35543     51.05397   -855.30146    1828.5681   -72398.247    1.8918427      18.0201 
   12800   -892.54875    48.285406   -844.26334    1729.4081   -58048.309    1.8918427    12.699414 
   12900   -902.42738    51.069363   -851.35801    1829.1194   -66701.331    1.8918427    18.727766 
   13000   -904.47326    50.693869   -853.77939    1815.6706   -68043.868    1.8918427     16.65687 
   13100   -895.23027    50.269756   -844.96051    1800.4803    -61869.15    1.8918427    18.448939 
   13200   -897.11825    48.005184   -849.11307    1719.3716   -65190.081    1.8918427    20.653224 
   13300   -903.22944    48.885381   -854.34406    1750.8971   -66326.119    1.8918427    21.625164 
   13400   -902.55246    50.516917   -852.03554    1809.3328   -66977.826    1.8918427    18.067305 
   13500   -902.73725    54.150602   -848.58664    1939.4782    -65668.76    1.8918427     18.91215 
   13600   -904.50631    50.403442   -854.10287    1805.2685   -68602.508    1.8918427    15.691829 
   13700   -897.26725    52.678824   -844.58843    1886.7644   -59277.767    1.8918427    14.379789 
   13800   -899.86832     50.41011   -849.45821    1805.5073   -65279.625    1.8918427    11.816514 
   13900   -904.32075    48.346606   -855.97414    1731.6001    -70642.61    1.8918427    18.369168 
   14000   -904.81294    55.611004   -849.20193    1991.7845    -66654.65    1.8918427    19.103988 
   14100   -896.92985    49.340137   -847.58971    1767.1848   -64864.672    1.8918427    16.018366 
   14200   -901.56759    48.376241   -853.19135    1732.6615   -65363.619    1.8918427    14.509091 
   14300   -908.53529    51.922643   -856.61265    1859.6808   -70828.659    1.8918427    17.131667 
   14400   -900.06062    52.858411   -847.20221    1893.1966   -66580.168    1.8918427    17.157349 
   14500   -898.45774    47.172446   -851.28529    1689.5459   -65173.675    1.8918427    18.362481 
   14600   -903.97235    51.589885   -852.38247    1847.7626   -68674.556    1.8918427    17.204912 
   14700   -897.05114    49.042033   -848.00911    1756.5078   -64175.096    1.8918427    17.634994 
   14800   -899.80383    48.475149   -851.32868     1736.204   -64756.454    1.8918427    13.736923 
   14900   -906.27861    52.582303    -853.6963    1883.3074   -71013.136    1.8918427    14.474931 
   15000   -907.07825    49.422566   -857.65569    1770.1371    -71819.31    1.8918427     12.77404 
   15100   -903.67334    53.082537   -850.59081     1901.224   -66349.058    1.8918427     11.94035 
   15200   -901.54983    50.363602   -851.18623    1803.8416   -65751.173    1.8918427    13.535213 
   15300   -905.02721    45.057966   -859.96924    1613.8129    -69650.44    1.8918427    15.821409 
   15400   -906.21241    52.440329   -853.77208    1878.2224   -71630.439    1.8918427    16.388445 
   15500   -903.55905    54.174811   -849.38424    1940.3452   -66314.157    1.8918427     14.61778 
   15600   -902.75922    47.177712   -855.58151    1689.7346   -67803.339    1.8918427     14.12849 
   15700   -899.37534    51.810843    -847.5645    1855.6765   -62720.235    1.8918427      13.2504 
   15800   -901.22477    54.078649   -847.14612    1936.9011   -64387.626    1.8918427    16.753959 
   15900   -905.22751    50.659557   -854.56795    1814.4416   -69880.193    1.8918427    15.103504 
   16000   -904.48204    49.957152   -854.52489     1789.284   -70620.211    1.8918427    17.346842 
   16100   -901.07158    50.768291   -850.30329    1818.3361   -68474.739    1.8918427     18.65868 
   16200   -901.56358    46.240347   -855.32324    1656.1615    -68147.85    1.8918427     12.87917 
   16300   -902.98186    47.152824   -855.82904    1688.8431   -69523.567    1.8918427    16.225407 
   16400   -903.44127    53.776684   -849.66458    1926.0858   -68256.214    1.8918427    18.656064 
   16500   -901.95308     50.97627   -850.97681    1825.7851   -65186.762    1.8918427    17.413369 
   16600   -899.21627    50.589554   -848.62671    1811.9343   -63403.761    1.8918427    15.751455 
   16700   -902.12371    48.827136   -853.29657     1748.811   -66967.654    1.8918427    18.082217 
   16800   -897.91014    51.145621   -846.76452    1831.8506   -62403.547    1.8918427    19.859281 
   16900   -894.07244    47.911032   -846.16141    1715.9994   -62794.263    1.8918427    18.347821 
   17000   -901.60647    46.069391   -855.53708    1650.0385   -67681.021    1.8918427     19.49054 
   17100   -899.81949    49.817159   -850.00233      1784.27   -64127.716    1.8918427    16.783537 
   17200   -900.69992    52.276034   -848.42388     1872.338   -65383.755    1.8918427    17.225857 
   17300   -901.62307    46.249067   -855.37401    1656.4739   -67258.437    1.8918427    20.370556 
   17400   -902.13837    51.400397   -850.73797    1840.9758   -66247.476    1.8918427    20.027132 
   17500   -898.24662    58.565465   -839.68115    2097.6026   -63371.138    1.8918427    10.479157 
   17600   -901.33971     50.72988   -850.60983    1816.9603   -68175.842    1.8918427     14.42669 
   17700   -903.75918    45.947619   -857.81156    1645.6771   -70551.678    1.8918427    12.229555 
   17800   -900.56533    49.615781   -850.94955    1777.0573   -63164.347    1.8918427    14.760199 
   17900   -903.34891    53.032317   -850.31659    1899.4253   -68966.402    1.8918427    11.560672 
   18000   -904.93035    44.743516   -860.18683    1602.5505   -71632.796    1.8918427     14.84957 
   18100   -900.54392    51.004095   -849.53982    1826.7817    -64165.07    1.8918427    15.557052 
   18200   -904.00179    53.536347   -850.46544    1917.4778   -67986.493    1.8918427    13.574431 
   18300   -903.32714    45.297086   -858.03006    1622.3774     -67663.5    1.8918427    12.889873 
   18400   -902.12714    51.496866   -850.63027     1844.431   -65344.146    1.8918427    14.835837 
   18500   -901.23469    54.854998   -846.37969    1964.7071   -62178.124    1.8918427    15.441498 
   18600   -906.86065    51.567272   -855.29338    1846.9527    -69949.47    1.8918427     14.36851 
   18700   -905.65505    53.341258   -852.31379    1910.4904     -72292.9    1.8918427    12.805373 
   18800   -899.77322    56.059514    -843.7137    2007.8485    -61219.19    1.8918427    14.612952 
   18900   -904.50634    49.478866   -855.02747    1772.1535   -67643.506    1.8918427    16.216353 
   19000   -904.15759    49.537327   -854.62026    1774.2474   -68170.062    1.8918427    9.6212454 
   19100   -899.81067     53.52268   -846.28799    1916.9883   -67155.819    1.8918427    13.612385 
   19200    -903.5354    48.182703    -855.3527    1725.7297   -66998.148    1.8918427    17.581032 
   19300   -904.22457    50.398998   -853.82557    1805.1093   -67661.503    1.8918427    13.138003 
   19400   -901.35971    53.689865   -847.66984    1922.9763   -67113.294    1.8918427    16.988864 
   19500   -904.35348    48.130729   -856.22275    1723.8682    -67541.74    1.8918427     15.38933 
   19600    -902.5716    44.528495    -858.0431    1594.8492   -69274.421    1.8918427     15.89202 
   19700   -900.97777    51.277587   -849.70018    1836.5772   -68909.163    1.8918427    16.454296 
   19800   -897.70494    50.024334    -847.6806    1791.6902   -64805.319    1.8918427     24.39145 
   19900   -901.63146    46.098256    -855.5332    1651.0724   -67433.202    1.8918427    29.610224 
   20000   -901.74001    52.583306   -849.15671    1883.3433   -64191.305    1.8918427     29.09711 
   20100   -901.33398    51.673857   -849.66012    1850.7702   -67961.793    1.8918427     26.29813 
   20200   -902.45266    48.276238   -854.17642    1729.0798   -67616.183    1.8918427    25.893552 
   20300   -899.81767    50.188522   -849.62915    1797.5708   -64852.362    1.8918427    28.481289 
   20400   -898.92789       52.827   -846.10089    1892.0716   -63405.914    1.8918427    29.036602 
   20500   -904.14366    47.674088   -856.46957    1707.5129   -69703.239    1.8918427    28.686574 
   20600   -904.93083    52.824017   -852.10681    1891.9647   -69427.061    1.8918427    25.471868 
   20700   -898.50733    52.686132    -845.8212    1887.0262   -62326.531    1.8918427    29.005772 
   20800   -897.51766    50.420776   -847.09688    1805.8893   -59748.951    1.8918427    26.875394 
   20856   -903.91188    50.188508   -853.72337    1797.5703   -65358.515    1.8918427    23.661165 
Loop time of 11.3728 on 1 procs for 20856 steps with 217 atoms

Performance: 113.957 ns/day, 0.211 hours/ns, 1833.842 timesteps/s
100.0% CPU use with 1 MPI tasks x no OpenMP threads

MPI task timing breakdown:
Section |  min time  |  avg time  |  max time  |%varavg| %total
---------------------------------------------------------------
Pair    | 11.029     | 11.029     | 11.029     |   0.0 | 96.97
Neigh   | 0.13659    | 0.13659    | 0.13659    |   0.0 |  1.20
Comm    | 0.087544   | 0.087544   | 0.087544   |   0.0 |  0.77
Output  | 0.0060149  | 0.0060149  | 0.0060149  |   0.0 |  0.05
Modify  | 0.087488   | 0.087488   | 0.087488   |   0.0 |  0.77
Other   |            | 0.02655    |            |       |  0.23

Nlocal:    217 ave 217 max 217 min
Histogram: 1 0 0 0 0 0 0 0 0 0
Nghost:    868 ave 868 max 868 min
Histogram: 1 0 0 0 0 0 0 0 0 0
Neighs:    3641 ave 3641 max 3641 min
Histogram: 1 0 0 0 0 0 0 0 0 0
FullNghs:  7282 ave 7282 max 7282 min
Histogram: 1 0 0 0 0 0 0 0 0 0

Total # of neighbors = 7282
Ave neighs/atom = 33.5576
Neighbor list builds = 250
Dangerous builds = 0
Total wall time: 0:00:11
