LAMMPS (3 Mar 2020)
Reading data file ...
  orthogonal box = (0 0 0) to (17.469 17.469 17.469)
  1 by 1 by 1 MPI processor grid
  reading atoms ...
  217 atoms
  read_data CPU = 0.00139799 secs
Reading potential file library.meam with DATE: 2012-06-29
Reading potential file LiSi.meam with DATE: 2020-11-07
1 atoms in group Li
216 atoms in group Si
Neighbor list info ...
  update every 1 steps, delay 10 steps, check yes
  max neighbors/atom: 2000, page size: 100000
  master list distance cutoff = 6
  ghost atom cutoff = 6
  binsize = 3, bins = 6 6 6
  2 neighbor lists, perpetual/occasional/extra = 2 0 0
  (1) pair meam/c, perpetual
      attributes: full, newton on
      pair build: full/bin/atomonly
      stencil: full/bin/3d
      bin: standard
  (2) pair meam/c, perpetual, half/full from (1)
      attributes: half, newton on
      pair build: halffull/newton
      stencil: none
      bin: none
Setting up Verlet run ...
  Unit style    : metal
  Current step  : 0
  Time step     : 0.003
Per MPI rank memory allocation (min/avg/max) = 8.895 | 8.895 | 8.895 Mbytes
Step Temp E_pair E_mol TotEng Press Volume 
       0         1700   -951.04357            0   -903.57924   -114721.17    5330.9442 
    3200    1613.8233   -941.37601            0   -896.31775   -1829.4748    4658.3905 
Loop time of 2.28755 on 1 procs for 3200 steps with 217 atoms

Performance: 362.588 ns/day, 0.066 hours/ns, 1398.874 timesteps/s
100.0% CPU use with 1 MPI tasks x no OpenMP threads

MPI task timing breakdown:
Section |  min time  |  avg time  |  max time  |%varavg| %total
---------------------------------------------------------------
Pair    | 2.1927     | 2.1927     | 2.1927     |   0.0 | 95.85
Neigh   | 0.045604   | 0.045604   | 0.045604   |   0.0 |  1.99
Comm    | 0.014757   | 0.014757   | 0.014757   |   0.0 |  0.65
Output  | 2.4775e-05 | 2.4775e-05 | 2.4775e-05 |   0.0 |  0.00
Modify  | 0.029377   | 0.029377   | 0.029377   |   0.0 |  1.28
Other   |            | 0.005072   |            |       |  0.22

Nlocal:    217 ave 217 max 217 min
Histogram: 1 0 0 0 0 0 0 0 0 0
Nghost:    957 ave 957 max 957 min
Histogram: 1 0 0 0 0 0 0 0 0 0
Neighs:    4181 ave 4181 max 4181 min
Histogram: 1 0 0 0 0 0 0 0 0 0
FullNghs:  8362 ave 8362 max 8362 min
Histogram: 1 0 0 0 0 0 0 0 0 0

Total # of neighbors = 8362
Ave neighs/atom = 38.5346
Neighbor list builds = 77
Dangerous builds = 0
Setting up Verlet run ...
  Unit style    : metal
  Current step  : 3200
  Time step     : 0.003
Per MPI rank memory allocation (min/avg/max) = 9.664 | 9.664 | 9.664 Mbytes
Step PotEng KinEng TotEng Temp Press Density c_msdli[4] c_msdsi[4] 
    3200   -941.37601    45.058255   -896.31775    1613.8233   -1829.4748     2.164977            0 3.0932575e-32 
    3300   -946.54976     50.31246    -896.2373    1802.0098    3098.9726    2.1853502  0.069521169    0.1303221 
    3400   -946.39328    48.178367   -898.21491    1725.5744   -98.036678     2.173507   0.10222617   0.12834965 
    3500   -945.88749    43.583981    -902.3035    1561.0202   -5884.2265    2.1629154  0.077657033   0.14464222 
    3600   -948.32333    41.631796   -906.69153    1491.0999    5970.8217    2.2009448   0.34873552   0.17037845 
    3700   -949.13724    50.372215   -898.76503    1804.1501    4443.0738    2.1902803   0.21973269   0.11040226 
    3800   -943.99102    47.431044   -896.55998     1698.808   -9037.8844    2.1478962  0.099330118   0.11841917 
    3900   -939.50679    45.465234   -894.04156    1628.3998    -708.8222    2.1594785  0.044068134   0.13593022 
    4000   -946.53746    42.468803   -904.06866    1521.0785    13744.058    2.2109776   0.14160814   0.12912659 
    4100   -944.21207    45.979193   -898.23287     1646.808   -5044.7131    2.1591736   0.17478468   0.11708746 
    4200    -941.0687    45.534447   -895.53425    1630.8788   -5163.5435    2.1495985  0.034156306   0.12515321 
    4300   -943.03987    45.931577    -897.1083    1645.1025    6546.7252    2.1858826 0.0031961804   0.10903152 
    4400   -948.14692    43.383056   -904.76386    1553.8237     8111.218    2.1977907  0.032194592   0.14593698 
    4500   -943.99859    48.518211   -895.48038    1737.7464    -10495.32    2.1394105  0.080129826   0.16645584 
    4600   -943.80661    48.159792   -895.64682    1724.9091     886.0313    2.1705553    0.1028789    0.1711773 
    4700   -950.62654    50.581302   -900.04524    1811.6388    8506.7359    2.2033404  0.028364824   0.15551653 
    4800   -942.93566    49.232394   -893.70327    1763.3258   -3461.7697    2.1582194   0.23938784   0.13677564 
    4900   -942.14331    49.426969   -892.71634    1770.2948   -8152.4578    2.1441214 0.0086772429   0.11199014 
    5000   -947.01892    49.675592   -897.34333    1779.1996    6354.8896    2.1859174  0.022331679    0.1368332 
    5100   -945.99513    47.158124   -898.83701     1689.033    5528.6576    2.1909798  0.022171228   0.14551881 
    5200    -936.9804    47.968449   -889.01195    1718.0559   -8065.1171    2.1347408    0.6698048   0.14120735 
    5300   -944.73183    47.944463   -896.78737    1717.1968   -1265.5472    2.1663046    2.9342991   0.16904641 
    5400   -943.39103    47.134066   -896.25696    1688.1713    9306.5996    2.1940198    4.1520842   0.15680042 
    5500   -940.48896     48.52802   -891.96094    1738.0977    -2154.249    2.1568686    3.7677513   0.21048646 
    5600   -934.95725    46.027396   -888.92986    1648.5344   -6718.6801    2.1354565    12.372276   0.21812501 
    5700   -940.23534    42.589632   -897.64571    1525.4062    10066.632    2.1949812    19.122704   0.18027146 
    5800   -942.10006    49.453425   -892.64664    1771.2423    7866.1954    2.1841143    15.460634   0.18700917 
    5900   -938.43051    47.941301   -890.48921    1717.0835   -5476.4977    2.1593118    21.729502   0.19470072 
    6000   -946.97149    46.871131   -900.10036    1678.7539   -5012.2416     2.168299    19.804259   0.15819931 
    6100   -942.89171    47.485273   -895.40644    1700.7503   -299.51274    2.1671119    11.093281    0.2004132 
    6200   -940.77943     50.91577   -889.86366    1823.6182     6982.792    2.1795945    18.156036   0.19093475 
    6300   -944.80171     47.09517   -897.70654    1686.7782    -1019.759    2.1735532    20.206998   0.18501073 
    6400   -942.10787    44.325441   -897.78243    1587.5766   -4372.3458     2.158857     22.52627   0.18497795 
    6500   -936.61828    46.617534   -890.00075     1669.671    1134.6825    2.1614848    16.265139   0.18310028 
    6600   -944.03295    47.267935   -896.76502     1692.966    7033.6228    2.1899994     11.38625   0.16923763 
    6700   -946.73125    48.006655    -898.7246    1719.4243   -4283.3737    2.1625463    14.230066   0.15106822 
    6800   -939.75377     48.85215   -890.90162    1749.7069   -10079.324    2.1320014     13.50795   0.16214846 
    6900   -942.19757    43.840173    -898.3574     1570.196    9282.7251    2.1968983    10.669957    0.1822504 
    7000   -942.97846     44.96832   -898.01014    1610.6021    6383.1264    2.1844962     14.05428   0.16269516 
    7100    -937.3466    43.454189   -893.89241    1556.3715   -9393.1564    2.1339201    14.148516   0.17534025 
    7200   -942.36697    51.172869    -891.1941    1832.8266   -2411.4487    2.1548696    11.596812   0.17293072 
    7300   -947.33228      48.5215   -898.81078    1737.8642    14529.885      2.21147    13.792758   0.17860763 
    7400   -940.78345    46.665338   -894.11811    1671.3832   -535.85855    2.1596667    14.841432   0.18571611 
    7500   -941.10254     47.88203   -893.22051    1714.9607   -10984.296    2.1332233    13.523063   0.17468745 
    7600   -947.82168    47.528708   -900.29297    1702.3059    2017.7507      2.18176    12.370084   0.15603915 
    7700   -941.44766      46.8327   -894.61496    1677.3775    6912.0101    2.1816326    10.912747   0.16326372 
    7800   -938.27931    45.944274   -892.33504    1645.5573   -1665.4713    2.1521823    10.560606   0.16254222 
    7900   -945.19636    45.123366   -900.07299    1616.1553    -276.7498    2.1658864    10.899968   0.15477101 
    8000   -944.25505    49.521557    -894.7335    1773.6826    4517.6655    2.1769836    12.445762   0.17186067 
    8100    -939.0928    48.413682   -890.67912    1734.0025     -693.692    2.1613709    12.701511   0.17421062 
    8200   -947.14958    48.455018   -898.69456     1735.483   -6234.2106    2.1589407    14.182676   0.17625321 
    8300   -942.45727    48.671101   -893.78617    1743.2223    3751.8199    2.1711147    10.912087   0.18352402 
    8400    -940.4534    51.058477   -889.39492    1828.7295    5349.4652    2.1714587    15.614708    0.1599047 
    8500    -950.1916    50.593267   -899.59833    1812.0673   -6233.1566    2.1666849     19.97172   0.14500433 
    8600   -939.08082    41.586698   -897.49412    1489.4847   -2722.7228    2.1532231     23.50503   0.16039029 
    8700   -940.80607     50.01883   -890.78724    1791.4931    5679.7031    2.1750291      21.9528   0.13978892 
    8800   -944.86531    44.746139   -900.11917    1602.6444    8322.2065    2.1934498    20.746318   0.14258331 
    8900   -943.70664    45.055079   -898.65156    1613.7095   -13386.805    2.1366874    20.271292    0.1614431 
    9000   -942.47753    48.209114   -894.26842    1726.6756   -2759.7853    2.1552234    21.649836   0.14961378 
    9100   -944.46065    47.853354    -896.6073    1713.9336    21424.663    2.2233202    18.681575   0.16246072 
    9200   -948.08208    44.764788   -903.31729    1603.3124    -5000.055    2.1664304    19.576164   0.15150689 
    9300   -944.00918    48.572336   -895.43684    1739.6849    -16305.47    2.1266185    19.994609   0.15469719 
    9400   -943.19141    49.737025   -893.45438    1781.3999    7741.0718    2.1823429    19.257543    0.1488024 
    9500   -950.15505     49.08654   -901.06851    1758.1019     5358.304    2.1953188     20.81691   0.14757113 
    9600   -945.23849    51.492787    -893.7457    1844.2849    -9670.846    2.1471317    24.273527   0.14019097 
    9700   -940.75695     46.87697   -893.87998    1678.9631   -1388.0883    2.1606475    21.602335   0.14373022 
    9800   -947.27791     47.81136   -899.46655    1712.4295    4285.8454    2.1850212    19.604454   0.13145457 
    9900   -941.70881    47.118334   -894.59048    1687.6078    1365.2597    2.1674865    21.973766   0.14282076 
   10000   -942.20874    50.211549   -891.99719    1798.3956   -5773.3495    2.1456638    19.967461   0.14267786 
   10100   -946.96617    46.979946   -899.98622    1682.6513    2003.5791    2.1759212    20.145218   0.14539031 
   10200   -945.69549     50.34555   -895.34994     1803.195    5128.7242    2.1841001    19.547569   0.15710765 
   10300   -940.01176    48.342479   -891.66928    1731.4523   -2497.1367    2.1485558     20.03218   0.14875639 
   10400   -944.06396    42.500122   -901.56383    1522.2002   -92.309317    2.1653884    21.555314   0.13425159 
   10500   -944.22344    47.583533    -896.6399    1704.2696    5446.7755    2.1855025     23.19746    0.1385945 
   10600   -944.18601     51.74788   -892.43813    1853.4214   -11.795479    2.1684923    21.199703    0.1415277 
   10700   -943.16365    41.914814   -901.24884    1501.2366    -8086.493    2.1548718    21.499592   0.13657151 
   10800   -945.42767    46.009282   -899.41839    1647.8856   -2802.7884    2.1687889    20.354551    0.1390505 
   10900   -941.99553    49.713756   -892.28178    1780.5664    13830.347    2.2025507    17.560351   0.15138822 
   11000   -949.81276    50.725052   -899.08771    1816.7874   -5877.7341    2.1683585    19.315009   0.14218441 
   11100   -947.31277     45.37075   -901.94202    1625.0157   -15917.192    2.1418478    19.560155   0.16228735 
   11200   -944.31682    51.081388   -893.23543    1829.5501    2103.5021    2.1806434    19.602749    0.1658783 
   11300   -941.76138     46.55875   -895.20263    1667.5656    10539.437     2.199363    19.865066   0.16458688 
   11400   -945.75946    44.434523   -901.32494    1591.4835   -6909.8464    2.1618996    20.816435   0.14381303 
   11500   -940.89621    48.196709    -892.6995    1726.2313   -3275.2014    2.1583199    22.228816   0.15164593 
   11600   -942.81318    49.393493   -893.41969    1769.0958    8158.3643    2.1860155    22.213124   0.15565218 
   11700     -943.683    43.781772   -899.90123    1568.1043    2073.4633    2.1792738    17.529892   0.13951213 
   11800   -941.29558    47.709808   -893.58577    1708.7923    -5338.835    2.1557291    20.336384   0.14813032 
   11900   -939.52065    47.392961   -892.12769     1697.444    2595.2781    2.1674609    17.611102   0.15127975 
   12000   -946.44472    47.060297   -899.38442    1685.5292    4515.3668    2.1887599    22.246116   0.14823754 
   12100   -944.41707    49.685206   -894.73186    1779.5439   -2987.3798    2.1649585     19.30848   0.15014071 
   12200   -940.18388    48.053435   -892.13045    1721.0998   -3635.1947    2.1553545    22.303817   0.17241268 
   12300   -944.00925    43.117786   -900.89147    1544.3227    6935.5709    2.1936633    19.780745    0.1581718 
   12400   -943.01231    47.937381   -895.07493    1716.9431    1983.8951    2.1757251    19.675795   0.16555683 
   12500   -941.65962    47.386063   -894.27356    1697.1969   -6767.5627    2.1494185    18.638505   0.14200779 
   12600   -950.83565    47.778151    -903.0575    1711.2401   -664.69215    2.1834226    21.107888   0.13912711 
   12700   -943.42298    47.935802   -895.48718    1716.8866    6402.5628    2.1897754    18.561534   0.14474744 
   12800   -944.80077    50.054485   -894.74628    1792.7701   -6422.1236    2.1564117     20.46431    0.1396029 
   12900   -948.40977    45.969165    -902.4406    1646.4488    -10252.87    2.1532511    21.379074   0.13746992 
   13000   -947.26044    49.830669   -897.42977    1784.7538    9221.2392    2.1980906    22.271855   0.14702427 
   13100   -940.44483    48.434639   -892.01019    1734.7531    9520.7241    2.1840601    20.967784   0.15886206 
   13200   -944.75228    45.031929   -899.72036    1612.8804   -12339.525    2.1427329    22.410136   0.15707632 
   13300   -947.09812    49.716255   -897.38186     1780.656   -4823.4722    2.1630374    21.376235   0.14968426 
   13400    -942.8926    53.494433   -889.39817    1915.9766    7925.6421    2.1848333    19.342368   0.16466252 
   13500   -944.52694    46.926515   -897.60043    1680.7376   -174.37467    2.1726141      18.4666    0.1452276 
   13600   -943.11033    44.398953   -898.71137    1590.2095   -6159.6401    2.1562085    21.040008   0.14620446 
   13700   -938.89183    49.426478   -889.46535    1770.2772    2950.5945    2.1666026    21.585985   0.15894982 
   13800   -940.19831    44.646658   -895.55166    1599.0814    7116.6929    2.1815148    29.543018    0.1621783 
   13900   -944.01218    45.166416   -898.84577    1617.6972   -5331.2024    2.1584237    22.412256   0.16807734 
   14000   -941.86288    50.514089   -891.34879    1809.2315   -4684.4365     2.154267    37.876272   0.18679503 
   14100   -945.42054    47.785772   -897.63476    1711.5131    4397.2915    2.1791284    29.684445   0.19556864 
   14200   -944.86135     45.53222   -899.32913     1630.799    1201.6395    2.1746423    36.423526   0.18833593 
   14300   -941.19665    48.985412   -892.21124    1754.4798   -5032.2309    2.1522588    37.036534   0.16644128 
   14400   -941.04114      43.4006   -897.64054    1554.4521    2882.1498    2.1725067    36.054155   0.18735769 
   14500   -945.42601     45.81911    -899.6069    1641.0744    5908.2184     2.185648    34.861172   0.17174109 
   14600   -941.61912    50.210971   -891.40815    1798.3749   -2114.6298    2.1570523    36.426455   0.16161449 
   14700   -944.38868    47.423518   -896.96516    1698.5384   -6121.7982    2.1610088    34.179967   0.20456711 
   14800   -943.59084    44.797456   -898.79338    1604.4824    2047.5548    2.1750111    38.266929   0.17499884 
   14900   -942.72815    52.851058   -889.87709    1892.9332    2918.7067    2.1690762    33.348961   0.20086474 
   15000   -944.65299    47.902203   -896.75079    1715.6832   -4023.5927    2.1588647    35.899391   0.18994166 
   15100   -941.86892    42.569394   -899.29953    1524.6813   -5096.1779    2.1580521    40.024878    0.1797959 
   15200    -937.9172    47.715785   -890.20141    1709.0064    8210.4005    2.1728344    37.605042   0.17587767 
   15300   -939.21522    43.296529   -895.91869    1550.7246    7919.5357    2.1803186    36.109192   0.18088238 
   15400   -946.20228    45.804976   -900.39731    1640.5681   -11141.651    2.1499125     31.70811   0.17204703 
   15500   -940.85858    49.107424   -891.75115    1758.8498   -4134.7496    2.1509462    39.584042   0.18508384 
   15600   -944.61538    48.245606   -896.36978    1727.9826    10523.666    2.1959843    33.601911   0.18576384 
   15700   -947.44891    47.294669   -900.15424    1693.9235   -3920.6987    2.1689975    38.265827   0.18602769 
   15800   -941.06641    47.381365   -893.68504    1697.0287   -11438.497    2.1374463    33.593196   0.20256937 
   15900   -943.33754    49.949255   -893.38829    1789.0012    2014.8882     2.175043    37.094264   0.20732139 
   16000   -945.30923    44.933817   -900.37542    1609.3664    11598.135    2.1996421    31.356547   0.20045089 
   16100   -939.58503    46.555904   -893.02913    1667.4636   -4082.5481    2.1480286    17.963762   0.16928641 
   16200   -939.69039    46.526036   -893.16436    1666.3939   -6621.6081    2.1466338    25.279759   0.18299963 
   16300    -947.5951    47.457609   -900.13749    1699.7594    6497.5868    2.1953072    37.879407   0.18555097 
   16400   -942.87598    49.359317   -893.51666    1767.8717    5270.1038    2.1763844     33.25391   0.18149437 
   16500   -941.79773    49.147522   -892.65021     1760.286   -7441.2277    2.1468518    34.671047   0.17659481 
   16600   -945.46748    45.444676   -900.02281    1627.6635   -3028.7275    2.1673219    31.238984   0.19994916 
   16700   -945.16301    50.782736   -894.38027    1818.8534    4186.1905    2.1775892    52.779131   0.17371564 
   16800   -942.27234    50.377645    -891.8947    1804.3446   -113.61472    2.1639696    38.116172   0.16313864 
   16900   -942.67568    42.667193   -900.00849    1528.1841    122.13349    2.1681535    37.963848   0.17800447 
   17000   -943.08134    48.809734   -894.27161    1748.1876   -2029.5068    2.1614784    37.982142   0.16382693 
   17100   -938.64348    46.844793   -891.79869    1677.8106    1031.5118    2.1618671    35.129437    0.1791593 
   17200   -947.11816    47.479208   -899.63895     1700.533   -577.84147    2.1766392    36.290818   0.15533477 
   17300   -943.92008    50.371793   -893.54828    1804.1349   -3268.9736    2.1578258    32.370883   0.17454889 
   17400   -940.46796    49.362367   -891.10559     1767.981   -509.14683    2.1548988    40.610645   0.16464711 
   17500   -946.05329    46.977134   -899.07616    1682.5506    3430.4225    2.1815645    28.573985   0.16902362 
   17600   -942.35047    48.055962   -894.29451    1721.1903    1190.8991      2.17028    39.203687   0.17593613 
   17700   -940.42813     49.03378   -891.39435    1756.2122    -3548.764     2.147674    40.887472   0.17347657 
   17800   -942.22304     42.01915   -900.20389    1504.9736    3425.2465    2.1776942    28.791309   0.17063772 
   17900   -940.38186    46.590215   -893.79164    1668.6925    6195.1374    2.1784703    40.191507   0.16973598 
   18000   -937.46674    44.935834    -892.5309    1609.4386   -3259.8916    2.1519785    34.284703   0.17580491 
   18100   -948.91035    46.360344   -902.55001    1660.4594    -5433.626    2.1673828    28.454073   0.17458512 
   18200   -943.70963    47.645499   -896.06413     1706.489    8380.9441    2.1853502    39.960851   0.14269642 
   18300   -943.57773      52.3047   -891.27303    1873.3647    2081.4344    2.1730491    35.526128   0.18471303 
   18400    -941.9865    42.358394    -899.6281     1517.124   -11192.333    2.1384243    35.126516   0.17926229 
   18500   -943.64187    46.449325   -897.19254    1663.6464   -3881.0245     2.158305    37.289223   0.16562374 
   18600   -939.99805    51.706561   -888.29149    1851.9415    14304.012    2.1896707    33.967909   0.19008452 
   18700   -943.12433    47.016621    -896.1077    1683.9649   -1752.3699    2.1623602     30.36534   0.17395383 
   18800   -941.37849    41.609472   -899.76901    1490.3004   -11186.156    2.1373072    31.276336   0.17790861 
   18900   -941.77056    51.060004   -890.71056    1828.7842    3074.6829    2.1711789    30.335034   0.20175632 
   19000   -939.56008    46.467994   -893.09208     1664.315    10909.158    2.1863535    32.807191   0.18241165 
   19100   -943.88908    44.700711   -899.18837    1601.0174   -5846.8717    2.1543372    42.356116   0.18203697 
   19200   -943.02043    49.169189   -893.85124    1761.0621   -2609.2319    2.1571381    40.906013   0.17441841 
   19300   -935.89282    45.844128   -890.04869    1641.9704    7537.0791      2.17374     40.51049   0.16340811 
   19400     -946.486    46.258732   -900.22727      1656.82    5220.6283     2.186457     37.45364    0.1762057 
   19500   -943.25479    47.770319   -895.48448    1710.9596   -8091.6017    2.1457458    31.681699   0.17737385 
   19600   -940.61041    48.010835   -892.59958     1719.574   -732.68029     2.158537    35.173301     0.184425 
   19700   -945.38066    44.824553    -900.5561    1605.4529    8839.3491    2.1996433    22.972016   0.15904877 
   19800   -944.05043    49.463659   -894.58677    1771.6089   -1730.5027    2.1608295    23.795308    0.1331979 
   19900   -937.27576    44.181715   -893.09405    1582.4288   -3585.2198    2.1474994    30.986815   0.16536931 
   20000    -946.3431    47.501531   -898.84157    1701.3326    2496.6509    2.1812156     23.95848   0.16425989 
   20100     -945.744     47.28728   -898.45672    1693.6589    3565.8737    2.1851163    38.619518    0.1701576 
   20200   -941.66723      50.7527   -890.91453    1817.7777   -6018.9921    2.1460602    48.621394   0.19531805 
   20300    -945.0789    47.027761   -898.05114    1684.3639    -417.6058    2.1652335    45.033593   0.16240314 
   20400   -941.70894    44.347721   -897.36122    1588.3745    7764.5605    2.1858927    43.527782   0.15056004 
   20500   -940.08468    50.392026   -889.69265    1804.8596   -1830.8549    2.1557779     42.26317   0.15748174 
   20600   -944.94354     46.03546   -898.90808    1648.8232   -1854.1608    2.1665028    45.594041    0.1646425 
   20700   -945.12023    46.775839   -898.34439    1675.3409   -950.23717    2.1697921    43.596957   0.15245208 
   20800   -942.31931    51.046259   -891.27305    1828.2919     617.9454    2.1662829    48.303914   0.16274065 
   20900    -945.7175    48.011745   -897.70576    1719.6066   -871.08811    2.1678089    47.828848   0.15544671 
   21000   -943.07528    43.276152   -899.79913    1549.9948   -5.4484241     2.165845    47.724445   0.14492435 
   21100   -939.24107     46.42359   -892.81748    1662.7246    2596.7681    2.1697871    44.737025   0.16880477 
   21200   -941.65816    44.130323   -897.52784    1580.5881    3546.5722     2.174012     44.62955   0.15419352 
   21300   -947.62158    45.589134   -902.03245    1632.8375   -3711.7328    2.1705309    43.338922    0.1518143 
   21400   -942.37928     48.10186   -894.27742    1722.8342      541.292    2.1679483    40.797384   0.16853135 
   21500   -940.68403    44.522338   -896.16169    1594.6287    5656.6779    2.1824843    43.288719   0.16639686 
   21600   -945.33518    41.729024   -903.60616    1494.5823   -1131.1052    2.1732821    43.210451   0.15887856 
   21700   -938.27349    43.519874   -894.75362    1558.7241   -5862.1278     2.144323    42.068539   0.16014386 
   21800   -942.41108    48.017346   -894.39374    1719.8072    8983.8516    2.1903251    47.151345   0.15135467 
   21900   -945.76736    45.347568   -900.41979    1624.1854    7614.9264    2.1960365    47.859398   0.15141848 
   22000   -938.20703    46.249905   -891.95713    1656.5039   -9235.9283     2.133147    46.671681   0.16007473 
   22100   -938.75684    45.110405   -893.64644    1615.6911    175.83619    2.1617924    44.321071   0.16747685 
   22200   -942.46838     44.71605   -897.75233    1601.5668    12653.093    2.2003632    41.405646   0.16032918 
   22300   -945.37743    48.884771   -896.49265    1750.8752   -2608.9174    2.1678392    42.265754    0.1723049 
   22400   -940.51879    49.910904   -890.60789    1787.6276   -11613.681     2.131384    44.370394   0.16707667 
   22500   -947.54574    47.632631    -899.9131    1706.0281    5430.5775    2.1919651    45.764119   0.15657365 
   22600   -945.39715    48.905835   -896.49131    1751.6297    7112.3743    2.1892768    41.572616   0.15452294 
   22700    -942.3824    49.449932   -892.93246    1771.1172   -6259.9958    2.1482725     45.05737   0.14606266 
   22800   -945.83771    43.195029   -902.64268    1547.0893   -728.22468    2.1725032    45.339826   0.15984318 
   22900   -945.17448    47.150672    -898.0238    1688.7661    4809.9209    2.1838621    45.423019    0.1472564 
   23000   -942.59938    49.233042   -893.36634     1763.349     1711.764    2.1701834    38.000378   0.16994281 
   23100     -948.652     47.46421   -901.18779    1699.9959   -5638.6336    2.1681121    45.767643   0.14767655 
   23200   -949.03378    49.329863   -899.70391    1766.8168    -2418.879    2.1751673    42.883107   0.15710648 
   23300   -941.78117    48.871405   -892.90977    1750.3965    4753.2496    2.1736948    45.102759   0.16370416 
   23400   -943.92403    44.409152   -899.51488    1590.5748   -431.91625     2.172182    45.552588   0.16303548 
   23500   -943.87834    43.227671   -900.65067    1548.2584   -467.86612    2.1710691    46.133133   0.17011155 
   23600   -941.17796    48.807517   -892.37044    1748.1083   -443.65276    2.1630026    42.910775   0.16175917 
   23700   -944.61497    46.700443   -897.91453    1672.6405    1362.8342    2.1752673    50.195591   0.15415147 
   23800   -947.09039    46.616022   -900.47436    1669.6169   -1758.1516    2.1748351    42.868831   0.15141106 
   23900   -944.09061    53.116033   -890.97458    1902.4237   -6066.3865     2.151883    42.206951    0.1602163 
   24000   -944.42833    47.123339   -897.30499    1687.7871    2816.3724    2.1757622    39.656777   0.15046501 
   24100   -945.98157    46.667379   -899.31419    1671.4563    1756.9018    2.1778531    44.614442   0.15154646 
   24200   -939.54134    49.147507   -890.39383    1760.2855   -515.45955    2.1530176    44.820302   0.16737017 
   24300   -946.88566     49.23267   -897.65299    1763.3357   -1676.9844    2.1705745    45.832102   0.15795037 
   24400   -943.35315    44.183144      -899.17      1582.48    2013.2303    2.1724819     47.31703   0.14629534 
   24500   -943.42068    52.305873   -891.11481    1873.4067   -2451.1776    2.1605789    49.541984    0.1463033 
   24600   -940.66663     42.64215   -898.02448    1527.2872    3243.1442    2.1758084     46.23688   0.15377514 
   24700   -947.33712    47.545218    -899.7919    1702.8973   -4200.3084    2.1701072    49.686252   0.15646389 
   24800   -942.82124     50.38527   -892.43597    1804.6177   -1079.8586    2.1636005    45.985369   0.16082681 
   24900   -944.51924    45.508207   -899.01103    1629.9389    4922.9706    2.1817656    46.694809   0.15157322 
   25000   -944.48037    43.856158   -900.62421    1570.7685   -2149.2489     2.167383    43.694863   0.16469462 
   25100   -940.53253    46.853341   -893.67919    1678.1168   -1079.7986    2.1555252       40.695   0.14696943 
   25200    -944.0407    46.520958   -897.51974     1666.212    5659.0669    2.1850458    45.396456   0.16456188 
   25300    -948.9043     47.38118   -901.52312     1697.022    1864.3338    2.1823625    44.077073   0.13824077 
   25400   -943.43521    49.505315    -893.9299    1773.1008   -9209.5591    2.1426762    45.308903   0.15655739 
   25500   -941.96437    45.453504   -896.51087    1627.9797    2433.9938    2.1693419     44.68566   0.15592923 
   25600   -946.53335     46.16933   -900.36402     1653.618    12657.843    2.2071837    44.458093   0.14085258 
   25700   -939.11709    47.416212   -891.70087    1698.2768   -4504.0527    2.1500301    44.765134   0.15950301 
   25800   -945.25345     48.80653   -896.44692    1748.0729   -9900.5463    2.1461077      45.0623   0.13791461 
   25900   -947.64967    48.429294   -899.22038    1734.5617    5494.2526    2.1909847    46.798586   0.12549659 
   26000   -943.21396    52.560041   -890.65392    1882.5101    5583.7124    2.1772501    43.808079   0.14740348 
   26100   -943.77816    49.349329   -894.42883     1767.514   -7929.6503    2.1461524     43.25274   0.14767789 
   26200   -945.64984    45.598127   -900.05172    1633.1595   -3807.0686    2.1615141    42.725669   0.15082234 
   26300    -939.0594    46.426835   -892.63257    1662.8409    13002.663    2.1900226    45.784783   0.17010205 
   26400   -944.75083     50.30321   -894.44762    1801.6786    164.47821    2.1676062    44.870535   0.15407162 
   26500   -946.29928    44.353293   -901.94599    1588.5741   -8040.6164     2.155398    41.741684   0.13841941 
   26600   -944.08361    48.938418    -895.1452    1752.7967    872.85248    2.1716946    47.318889   0.15491832 
   26700   -940.08293    46.248574   -893.83436    1656.4562    5516.7693     2.177714    41.822575   0.13495596 
   26800   -946.86815    43.627001   -903.24115     1562.561   -2384.9422    2.1733937    43.380311   0.13762339 
   26900   -945.56299    49.063916   -896.49908    1757.2915   -4374.2861    2.1590073    47.888064   0.14385935 
   27000   -944.21228    50.683909   -893.52837    1815.3138    1353.5065    2.1680335    45.265683    0.1489684 
   27100   -947.95279    45.582785   -902.37001      1632.61    1073.7787    2.1808868    46.056863   0.15593703 
   27200   -946.43062    49.488995   -896.94162    1772.5163   -5408.3932    2.1605386    44.649822   0.13966009 
   27300   -945.22777    51.542395   -893.68538    1846.0617   -1699.5691    2.1639185     45.05764   0.13349869 
   27400   -945.98099    45.582231   -900.39876    1632.5902    3065.4685    2.1816727    45.648949   0.15214155 
   27500   -945.06635    46.470989   -898.59536    1664.4223   -941.75519    2.1733104    43.031489   0.13915071 
   27600   -940.62007    48.086975   -892.53309    1722.3011   -2905.8481    2.1540268    45.824874   0.15437716 
   27700   -945.86355    46.966048    -898.8975    1682.1535    383.38312    2.1737925    41.796009   0.14265301 
   27800   -942.97759    44.682003   -898.29558    1600.3473    7019.2033    2.1852906    46.244583   0.14462047 
   27900   -938.98692    48.587227   -890.39969    1740.2183   -4325.5063    2.1491716    45.417152   0.16702284 
   28000   -946.20835    47.149707   -899.05864    1688.7315   -5404.9275    2.1594978     45.35827   0.13736606 
   28100   -945.45718    48.333533   -897.12365    1731.1319    9084.2798    2.1931285    44.594618   0.14472825 
   28200   -942.36626    52.894736   -889.47153    1894.4976     87.10568    2.1690796    43.717384   0.15135039 
   28300   -940.67977     44.25057    -896.4292    1584.8949   -10019.749    2.1396015    43.327792   0.15725904 
   28400   -946.28252    47.359849   -898.92267     1696.258   -3058.5049    2.1674244    43.251712   0.14441976 
   28500   -941.73332    50.354945   -891.37837    1803.5315    13929.834     2.197105    44.338456   0.13882294 
   28600   -942.78265    46.173813   -896.60883    1653.7785   -3492.9713    2.1594833    45.083526   0.13238128 
   28700   -946.55689     44.66271   -901.89418    1599.6563   -10012.937    2.1482072    46.315001   0.12940785 
   28800   -946.02885    52.157088   -893.87176    1868.0777    2413.6656    2.1748415    45.757128   0.13280014 
   28900   -942.18228    45.724942   -896.45734    1637.7016    9746.1448    2.1857531    44.279356   0.15180679 
   29000   -947.50483    44.096897   -903.40794    1579.3909   -4725.0617    2.1660763     46.51766   0.13690668 
   29100   -943.53095    48.712422   -894.81852    1744.7023   -3311.3577    2.1524666    45.069731   0.12956348 
   29200   -946.96523    52.036897   -894.92833    1863.7729    3881.5464    2.1821164    45.679852   0.13870605 
   29300   -948.13411    45.525416   -902.60869    1630.5553    2019.0212    2.1881823    42.625556   0.13951507 
   29400   -942.30864    48.567279   -893.74136    1739.5038   -7006.6447    2.1520337    44.624318   0.16033911 
   29500   -943.25452    48.290219    -894.9643    1729.5805   -820.63856    2.1673445    46.456309   0.15565995 
   29600   -945.17969    44.889137   -900.29056    1607.7661    7002.5415    2.1906108    44.742874   0.14025116 
   29700   -940.58649    48.446739   -892.13975    1735.1865   -1581.2803    2.1582885    44.348705    0.1632329 
   29800   -943.26137    49.394438   -893.86694    1769.1296   -2729.5357    2.1564561    44.757686   0.14588161 
   29900   -944.75169    45.329964   -899.42173    1623.5549    3347.3444    2.1781577    42.668068   0.14534968 
   30000   -945.02253    50.358414   -894.66412    1803.6558    3330.4569     2.176231    44.454886   0.14992906 
   30100   -937.10158    45.873049   -891.22853    1643.0062   -550.55721    2.1513376     43.09723    0.1499562 
   30200   -945.58898    45.358851   -900.23013    1624.5896   -7268.2813    2.1600661    41.304872   0.16572893 
   30300   -944.06809    48.849966   -895.21812    1749.6286    11991.376    2.1991026    39.299831    0.1676196 
   30400   -942.22772    52.334061   -889.89366    1874.4163    2149.7376    2.1660071    42.364081   0.15553666 
   30500   -943.95906    46.476701   -897.48236    1664.6269   -17873.986    2.1277537    45.204873    0.1541452 
   30600   -943.52586    45.001056   -898.52481    1611.7746    1239.8647    2.1745106    45.858836   0.14574124 
   30700   -941.63517    49.359553   -892.27561    1767.8802    14434.754    2.2014925    45.127888   0.17819405 
   30800   -943.67347    46.984939   -896.68853    1682.8301   -5076.1305    2.1542288    43.999129   0.14922515 
   30900   -944.64846     42.10096    -902.5475    1507.9037   -5372.6064     2.161104    42.831186   0.16939708 
   31000   -940.53496     46.20641   -894.32855     1654.946    6605.1695    2.1849683     48.94666   0.17913666 
   31100   -943.89314    48.174753   -895.71839     1725.445    2486.4915    2.1813844    45.630917   0.15911723 
   31200   -950.17355     46.20764   -903.96591    1654.9901   -8660.4583    2.1630156    46.631198   0.15200581 
   31300   -944.35233    48.631376   -895.72095    1741.7995    -2803.182    2.1607234     44.67532   0.15400686 
   31400   -941.74283    48.615404   -893.12743    1741.2275    9563.8113    2.1869417    44.598907   0.15404407 
   31500   -945.74516    44.437052   -901.30811     1591.574    864.43111    2.1783625    44.926244    0.1700874 
   31600   -942.17933    46.318865   -895.86046    1658.9738   -8356.9305    2.1475702    45.139653   0.16930869 
   31700    -941.3185    48.460776   -892.85773    1735.6892    3193.5031    2.1726918    47.648834   0.17161856 
   31800   -946.55782     47.83608   -898.72174    1713.3149    4661.3409    2.1851507    46.289026   0.15917124 
   31900   -945.58491     47.50831    -898.0766    1701.5754   -6923.6157    2.1582549    45.720257   0.14225128 
   32000   -938.55871    47.802594   -890.75612    1712.1156   -5494.3389    2.1441383    49.454955   0.15203475 
   32100   -946.86908    48.889402   -897.97968    1751.0411     5513.277    2.1884897    40.254911   0.14098903 
   32200   -943.30894    44.852003   -898.45693    1606.4361    4567.1646    2.1806942    47.994702   0.14590186 
   32300   -936.30496     45.56513   -890.73983    1631.9777   -9892.0295    2.1286422    48.700741   0.15825898 
   32400   -945.06976    45.314475   -899.75528    1623.0002    923.87399      2.17519    44.352644   0.16937801 
   32500   -945.31425    47.750664   -897.56359    1710.2556    17277.695    2.2174263    45.419128   0.15822436 
   32600   -943.42044    49.096346   -894.32409    1758.4531    -10657.68    2.1396139     42.97516   0.14927228 
   32700   -939.54925    45.577256   -893.97199     1632.412   -14928.139    2.1220096    46.088998   0.13635224 
   32800   -944.82986    45.846139   -898.98373    1642.0424    13663.766      2.20879    40.697983   0.15758189 
   32900   -943.58501    52.788695   -890.79632    1890.6996    3296.9433    2.1768403    46.264471   0.14060078 
   33000   -943.88758    49.662408   -894.22517    1778.7273   -8360.2728    2.1428658    44.587014   0.15234358 
   33100   -947.57426    47.901182   -899.67308    1715.6466   -2780.6951    2.1682292    43.452329   0.14504249 
   33200   -945.13446    49.855083   -895.27938    1785.6283    9323.8401    2.1957858    46.642947   0.15269892 
   33300   -941.60987    50.182267    -891.4276    1797.3468   -1615.8436    2.1581038    44.537255    0.1540493 
   33400   -947.18038    46.722866   -900.45751    1673.4436   -8678.0997    2.1600132    46.862139    0.1320376 
   33500   -946.73288    50.561986   -896.17089     1810.947    1122.0917    2.1785508    45.148115   0.14164362 
   33600   -941.66938    51.136759   -890.53262    1831.5332    3992.0589    2.1748562    43.890756   0.14499464 
   33700   -945.76146    45.259004   -900.50246    1621.0134   -3597.3941    2.1706044    44.783375   0.15617276 
   33800   -945.27209    47.389867   -897.88222    1697.3332     -7450.32    2.1606923     45.42093   0.16614593 
   33900   -941.65177     49.61371   -892.03806    1776.9832    3109.7726    2.1795165    41.280789   0.16958749 
   34000   -947.60587    46.799584   -900.80628    1676.1914    4503.3913    2.1885024     43.35582   0.14430586 
   34100   -945.99123    47.137895   -898.85333    1688.3085   -11050.142    2.1475053     40.80905    0.1431618 
   34200   -945.67618    51.745097   -893.93109    1853.3217   -3907.1491    2.1648754    41.104268   0.14649538 
   34300    -945.6575    48.631619   -897.02588    1741.8082    11680.393    2.2025668    46.544099   0.14117132 
   34400   -947.70609    43.862545   -903.84354    1570.9973   -3745.9688    2.1664215    47.410173    0.1373723 
   34500   -942.74129    47.881738   -894.85955    1714.9502   -15389.993    2.1251379    45.434653   0.15154889 
   34600   -946.26667    52.409699   -893.85697    1877.1254    11987.607     2.199223    41.012734    0.1535558 
   34700   -949.53332    50.003768   -899.52955    1790.9536    8517.2501    2.2012802    43.769248   0.14972588 
   34800   -944.18391    51.658644   -892.52526    1850.2253   -11827.243    2.1386101    39.886287   0.14114378 
   34900   -942.61369    49.827589    -892.7861    1784.6435   -4062.2844    2.1564964    44.777354   0.14609565 
   35000   -947.84227    49.586612   -898.25566    1776.0126    4831.8086    2.1905763    47.521529    0.1489774 
   35100   -941.77889    45.796587    -895.9823    1640.2677    4574.4619    2.1742706     46.68268   0.15367942 
   35200   -936.10398    46.566791   -889.53719    1667.8536   -5394.7385    2.1420491    49.375229   0.19553251 
   35300   -943.99894    44.742872   -899.25607    1602.5274    3876.3611    2.1834031    43.428701   0.14514418 
   35400   -944.72977    48.156681   -896.57309    1724.7977    5253.9371    2.1837085    47.101094   0.15131648 
   35500   -942.42726    51.466965   -890.96029    1843.3601   -7390.5232    2.1468978    43.152225    0.1645561 
   35600   -943.01636    43.346988   -899.66937    1552.5319   -2159.1472    2.1667697    46.356923   0.16307578 
   35700   -947.94176    48.925881   -899.01588    1752.3476    2000.1979    2.1848231    41.802312   0.16218452 
   35800   -947.66344    53.634047    -894.0294    1920.9771    728.20828    2.1748069    46.093545   0.15631876 
   35900   -943.07075    47.257598   -895.81315    1692.5958   -7260.6338    2.1503705    46.994024   0.13857314 
   36000   -945.53877    42.671694   -902.86708    1528.3453    1596.7626    2.1802803    47.634441   0.14298154 
   36100   -944.13233    49.658251   -894.47408    1778.5784    10318.767    2.1995591    50.039008   0.16843467 
   36200   -943.24339    47.374531   -895.86886    1696.7839   -5488.3322    2.1556302    46.378133   0.15595882 
   36300   -944.99272    41.361574   -903.63114    1481.4216   -13085.378    2.1504001    43.584467    0.1539045 
   36400   -947.75946    49.327353   -898.43211    1766.7269    8739.4756    2.2037898    41.648746   0.17355127 
   36500   -946.17942    53.695089   -892.48433    1923.1634    7538.9815     2.192164    45.725511   0.13788886 
   36600   -942.86206    43.826305   -899.03575    1569.6993   -11308.846    2.1448814    41.588469   0.18983484 
   36700   -945.17382    47.116686   -898.05713    1687.5488   -2362.7524    2.1679638    47.682382   0.14802639 
   36800   -940.00828     50.81521   -889.19307    1820.0166    7305.4858    2.1757741     42.83655   0.15544761 
   36900   -946.41926    49.407696   -897.01157    1769.6045   -845.13513    2.1733617     45.42856   0.14236123 
   37000   -943.03848    44.088015   -898.95047    1579.0728   -2834.1757    2.1633274    46.624348   0.12279693 
   37100   -941.24333    51.531849   -889.71149     1845.684   -1306.0088    2.1645059    45.261624   0.18289232 
   37200   -947.36835    50.877123   -896.49122     1822.234    3063.7884    2.1840293    43.487257   0.15700221 
   37300   -944.47039    45.290014   -899.18037    1622.1241   -2091.5146    2.1651292    47.458972   0.15711143 
   37400   -940.42012    47.841109   -892.57901     1713.495   -2689.3706    2.1556404    45.211085   0.15913155 
   37500   -947.05695    49.688293   -897.36866    1779.6545    2374.8895    2.1830847    45.484795    0.1315521 
   37600   -945.11084    44.735302   -900.37554    1602.2563    2207.0982    2.1789161    44.816083   0.14597702 
   37700   -942.00697    47.238712   -894.76826    1691.9193   -4357.7257    2.1540762    46.878159   0.15164105 
   37800   -944.33214    50.564974   -893.76717     1811.054   -1527.3374    2.1689371     44.89511   0.15286591 
   37900   -947.40844     45.25416   -902.15428    1620.8399    9244.7717    2.2042518    43.756574   0.14131119 
   38000   -939.91292    45.108081   -894.80484    1615.6079   -5662.6551    2.1512972    42.820231   0.16649164 
   38100   -941.42432    45.762204   -895.66211    1639.0362     -10003.9    2.1390121    44.257423   0.15111349 
   38200   -947.06187    47.495457   -899.56641     1701.115    13492.379    2.2099981    43.840052   0.16345771 
   38300   -950.32451    48.445349   -901.87916    1735.1367    7562.0201    2.1975656    47.145306   0.14399497 
   38400   -941.36224    48.638935   -892.72331    1742.0702   -16626.644    2.1180659    46.931389   0.14359417 
   38500   -946.93251    49.396338   -897.53617    1769.1977   -3125.6992     2.168195    45.740018   0.14281438 
   38600   -946.39183    48.177325   -898.21451    1725.5371    10166.788    2.1989038    47.058199   0.15147601 
   38700   -943.77778    54.783616   -888.99417    1962.1505   -5943.1013     2.149763    45.230542   0.16877006 
   38800   -942.84002    46.102324   -896.73769    1651.2181   -3621.6602    2.1570471    48.259482   0.16363247 
   38900   -942.78998    44.687837   -898.10215    1600.5563     3513.457    2.1798472    41.928374   0.14668951 
   39000   -943.17472    51.521388   -891.65333    1845.3093    2797.5757    2.1760386    41.300106   0.15796214 
   39100   -945.11948    51.772853   -893.34663    1854.3158   -5298.8378    2.1549544    44.173599   0.14655073 
   39200   -944.50432    44.564976   -899.93934    1596.1558   -922.53088    2.1708615    45.798157   0.18027098 
   39300   -941.31094    47.118329   -894.19262    1687.6077    5868.6313    2.1854079     49.02323   0.19669342 
   39400   -943.20025    48.829717   -894.37053    1748.9034   -6.9538824     2.164437    45.302054   0.16298353 
   39500   -947.47119    44.354659   -903.11653     1588.623   -4114.3742    2.1681079     50.27379   0.13923104 
   39600   -939.89457    43.539612   -896.35495     1559.431    4203.0718    2.1733244    41.935485   0.13943612 
   39700   -941.78659    47.776404   -894.01019    1711.1775    5426.2939    2.1797733    42.638245   0.16207045 
   39800   -945.80111    42.780699   -903.02041    1532.2495    -4662.131    2.1639421    46.870899    0.1503887 
   39900   -940.99689    43.591421   -897.40547    1561.2866   -7289.6843    2.1446059    46.010166   0.15877617 
   40000   -943.80852    50.938616    -892.8699    1824.4365    10593.115     2.195412    47.348301   0.15032135 
   40100   -945.37762    46.519226   -898.85839      1666.15    4953.8527    2.1842321    44.858051   0.15539119 
   40200   -944.33535     45.62177   -898.71358    1634.0063   -13808.385    2.1333262    43.171117   0.13677009 
   40300   -943.07107    52.170661   -890.90041    1868.5639   -5676.3245    2.1498223    48.544164   0.13494085 
   40400   -945.72682    49.924903   -895.80192     1788.129    9870.6745    2.1985864    42.938667   0.14234692 
   40500   -945.18897    45.629628   -899.55934    1634.2878   -1194.4578    2.1683881    45.205778    0.1484112 
   40600   -943.90382    53.290873   -890.61295    1908.6858   -10696.051    2.1388062     44.21751   0.15660921 
   40700   -946.13988    49.737908   -896.40197    1781.4315    1790.1933    2.1784424    42.309365   0.15692968 
   40800   -943.80606    44.988663    -898.8174    1611.3308    4714.8082    2.1806008    45.341892   0.15586345 
   40900   -940.49061    46.795307    -893.6953    1676.0382   -868.56218    2.1579744    47.614144   0.13900707 
   41000   -941.28445    48.859359   -892.42509    1749.9651   -2398.9159    2.1532623    45.981003   0.15351845 
   41100   -949.33154    48.642596   -900.68895    1742.2014    4772.5564    2.1933955    42.873195   0.12963804 
   41200   -940.36785    45.312569   -895.05528    1622.9319    3210.2949    2.1708145    49.004811   0.14862351 
   41300   -938.65943    44.105259   -894.55417    1579.6904   -3648.0261    2.1487079    43.443089   0.17833353 
   41400   -945.64328    42.287997   -903.35529    1514.6027    4130.7002    2.1864905    47.991921   0.15712671 
   41500   -946.17667    50.760765    -895.4159    1818.0665    3643.9109    2.1803803    43.528347   0.15814032 
   41600   -942.69969    47.612792    -895.0869    1705.3175   -3575.1838     2.158154    46.280874    0.1574606 
   41700    -946.7228    44.420911   -902.30188    1590.9959   -7331.8493    2.1604201    45.634274   0.14561271 
   41800   -944.82326    48.176608   -896.64665    1725.5114    9847.5955    2.1978868      50.2991    0.1619794 
   41900   -939.92236     47.92419   -891.99817    1716.4707    11260.177    2.1920749    46.522366   0.17309087 
   42000   -940.73361    41.348513    -899.3851    1480.9538   -17714.321    2.1288293    49.317382   0.16322562 
   42100   -940.17241    44.145588   -896.02682    1581.1349   -1928.2087    2.1604468    43.580832   0.15816868 
   42200   -938.84179    51.275712   -887.56608      1836.51    12737.119    2.1949568    43.740209   0.16836427 
   42300   -942.60805    45.835993   -896.77206    1641.6791   -495.55918    2.1677372     41.67132   0.17727404 
   42400   -946.46883    47.452794   -899.01604     1699.587   -11789.068    2.1484712    44.542257   0.16732965 
   42500   -941.63568    51.100393   -890.53529    1830.2308    3431.3226    2.1734049    43.506201   0.16643982 
   42600   -940.98464    45.312981   -895.67166    1622.9467    7957.9504    2.1838205    43.171627   0.14826441 
   42700   -941.87835    42.228534   -899.64982     1512.473    -3738.485    2.1591522    44.250006   0.15006477 
   42800   -941.46439    47.778795    -893.6856    1711.2632   -1999.5326    2.1628119    46.348287   0.16199948 
   42900   -947.97505    52.991379   -894.98367     1897.959    2580.8499    2.1784591    42.827964   0.14368055 
   43000   -949.87823    48.243169   -901.63506    1727.8954    84.023904     2.181428     43.31816   0.14985922 
   43100   -943.88897    48.249235   -895.63974    1728.1126   -3915.3727    2.1599975    43.645756   0.14347091 
   43200   -941.17155    47.080966   -894.09058    1686.2695    507.23716    2.1631345     44.30311   0.14431266 
   43300   -947.97467    44.867322   -903.10735    1606.9847    7707.0883    2.1960831    41.187519   0.14224126 
   43400   -946.34589    50.783429   -895.56246    1818.8783    -6064.722    2.1601889    46.405355   0.14108426 
   43500   -942.89218    47.692939   -895.19924    1708.1881   -6339.3765    2.1524003    46.422204   0.15794805 
   43600   -945.76247    44.532643   -901.22982    1594.9978       8096.1    2.1963164    44.778621   0.13342279 
   43700   -950.35442    50.433975   -899.92044    1806.3621    4719.5681    2.1931192    48.234837     0.138901 
   43800   -941.05858    46.970324   -894.08826    1682.3067   -12997.344    2.1295671    48.008764   0.14995324 
   43900   -944.98105    46.137639   -898.84341    1652.4829   -2351.8397     2.163757    45.908764   0.14433971 
   44000   -948.33928    50.116615   -898.22266    1794.9954    15121.512    2.2141412    45.261717   0.15169822 
   44100    -943.1117    53.125012   -889.98669    1902.7453   -6002.1231    2.1473633    43.389394   0.13983232 
   44200   -945.08008    47.399394   -897.68068    1697.6744   -11656.789    2.1441971    45.703419   0.13466613 
   44300    -943.5848    45.395313   -898.18949    1625.8955    4149.6072    2.1843751    47.358144   0.14286063 
   44400   -941.65372    50.651187   -891.00253    1814.1418    6192.5118    2.1768218    46.035076   0.13682815 
   44500   -941.69777    46.788787   -894.90898    1675.8047   -7025.7843    2.1470843    48.585511   0.14934409 
   44600   -944.36344    44.187583   -900.17586     1582.639    -2322.553    2.1663735    46.331548   0.14221868 
   44700   -941.12735     48.43893   -892.68842    1734.9068    7684.4708    2.1830603     46.17172   0.17251979 
   44800   -945.79371    49.967673   -895.82604    1789.6609   -1135.2582    2.1661349    44.377945    0.1600582 
   44900   -949.74078    47.607688   -902.13309    1705.1347   -4830.9279    2.1652996    46.168551   0.12971291 
   45000   -944.15846    49.976283   -894.18218    1789.9692     1281.032    2.1698512    42.584445   0.15950164 
   45100   -946.07273    49.756793   -896.31594    1782.1079    2286.0614    2.1790989    46.220088   0.14478189 
   45200   -946.27933    43.082873   -903.19645    1543.0723   -1756.4473    2.1776478    45.724317   0.15029759 
   45300   -939.09077    44.596864   -894.49391    1597.2979   -1038.0677    2.1566858    48.084089   0.16605645 
   45400   -939.38655    44.189909   -895.19665    1582.7223    7102.0588    2.1792686    44.696742   0.15886909 
   45500   -946.47605    44.239942   -902.23611    1584.5143    4172.7953    2.1881576    46.813266    0.1724436 
   45600    -939.2659    46.053783   -893.21212    1649.4795   -7522.0105    2.1412736    40.808219    0.1830659 
   45700   -946.68348     51.38466   -895.29882    1840.4122   -3271.5859    2.1687572    48.797002   0.16060288 
   45800   -947.18919    48.542441   -898.64675    1738.6142    14418.408    2.2105671    39.411303   0.16228187 
   45900    -939.5125     47.47935   -892.03315    1700.5381   -3835.0479    2.1448737    49.868317   0.15411371 
   46000   -942.23222    49.813772   -892.41844    1784.1487   -12363.724    2.1306535    42.882623    0.1575665 
   46100    -944.8376    47.330265   -897.50734    1695.1984    10983.034    2.1942248    46.339236   0.16316367 
   46200   -942.77109    44.650442   -898.12064    1599.2169    9688.8443    2.1928794    43.921862   0.16828698 
   46300   -941.03098    50.973217   -890.05776    1825.6758   -11978.057     2.129938    47.257087   0.17647423 
   46400   -945.15302    45.948722   -899.20429    1645.7166   -1477.4858    2.1689425    44.485836   0.16626984 
   46500    -946.9601    48.920881   -898.03922    1752.1686     6012.062    2.1926295    42.501002   0.17202975 
   46600   -943.10364    49.916146    -893.1875    1787.8153    -1884.304    2.1600091    44.287709   0.15572303 
   46700   -944.05478    49.980189   -894.07459    1790.1091   -7721.2684    2.1448051    45.977847   0.16301157 
   46800   -949.53016    48.803323   -900.72683    1747.9581     4791.729    2.1905692    45.561176   0.14928348 
   46900   -941.32834    47.451858   -893.87648    1699.5535    8729.4711    2.1825221    47.185138   0.14587384 
   47000   -942.48855    46.657027   -895.83152    1671.0855   -6400.3065    2.1489189    44.374959   0.14315616 
   47100   -950.08446    46.680271   -903.40419     1671.918    -1975.471    2.1766855    39.993481   0.14991177 
   47200   -944.52173    50.306301   -894.21543    1801.7893    2935.0643    2.1771334    40.520997   0.16397021 
   47300   -943.41113    47.725759   -895.68537    1709.3636     265.2461    2.1673719    41.984582    0.1772618 
   47400   -948.11691    45.588097   -902.52881    1632.8003   -2516.9158    2.1737542    43.829853   0.15044336 
   47500   -941.65562    46.310775   -895.34484     1658.684    3092.6498    2.1736323    42.665202   0.15438306 
   47600   -943.89915    49.773957    -894.1252    1782.7226    1378.8865    2.1732085    42.489762   0.16373178 
   47700   -947.71501    47.792889   -899.92212     1711.768   -3817.3538     2.167992    40.018643   0.14515088 
   47800   -942.05306    45.796563    -896.2565    1640.2668    2960.2922    2.1705136    42.589599   0.15698261 
   47900   -940.66195    49.173295   -891.48866    1761.2091    116.36274    2.1642036    40.269788   0.15579906 
   48000   -945.36249    46.963212   -898.39927    1682.0519   -376.72931    2.1719435    44.841799   0.14660862 
   48100   -945.92743    48.266543   -897.66088    1728.7325   -1158.0089    2.1690964    47.077718    0.1501366 
   48200   -938.63904    49.490647   -889.14839    1772.5755   -801.10731    2.1526155     47.64871   0.16116081 
   48300   -945.03899    46.823165   -898.21583     1677.036    4232.7483     2.178534    43.294683   0.15455637 
   48400   -943.56978    45.711789   -897.85799    1637.2305    512.40227    2.1719855    46.281755   0.14572145 
   48500   -939.20973    49.050885   -890.15885    1756.8248   -4123.7696    2.1493492    46.844848   0.15291504 
   48600   -946.63463    48.149679   -898.48495    1724.5469    1322.6917    2.1774895    47.078675   0.14686154 
   48700   -947.15872    48.498704   -898.66001    1737.0477   -1182.2732    2.1747394    42.312026    0.1506586 
   48800   -943.34913    49.671328    -893.6778    1779.0468   -4907.1998    2.1583647    46.427615    0.1796662 
   48900   -940.07853    45.781214   -894.29731    1639.7171   -1084.3517    2.1632448    42.869391   0.18218815 
   49000   -945.84118    44.688882    -901.1523    1600.5937    7797.7561     2.198488     45.87779   0.15430886 
   49100   -942.82589    48.302944   -894.52295    1730.0363    763.70006    2.1682691    63.873702    0.1829904 
   49200   -942.79786    48.863658   -893.93421     1750.119   -10345.311    2.1451541    76.140895   0.18269313 
   49300   -944.86979    42.980311   -901.88948    1539.3989    4261.1109    2.1882719    86.104364   0.18957503 
   49400   -938.81135    43.551782   -895.25957    1559.8669    9557.3395    2.1877693    75.593073   0.19962685 
   49500   -940.24026     46.90996    -893.3303    1680.1446   -235.45685    2.1598506    83.940505   0.18615743 
   49600   -944.88634    44.395745   -900.49059    1590.0946   -6166.2794    2.1618766    59.587436   0.19251101 
   49700   -942.61757    46.117058   -896.50051    1651.7458    5058.1266    2.1859908    72.230326   0.18863012 
   49800   -938.52992    47.186779   -891.34314    1690.0593    4674.9876    2.1708518    74.311562   0.21016703 
   49900   -941.99856    43.037168   -898.96139    1541.4353   -5119.0002    2.1558156    80.122321    0.1697392 
   50000   -942.39433    46.904352   -895.48997    1679.9438    -203.6257    2.1617254    68.224011   0.17207539 
   50100   -940.40713    52.512172   -887.89496    1880.7956    7619.2606    2.1776491    72.810103   0.17794363 
   50200   -943.07344    46.651272   -896.42216    1670.8794   -360.62191    2.1705506    71.871981   0.18513503 
   50300   -941.07834    43.787838    -897.2905    1568.3216   -7951.0248    2.1414347    77.277672   0.17982774 
   50400   -939.77267    51.289196   -888.48347     1836.993    2885.4051    2.1669923    61.813505   0.17321579 
   50500   -942.63644    48.223265   -894.41317    1727.1825    14461.241    2.2032615    102.46922    0.1784906 
   50600   -941.24408     43.53491   -897.70917    1559.2626    -11260.01    2.1377543    93.128824   0.16092704 
   50700   -942.72729    48.931746   -893.79555    1752.5577   -8890.2017    2.1477337    95.595372   0.14450902 
   50800   -944.35155    45.840011   -898.51154     1641.823    10410.433    2.1990592    87.447075   0.15209869 
   50900   -946.80658     44.80379   -902.00279    1604.7093    3661.1665    2.1877127     84.79484    0.1556598 
   51000   -943.82402    47.946507   -895.87751      1717.27   -5412.2106    2.1596224     91.01129   0.16052367 
   51100   -943.00106    48.509841   -894.49122    1737.4466     -1252.65    2.1702491    84.090946   0.15476145 
   51200   -951.25989    47.503579   -903.75631    1701.4059    5071.2437    2.1967356    84.068207   0.13724682 
   51300    -948.1718    51.655281   -896.51652    1850.1048   -4060.3099     2.165716    87.116942   0.13504381 
   51400   -943.48867    48.845896   -894.64277    1749.4829   -3406.4218    2.1636975     83.43506   0.14160336 
   51500   -947.35919    46.555921   -900.80327    1667.4642    2331.8963    2.1837221    86.986711   0.13246871 
   51600     -947.104    45.994099    -901.1099    1647.3418    2441.8011    2.1833818    87.883792   0.14663367 
   51700   -943.86323    50.047386   -893.81584    1792.5159   -5146.5294    2.1554503     90.20125   0.14885557 
   51800   -946.21053    48.002794   -898.20773     1719.286   -3400.7026     2.168533    85.427325   0.15655439 
   51900   -948.06723    47.674256   -900.39297     1707.519    7444.4613    2.1978287    86.817823   0.15536984 
   52000   -941.06885    51.006387   -890.06246    1826.8638   -5366.6505    2.1507682    84.655892   0.15550766 
   52100   -941.34136    44.903393   -896.43797    1608.2767   -6334.4008    2.1515976    95.751355   0.15541729 
   52200   -944.95885    47.463029   -897.49582    1699.9536    10572.137    2.1997252    88.010677   0.14130194 
   52300   -941.19171    48.528857   -892.66286    1738.1277    7391.9379    2.1848195    85.319367   0.15028318 
   52400   -937.74426    46.563313   -891.18095     1667.729   -14632.428    2.1207678    89.584096   0.16130093 
   52500   -947.05635     47.70155    -899.3548    1708.4965   -3634.8031    2.1684348    84.252732   0.14109049 
   52600   -944.07793    48.493253   -895.58467    1736.8525    14527.814    2.2071027     90.24667   0.16540195 
   52700   -940.72527    49.680092   -891.04517    1779.3607   -4902.2788    2.1549436     92.71382    0.1733096 
   52800   -943.91063    44.370099   -899.54053     1589.176    -7853.956    2.1535282    94.652975   0.16740043 
   52900    -945.5408    46.849483   -898.69132    1677.9786    2717.9906    2.1823912    93.258003   0.16821557 
   53000   -940.54341    47.021471   -893.52193    1684.1386    5544.4555    2.1801442    93.744854   0.15731259 
   53100   -943.04456    46.126664   -896.91789    1652.0898   -5593.5786     2.156802    94.288366   0.15310826 
   53200   -950.34076     47.94036    -902.4004    1717.0498   -2976.2917    2.1743818    91.157286   0.14827316 
   53300   -946.84835    52.449493   -894.39886    1878.5506    1981.3809    2.1774708    90.756126   0.14423326 
   53400   -943.82314    47.474295   -896.34884    1700.3571    679.09632    2.1687312    91.627845   0.15727727 
   53500   -946.39018    41.967242   -904.42294    1503.1144   -3347.4275    2.1686403    90.089888   0.16445714 
   53600   -945.59113     49.98493    -895.6062    1790.2789   -406.17697    2.1679576     93.04674   0.15409563 
   53700   -945.44863    50.607234   -894.84139    1812.5676    7923.1651    2.1852129    86.438706   0.16591957 
   53800   -946.85433    44.471023   -902.38331    1592.7908   -4606.4589    2.1674248    86.710216   0.15807486 
   53900   -938.25043     43.49262   -894.75781    1557.7479   -5208.0181    2.1464446    94.450986   0.14583473 
   54000    -937.2676    44.403404   -892.86419    1590.3689    16546.722    2.1969932    88.901186   0.17396977 
   54100   -941.15816    42.911291   -898.24687    1536.9268    6272.7437    2.1838939    95.931688   0.16118488 
   54200   -942.03597    45.382399   -896.65357    1625.4329   -16186.591    2.1236591    96.199976   0.14833504 
   54300    -935.8051     46.02097   -889.78413    1648.3043    3055.6059    2.1555931    92.608253    0.1779185 
   54400    -944.4132    48.872367   -895.54083     1750.431    17219.314    2.2141288    89.788301   0.15240977 
   54500   -942.87808    43.181819   -899.69626    1546.6162   -3936.5287    2.1615616    80.941123   0.16071487 
   54600    -941.8954    49.636434   -892.25897    1777.7971   -10118.776    2.1414725    90.781931   0.18687078 
   54700     -943.983    48.759567   -895.22343    1746.3908    3688.1585    2.1779068    87.323659    0.1560882 
   54800   -946.34341    46.819546   -899.52386    1676.9063    4207.5104    2.1859677    86.806901   0.15916112 
   54900   -941.67578    46.390586    -895.2852    1661.5426   -3949.8914    2.1544614    90.557674   0.15428866 
   55000   -941.98359    49.795094    -892.1885    1783.4797   -3773.8265    2.1520899    93.586032   0.13976312 
   55100   -949.41314    47.454967   -901.95817    1699.6648    6883.3342    2.1988347    93.309581   0.15799432 
   55200   -944.55528    48.428496   -896.12678    1734.5331   -2627.2529    2.1655317    94.192754   0.14550031 
   55300   -943.92461    49.220982   -894.70363    1762.9171   -6979.7949    2.1444578    90.640118   0.14887361 
   55400   -950.16767    47.020067    -903.1476    1684.0883    2286.9448    2.1888637    86.446919   0.14854989 
   55500   -947.46386    49.808746   -897.65511    1783.9686    4607.8229    2.1862142     83.50332    0.1478173 
   55600   -943.98251    49.335641   -894.64686    1767.0237   -4782.4204    2.1557565    94.082636   0.16854244 
   55700   -945.48788    45.796211   -899.69167    1640.2542   -5679.5676    2.1551086    88.330959   0.14707487 
   55800   -948.13319    47.243261   -900.88993    1692.0823    6664.4032    2.1951692    90.089119   0.14202255 
   55900   -940.55157    48.820099   -891.73147    1748.5589    2244.9765    2.1653459      93.4705   0.15938035 
   56000   -942.08587    44.570682   -897.51519    1596.3602   -9590.3838    2.1376693    86.403066   0.14472209 
   56100   -947.10909    49.285369   -897.82372    1765.2232    1641.3911    2.1774876    88.548758   0.14366496 
   56200   -941.93441    54.119938   -887.81447    1938.3799    15095.821    2.2007445     89.49582   0.16528768 
   56300   -939.02942    46.049234   -892.98018    1649.3166   -5204.3766     2.141278    85.048003   0.17573598 
   56400   -942.36999    42.922296    -899.4477     1537.321   -12071.121    2.1364381    90.670185   0.16000284 
   56500   -948.34472    53.699139   -894.64559    1923.3084    8883.2213    2.1955869    88.911609   0.14884532 
   56600   -941.12549    50.692799   -890.43269    1815.6322    2829.9459     2.170452    93.206829   0.17820619 
   56700   -945.58689     45.39791   -900.18898    1625.9885   -8889.7512    2.1512547    74.785868   0.16973731 
   56800   -942.56977    45.597946   -896.97183    1633.1531   -3481.2987     2.158378    71.824123   0.17602444 
   56900   -938.45138    46.910998   -891.54038    1680.1818    8822.1398     2.181807    91.323182   0.16635489 
   57000   -943.04975    43.646955    -899.4028    1563.2756   -905.90935    2.1688068    74.157996   0.18316083 
   57100   -945.44693     45.75735   -899.68958    1638.8623   -6286.3864    2.1553808    71.941917   0.17461704 
   57200   -944.75587     51.52631   -893.22956    1845.4856    852.01471    2.1706559    73.428244   0.18103259 
   57300   -948.00098    50.808352   -897.19263    1819.7709     3348.815    2.1842306    74.164908    0.1764919 
   57400   -947.02308    43.984037   -903.03904    1575.3487   -2768.5228    2.1703814    69.713497   0.16924338 
   57500   -942.41297    48.707251   -893.70572    1744.5171   -7739.8346    2.1482562    71.879463   0.16950701 
   57600   -945.72452    51.045109   -894.67941    1828.2507    7163.0624    2.1885395    74.539093    0.1598445 
   57700   -945.00988     44.01105   -900.99883    1576.3162    5454.7074    2.1877758    78.138301   0.17457862 
   57800    -939.4742    48.049109   -891.42509    1720.9448   -10792.369    2.1350191    75.932725   0.19128277 
   57900    -943.5564    50.122041   -893.43436    1795.1898    -991.8282    2.1652525    67.076356   0.16438785 
   58000   -944.27274    46.997525   -897.27521    1683.2809    9037.7182    2.1998016     75.37342   0.18544465 
   58100   -943.39167    46.580302   -896.81137    1668.3375   -6826.0257    2.1544412    76.741242   0.16213301 
   58200   -937.65615    49.188456   -888.46769    1761.7521   -14320.592    2.1184081     71.83647   0.19748113 
   58300    -944.7629    48.948079   -895.81482    1753.1427    14279.386     2.206648    88.112008   0.17299718 
   58400   -941.04879    45.834466   -895.21433    1641.6243    13905.259    2.1895575    57.142911   0.16761875 
   58500   -940.56071    49.295945   -891.26476     1765.602   -14867.402    2.1253242    63.482747   0.15618969 
   58600    -942.7502    46.906041   -895.84416    1680.0043   -3701.0862    2.1563144    67.287106   0.16726582 
   58700   -946.26922    47.680814    -898.5884    1707.7539    9230.2914    2.1937045    63.366335   0.16112996 
   58800   -942.00615    48.253606   -893.75254    1728.2692    601.01943    2.1662124    59.795438   0.16242973 
   58900   -938.48087    44.900404   -893.58047    1608.1697   -4887.7934    2.1493011    71.845807   0.18095417 
   59000   -948.00118    45.586163   -902.41502     1632.731    3870.3385    2.1859093    69.243335   0.16941879 
   59100   -940.88098      46.9637   -893.91728    1682.0694     2210.745    2.1733027    71.108987   0.19597942 
   59200     -939.862    47.373988   -892.48801    1696.7644    -3282.672    2.1546869    96.203496   0.19688331 
   59300   -946.94481    48.725645   -898.21917    1745.1759   -4899.7718    2.1663464    66.228477   0.17328538 
   59400   -943.85523    44.184307   -899.67092    1582.5216    7013.7748    2.1905392    61.756672   0.16226703 
   59500   -940.51021    48.861045   -891.64916    1750.0255   -2666.0807    2.1568279    47.841006   0.16408552 
   59600   -943.08486     47.46725   -895.61761    1700.1048   -5694.8823    2.1559463    78.670111   0.18603518 
   59700   -945.68404    46.978239    -898.7058    1682.5902    5449.7125    2.1849294    73.325559   0.17222175 
   59800   -938.33439    50.004528   -888.32986    1790.9808   -866.11309    2.1498248    74.174718   0.20950014 
   59900   -942.32408    48.432556   -893.89152    1734.6785   -3385.8586    2.1566469    72.506098   0.19095159 
   60000   -941.16275    44.424231   -896.73852    1591.1149    5880.8215    2.1793966    79.059172   0.22111577 
   60100   -937.51057    50.488796   -887.02177    1808.3256    4689.1647    2.1642315    70.970233   0.19877857 
   60200   -939.55372    48.749423   -890.80429    1746.0276     -2254.73    2.1586203    73.205364   0.17709989 
   60300   -944.50032    46.441676   -898.05865    1663.3724   -8588.9153    2.1511489    81.393762   0.15675496 
   60400   -947.48354     52.11651   -895.36703    1866.6244    3958.8664    2.1845616    80.104648   0.17325188 
   60500      -937.06    50.819588   -886.24041    1820.1734    8547.8905    2.1688659    73.309789   0.18461602 
   60600    -946.6009    50.889083   -895.71182    1822.6624   -7271.3674    2.1490661    83.137335   0.18345305 
   60700   -943.83519    46.623509   -897.21168     1669.885    -3720.458    2.1574914    81.721756   0.17934649 
   60800    -942.7707    51.656217   -891.11448    1850.1384    9846.2818    2.1931104    79.158596   0.17412197 
   60900    -940.5597     51.71425   -888.84545    1852.2169   -4065.2045     2.153259     75.41483   0.18112254 
   61000   -943.56961    45.516682   -898.05293    1630.2425   -8604.7548    2.1516038    73.599822   0.17818156 
   61100    -938.9474    43.757466   -895.18993    1567.2337    10105.526    2.1823676    68.839699   0.17012806 
   61200   -943.89194    50.482616   -893.40932    1808.1042    4428.2865    2.1747121    60.994769   0.14540507 
   61300    -946.1091    49.269592   -896.83951    1764.6581   -11456.339    2.1419357    65.918297   0.13531845 
   61400   -947.34799    45.416224   -901.93176    1626.6444   -1383.1936    2.1761377    65.609265   0.15084255 
   61500    -944.7472     49.01469   -895.73251    1755.5284    11728.492    2.1978361    58.606755   0.15406385 
   61600   -942.31317    46.226966    -896.0862    1655.6823   -1974.2025     2.157062    61.151887   0.14272055 
   61700   -946.55351    44.313915   -902.23959    1587.1637   -5868.4357    2.1584326    64.761122   0.13954012 
   61800   -943.79058    41.528376   -902.26221    1487.3958    6863.6766    2.1929323    67.974004   0.13824409 
   61900   -941.69566    45.912107   -895.78355    1644.4052     2830.729    2.1757589    66.801916   0.14195271 
   62000   -945.58457    49.068942   -896.51562    1757.4715   -4990.2501     2.157809     64.44716   0.13757653 
   62100   -949.22849     44.12864   -905.09985    1580.5279   -1922.7871    2.1814495    62.893003   0.13109234 
   62200    -947.6056    49.725697    -897.8799    1780.9941   -2313.9571    2.1738521    66.331076   0.14533126 
   62300   -940.75959    45.683608   -895.07598    1636.2212     5004.586    2.1737961    67.080353   0.14521373 
   62400   -944.84682    45.985619    -898.8612    1647.0381   -2390.7032    2.1649929    63.668802   0.13745315 
   62500   -948.80966    43.159902   -905.64976    1545.8312    -7.894262    2.1802307    65.464779   0.13996118 
   62600   -944.79744    49.025317   -895.77213    1755.9091   -16.011564    2.1708075    62.824926   0.13000743 
   62700   -945.23783    49.616045   -895.62178    1777.0668    1393.6771    2.1786073    65.634064   0.13836123 
   62800   -944.03614    45.196274   -898.83986    1618.7666   -3490.4558    2.1623304    67.538724   0.14255768 
   62900   -948.37235    45.506066   -902.86628    1629.8623   -3765.7285    2.1701131    67.610809   0.12580317 
   63000   -953.29123    44.302159   -908.98907    1586.7427    9199.2852    2.2153756    66.007005   0.13783577 
   63100   -949.40983    50.528042   -898.88179    1809.7312   -6113.2993    2.1650354    67.660384   0.13847804 
   63200   -945.67775    48.194144    -897.4836    1726.1395   -12669.524    2.1413667    63.842524   0.12911399 
   63300   -943.91116    49.226094   -894.68507    1763.1002    7843.3643    2.1881122    67.444399   0.15515768 
   63400   -945.37508     43.46346   -901.91162    1556.7035    9971.7534    2.1973335    62.672481   0.13555112 
   63500   -946.55824    43.614793   -902.94345    1562.1237   -9676.2165    2.1535532    64.695622   0.13582541 
   63600   -943.11728    46.508886   -896.60839    1665.7796    -3135.386    2.1588352    68.391116   0.13948492 
   63700   -943.58217    47.950099   -895.63207    1717.3986    7922.2518    2.1873304    67.551167   0.14068837 
   63800   -947.09958    44.745143   -902.35444    1602.6087   -2733.6329    2.1726587    63.942155   0.13529487 
   63900   -947.17313    44.636504   -902.53663    1598.7177   -4177.3016    2.1654267    72.466778   0.14343433 
   64000   -942.98518    47.539048   -895.44613    1702.6763    1436.1541    2.1678149    63.587637   0.15421597 
   64100   -944.69712    48.207402   -896.48972    1726.6143   -517.78127    2.1683665    63.355542   0.14201096 
   64200   -945.49183    44.966015   -900.52581    1610.5196   -1932.6875    2.1651331    65.342268   0.12325384 
   64300   -950.60593    43.167435   -907.43849     1546.101    1940.1324    2.1852264     67.17975   0.12319603 
   64400   -945.74131    48.372853   -897.36846    1732.5402   -2351.1015    2.1640131    66.463574   0.12968186 
   64500   -942.15434    45.569419   -896.58492    1632.1313    848.02162    2.1669052    68.024296   0.13677649 
   64600   -942.67667    46.201972    -896.4747    1654.7871    2472.5012    2.1723306    67.063195   0.15835537 
   64700   -948.79782     43.91197   -904.88585    1572.7675   -3204.7808    2.1699083    65.683682    0.1240468 
   64800   -946.24795    43.806067   -902.44188    1568.9745   -1946.1717    2.1691435    63.705556   0.15285992 
   64900   -943.79697    47.801326   -895.99564    1712.0701     4986.783     2.182447    68.688462    0.1435002 
   65000   -943.32913    47.159384   -896.16975    1689.0781   -605.41814    2.1638202    62.868161   0.13622778 
   65100   -943.12985    41.936582   -901.19327    1502.0163   -9454.2167    2.1451837    66.403911   0.13407421 
   65200   -949.23067    45.420491   -903.81018    1626.7973    8932.5631    2.1998973    65.247473   0.11436306 
   65300   -944.53642    49.657209   -894.87921    1778.5412    12019.045     2.197991     67.76033   0.14491272 
   65400   -944.92211    48.171593   -896.75052    1725.3318   -14814.582    2.1330701    68.325648   0.13913427 
   65500   -946.13229    50.174142   -895.95815    1797.0558   -5934.9684    2.1518205    63.540883   0.13673529 
   65600   -949.59891    43.679998   -905.91891    1564.4591    15244.024    2.2200806    59.983537   0.14970413 
   65700    -945.0645    46.001371   -899.06313    1647.6023    -3506.998    2.1642479    61.737188   0.13617724 
   65800   -944.26061    47.398675   -896.86193    1697.6487   -8193.5104    2.1504647    63.106923    0.1313058 
   65900   -945.00811    49.607209    -895.4009    1776.7503    3768.5002    2.1768081     63.82766   0.15289442 
   66000   -948.36379    44.095916   -904.26788    1579.3558    5182.6408    2.1896692    62.455577   0.11957803 
   66100   -945.44615    45.011285   -900.43486     1612.141   -5804.0596    2.1585559    60.530238   0.13213943 
   66200    -945.1441    49.294668   -895.84943    1765.5562   -994.84061    2.1682671    62.677906   0.13784842 
   66300   -945.20008    49.394775    -895.8053    1769.1417    4311.8736    2.1822953    62.822829    0.1459811 
   66400   -946.18777    41.400877   -904.78689    1482.8293    31.020791    2.1778124    64.159367   0.14458786 
   66500   -943.44256    45.136601   -898.30596    1616.6294   -6272.0393    2.1574276    66.040761   0.16290971 
   66600   -942.97339    47.975755   -894.99764    1718.3176    6096.2068      2.18567    60.837401   0.15215664 
   66700   -942.64357    44.584287   -898.05928    1596.8475    3729.3177    2.1794866    61.798658   0.14134773 
   66800   -949.22695    44.349568   -904.87738    1588.4407   -12968.055    2.1518481    65.779095   0.11224025 
   66900   -943.65901    43.579479   -900.07953    1560.8589    3387.8183    2.1813432    62.750404   0.14088893 
   67000   -944.17959    49.632126   -894.54747    1777.6428    17783.016    2.2120528    65.437891   0.14066135 
   67100   -943.14273    45.891744   -897.25099    1643.6758    -12023.83    2.1383607    67.919432   0.13904088 
   67200   -943.86494    50.628713   -893.23622    1813.3369   -11633.642    2.1378964    63.829499   0.13993666 
   67300   -941.47187    57.170017   -884.30185    2047.6227    9624.0754    2.1809115    63.440231   0.14647741 
   67400   -943.23385    50.009718   -893.22413    1791.1667    691.22164    2.1653898     68.25957   0.14497786 
   67500   -942.05219    45.293049   -896.75914    1622.2328   -7837.0251    2.1463166    66.140679   0.15146026 
   67600   -943.34965    47.089262   -896.26039    1686.5666    4930.5689    2.1775026    67.808814   0.13412681 
   67700   -949.83685    48.970594   -900.86626    1753.9491    3050.6049    2.1889856    60.990446   0.12506334 
   67800   -950.07131    44.192366   -905.87895    1582.8103   -2613.9012    2.1754101    69.304883   0.12710385 
   67900    -944.9455    46.370646   -898.57485    1660.8284   -1967.2365    2.1644748    67.142855   0.13754055 
   68000   -943.96647    48.159634   -895.80683    1724.9034    2809.1404    2.1761872    67.627311    0.1547696 
   68100   -942.58398    47.023244   -895.56074    1684.2021    3281.1771    2.1705084    64.815023   0.12478314 
   68200   -948.53733    42.734089   -905.80324    1530.5801   -2914.2675    2.1716065    60.405281   0.13447987 
   68300   -946.50203    46.046302   -900.45573    1649.2116   -3523.5701    2.1687123    69.984508    0.1248828 
   68400   -942.63619    47.171386    -895.4648     1689.508    6135.7338    2.1833663    64.686449   0.14891116 
   68500   -940.15351    43.622049   -896.53146    1562.3836    3189.9169    2.1686572    69.666153   0.15621119 
   68600   -947.41671    41.463718   -905.95299      1485.08   -4141.1049    2.1688816    66.631909   0.15262443 
   68700   -946.86957    48.587328   -898.28224    1740.2219    340.45064    2.1768154      66.6902   0.17576489 
   68800   -939.09552     44.66503   -894.43049    1599.7394    12196.167    2.1896061    69.938552    0.1566343 
   68900   -945.50773    45.846109   -899.66162    1642.0414   -8450.7275    2.1530631    68.207491   0.14565832 
   69000   -947.02227     41.49129   -905.53098    1486.0675   -8622.7257    2.1615989     68.00818   0.14330293 
   69100   -946.90159    51.206942   -895.69465     1834.047    7626.9834    2.1929364    67.911135   0.14485252 
   69200   -940.44551    44.952322   -895.49319    1610.0291    6131.1367    2.1783804    66.540012   0.13671953 
   69300   -941.21325    42.063262   -899.14999    1506.5535   -10863.598    2.1426138      60.9435   0.15495871 
   69400   -941.98949    45.858688   -896.13081    1642.4919    3655.0067    2.1742387    69.367998   0.15408969 
   69500   -941.20817    51.483182   -889.72498    1843.9409    7145.6626     2.179034    63.849855   0.16472265 
   69600   -942.13683    45.854352   -896.28248    1642.3366   -5886.9616    2.1519176    67.886686   0.16193934 
   69700   -946.78924    48.226252   -898.56299    1727.2894   -7112.6839    2.1621385    68.678656   0.15190038 
   69800   -943.33411    50.292074   -893.04203    1801.2797    8066.1469    2.1880497    64.414745   0.15242044 
   69900    -939.2734    48.858902    -890.4145    1749.9487    348.45414    2.1577894    63.897977   0.14856617 
   70000   -944.72508    46.380188   -898.34489    1661.1701   -3567.2639     2.161183     65.68232   0.14850931 
   70100   -945.02011    48.900052   -896.12005    1751.4225    1278.2307    2.1770988    65.149855   0.13881144 
   70200   -940.37543    52.350577   -888.02485    1875.0078   -86.300808    2.1628393    62.639724   0.16214324 
   70300   -943.63077    45.857929   -897.77284    1642.4647   -1585.1752    2.1706345    67.335277   0.16959775 
   70400   -942.29305    45.203119   -897.08993    1619.0118   -1151.4401    2.1626192    64.734034   0.16200006 
   70500   -943.14049    50.753704   -892.38678    1817.8136    2514.9758    2.1726543    64.735266   0.16388387 
   70600   -944.25161     52.74805   -891.50356    1889.2438   -1016.2835    2.1677365    61.527474   0.15765704 
   70700   -949.31721    49.084727   -900.23248    1758.0369   -1779.7703    2.1721066    62.968119   0.12280658 
   70800   -943.69128    46.394704   -897.29657    1661.6901    1700.3164    2.1738899    63.920735   0.15187235 
   70900   -941.63508    47.748052   -893.88703    1710.1621    894.19501    2.1640279    63.063049   0.15459571 
[...]
  186800   -943.17083    42.547364   -900.62347    1523.8923     7139.262    2.1901369    47.834321    0.1693421 
  186900   -941.45466    49.095653   -892.35901    1758.4283   -1216.7475    2.1630136    50.408155   0.16364314 
  187000   -941.90666     46.14209   -895.76457    1652.6423   -3343.1924    2.1587924    53.194812   0.14973605 
  187100   -948.51198     47.76056   -900.75142    1710.6101    1240.3551    2.1827742    50.850661   0.14904647 
  187200    -938.2636    46.668442   -891.59516    1671.4943    6434.1119    2.1721563    49.164288   0.17234699 
  187300   -941.49612    45.868082   -895.62804    1642.8284   -3034.8601    2.1582827    50.600742   0.16429285 
  187400   -946.86357    45.395473    -901.4681    1625.9012   -4950.8537    2.1691699    50.853054   0.14454269 
  187500   -943.78206    51.182086   -892.59998    1833.1567    7625.1989    2.1875419    48.922127   0.15950017 
  187600   -942.95945    47.603684   -895.35577    1704.9913    4377.0754    2.1744586    50.309364   0.13381902 
  187700   -946.00804    43.607698   -902.40034    1561.8696   -10681.751    2.1499844    48.129452   0.14763454 
  187800   -944.26257    49.470972    -894.7916    1771.8708   -172.04272    2.1699921    50.485521     0.146262 
  187900   -938.92208    45.815829   -893.10625    1640.9568    14920.666    2.1997801    52.918406   0.16105221 
  188000   -943.90673    42.082662   -901.82407    1507.2484   -2078.0166    2.1698163    56.973751   0.15030998 
  188100   -943.09809    47.192411   -895.90568     1690.261   -8424.1183    2.1467641    52.567563   0.14837193 
  188200   -940.33168     48.07688    -892.2548    1721.9395    6568.9456    2.1817806    50.941369   0.16063199 
  188300   -944.26841    43.930495   -900.33792     1573.431    6503.1062     2.195212    46.740614   0.14501742 
  188400   -941.08877     46.01399   -895.07478    1648.0543   -6187.9603    2.1549033    49.555517   0.14824011 
  188500   -942.44272     49.68516   -892.75756    1779.5422   -4931.4353    2.1592025      52.7137   0.16012381 
  188600   -947.20857    47.508983   -899.69959    1701.5995    5204.9858    2.1900565    50.242207   0.15146945 
  188700   -942.14476     46.14605   -895.99871    1652.7842    3461.2627    2.1758647    53.499383   0.15751296 
  188800   -942.57095    50.354538   -892.21641    1803.5169   -7709.3036    2.1489076    44.324005   0.16736518 
  188900   -945.17487    44.720559   -900.45431    1601.7282    853.22283    2.1772389    44.798501     0.142695 
  189000   -943.21535    47.516278   -895.69908    1701.8608    3994.4849    2.1803504     32.40442   0.17499257 
  189100   -940.15521    48.033738   -892.12147    1720.3943   -424.82688    2.1593893    28.856838   0.15837501 
  189200   -944.33539    43.936146   -900.39924    1573.6334    1395.3199    2.1688563    32.256781   0.16234808 
  189300   -942.22426    46.613317   -895.61094      1669.52    2175.6797    2.1715336    25.322292   0.16285487 
  189400   -941.62022    50.669717    -890.9505    1814.8055   -1560.2777    2.1628911    23.000654   0.18291163 
  189500   -942.40786    43.438136   -898.96972    1555.7965    1939.9439    2.1742597    25.558933   0.17620009 
  189600   -942.16482    46.523249   -895.64157    1666.2941    2722.2916    2.1666549    23.789564   0.17650902 
  189700   -940.84089    51.257665   -889.58323    1835.8637   -1010.3501    2.1569765    22.581673   0.18340421 
  189800   -947.41949    48.207491     -899.212    1726.6175   -1436.4004    2.1792151    25.017866   0.17391795 
  189900   -943.32809     47.68516   -895.64293    1707.9095   -1317.2071    2.1657092    25.142654   0.17665611 
  190000   -941.37716    50.349898   -891.02726    1803.3508   -1792.6441    2.1546557    21.785951   0.17290494 
  190100   -947.11768    46.656822   -900.46086    1671.0782    1432.8383    2.1814125    26.562506   0.17674165 
  190200   -941.76974    46.098779   -895.67096    1651.0911    310.26133    2.1633732    30.550471   0.16998362 
  190300   -939.33187    46.865989   -892.46588    1678.5698   -662.88337    2.1591584    22.279158   0.16682324 
  190400   -945.64154    44.441868   -901.19967    1591.7465    3171.9916    2.1804513    27.434506   0.16523788 
  190500   -939.42894    43.019773   -896.40917    1540.8122    5544.8633      2.16678    27.692044    0.1613184 
  190600   -942.26076    49.690227   -892.57053    1779.7237    -2949.595    2.1566463    27.346949   0.17059338 
  190700   -943.28734    43.329975   -899.95737    1551.9226   -594.50973    2.1704569    27.111909   0.16474181 
  190800   -946.09979    49.058473   -897.04132    1757.0966   -1083.0411    2.1732171    28.839909   0.16649066 
  190900   -940.74729    49.814443   -890.93285    1784.1727    356.54811    2.1578254    24.716629   0.17732697 
  191000   -944.16766    44.934669     -899.233    1609.3969   -2536.9352     2.168959    21.975981    0.1707285 
  191100   -943.31044    47.580948    -895.7295     1704.177    1867.5079    2.1687205    23.623001   0.16225643 
  191200   -942.55762    52.602452   -889.95517    1884.0291   -1008.3579    2.1541206    25.749648   0.15917907 
  191300   -945.05822    45.797316    -899.2609    1640.2938   -21.633226    2.1727484    28.829728   0.16556558 
  191400   -945.11528    49.743549   -895.37173    1781.6335   -3492.3979    2.1617591    28.842827   0.18164347 
  191500   -939.79555    50.256555   -889.53899    1800.0075   -649.81388     2.159191    25.478598   0.16911111 
  191600   -948.48153    49.092074   -899.38946    1758.3001    550.09033    2.1777239    27.507432   0.16781347 
  191700   -943.31299    46.910367   -896.40262    1680.1592   -3774.9618    2.1573481    27.532729   0.16225409 
  191800   -941.12821    49.459911    -891.6683    1771.4747    1143.9312    2.1591824    29.602246   0.16760268 
  191900   -944.80837    44.102346   -900.70602    1579.5861     9530.288    2.1927698     29.42756   0.16208394 
  192000   -943.92767     47.17303   -896.75464    1689.5669    -2033.702    2.1613947    25.357845   0.17209235 
  192100   -941.05503     47.93572   -893.11931    1716.8836   -6344.5736    2.1485584    28.427475   0.18138979 
  192200   -946.53381    46.764177   -899.76964    1674.9232    5994.8106    2.1885309    24.932788   0.15283999 
  192300   -946.84508    47.962083     -898.883    1717.8279    4431.2598    2.1836302    27.156513   0.15801693 
  192400   -941.35132    48.575138   -892.77618    1739.7853   -9727.6712    2.1412326    22.589626   0.16013546 
  192500   -944.77899      46.6158   -898.16319    1669.6089   -1726.7586    2.1673802    27.529683   0.16741501 
  192600   -947.22049    48.456801   -898.76368    1735.5469    8114.5379    2.1969205    27.750576   0.18912147 
  192700   -937.61476    47.495813   -890.11895    1701.1278   -2154.5349     2.150692    26.350148   0.16998537 
  192800   -944.07355    47.082315   -896.99124    1686.3178   -10738.496    2.1433154    25.883384   0.15171666 
  192900   -943.50448    45.984408   -897.52007    1646.9947    7997.0798    2.1863768    29.130007   0.17606367 
  193000   -942.97868     54.27266   -888.70602    1943.8499    6646.5963    2.1825975    25.098415    0.1636294 
  193100   -940.72013    46.201097   -894.51903    1654.7558   -9619.8184    2.1384748    27.086133   0.17615428 
  193200   -941.42382    43.553192   -897.87063    1559.9174   -4395.9465     2.154107    32.839542   0.17046332 
  193300   -938.16691     47.80282   -890.36409    1712.1237    17202.253     2.198073    35.009591   0.17476313 
  193400   -944.54785    51.528321   -893.01953    1845.5576   -1848.1105     2.162623    30.059097   0.15972898 
  193500   -946.51812     46.49268   -900.02544    1665.1992   -9187.8277    2.1554489    26.943362   0.17121724 
  193600   -941.34783    47.109551   -894.23828    1687.2933    2420.2478    2.1723455    25.692102   0.18962264 
  193700   -943.17048    50.857342   -892.31313    1821.5256    1004.9105    2.1716815    37.960246      0.16982 
  193800   -947.73486    45.355213   -902.37964    1624.4593   -1633.6195     2.175583    38.828908   0.16603702 
  193900   -943.21648     46.65799   -896.55849      1671.12   -4302.2837    2.1552928    40.421335   0.14543578 
  194000   -940.75295    47.757358   -892.99559    1710.4954    2976.5541    2.1736834    40.610553   0.16319834 
  194100    -944.5501    45.084565   -899.46554    1614.7656      4224.96    2.1846746    26.170488   0.15424586 
  194200   -944.14047    43.390479   -900.74999    1554.0896   -4374.7971    2.1639868    25.188993   0.17170987 
  194300   -937.67725    44.547665   -893.12959    1595.5358   -695.17872    2.1585131    37.076925   0.17889867 
  194400   -941.85096    45.255977   -896.59498     1620.905    8011.2186    2.1893883    45.024266   0.17077717 
  194500   -945.49168    43.921106   -901.57058    1573.0947    2018.2094    2.1850288    42.067442   0.18298119 
  194600   -941.56366    50.195455    -891.3682    1797.8192   -10399.552    2.1370383    42.867891   0.14931537 
  194700   -947.58382     51.57861   -896.00521    1847.3587    2578.8826    2.1836929    42.037661   0.14936628 
  194800   -941.25993    43.038236    -898.2217    1541.4735    13303.718     2.203028    41.456334    0.1545599 
  194900   -941.96961    50.303211    -891.6664    1801.6786   -12167.572    2.1410603     42.18983   0.15315208 
  195000    -938.6863    45.267251   -893.41905    1621.3088   -8349.2842    2.1414984    45.939759   0.15608997 
  195100   -946.21317    48.597334   -897.61583    1740.5803    13295.106    2.2106021    42.928874    0.1545109 
  195200   -943.44269    47.966197   -895.47649    1717.9752    5083.0772    2.1798032    45.149638   0.15578718 
  195300   -940.22011    47.741186   -892.47893    1709.9162   -15308.035    2.1235241    45.237888   0.20075809 
  195400   -944.95534    42.695484   -902.25985    1529.1974    4520.7443    2.1855269    44.623147   0.17833632 
  195500   -942.10206    45.802135   -896.29992    1640.4664    8534.8951    2.1881405    44.702165   0.16956335 
  195600    -939.5416    45.445348   -894.09625    1627.6876   -1619.6407    2.1566551    44.450022   0.15240152 
  195700   -947.73424    44.712613   -903.02163    1601.4436   -2878.8606     2.170088     42.37787    0.1421201 
  195800    -943.8409     45.99532   -897.84558    1647.3855    3267.5228    2.1815325    41.834046   0.15555018 
  195900   -942.28209    48.575018   -893.70707     1739.781    620.71947    2.1700514    45.907276    0.1550503 
  196000   -948.39353    47.010964   -901.38257    1683.7622   -7364.4099     2.163617    44.008335   0.13945914 
  196100   -945.29069    47.356368   -897.93432    1696.1334   -641.18057    2.1707469    45.369406   0.15746121 
  196200   -941.55892    49.150192   -892.40873    1760.3816    5492.4336    2.1781909    40.753572    0.1753752 
  196300   -944.95035    45.208557   -899.74179    1619.2066   -2387.0883    2.1670692    42.921874   0.16172231 
  196400   -941.81806    45.022831   -896.79523    1612.5545   -3595.6769    2.1583978    42.472853   0.19090788 
  196500   -941.49285    51.065049    -890.4278    1828.9649    4494.5713    2.1692964     41.17241   0.15589941 
  196600   -944.30134    46.166844   -898.13449    1653.5289     6736.143    2.1850627     42.44316   0.15280208 
  196700   -939.44146    40.637883   -898.80358    1455.5016   -4813.9339      2.15258    42.508415   0.15823979 
  196800   -942.31139    51.548772   -890.76262    1846.2901   -5127.9302    2.1487054    44.788259   0.13414289 
  196900   -948.30386    50.142034   -898.16183    1795.9058    12281.099    2.2076593    44.989158   0.14089534 
  197000   -946.83667    47.536208   -899.30046    1702.5746   -1739.0845    2.1698968    42.138196   0.14265241 
  197100   -941.14644    47.776593   -893.36984    1711.1843   -12940.313    2.1275475    45.522824   0.16108042 
  197200   -942.46887    45.135707   -897.33316    1616.5974    6588.9878    2.1848627    40.856377   0.16276038 
  197300   -950.57621    50.066127   -900.51009    1793.1871    9523.6815     2.206571    43.978363   0.16148541 
  197400   -943.67847    49.223999   -894.45447    1763.0251    -7272.982    2.1477128    42.873291   0.16704414 
  197500   -941.92417    46.956971    -894.9672    1681.8284   -5342.7708    2.1524927    42.035715   0.15022786 
  197600   -944.91204    43.651818   -901.26022    1563.4498    10451.573    2.2018949    43.230114   0.14639088 
  197700   -940.45227    47.877006   -892.57526    1714.7807    2436.0681    2.1670903    42.290507   0.15124516 
  197800   -943.42869     48.36271   -895.06598    1732.1769    -6584.577    2.1538147    47.907519   0.15058318 
  197900   -947.21858    46.191333   -901.02724     1654.406    -566.0457    2.1761194    44.530735   0.15983468 
  198000   -946.65705    52.708482   -893.94857    1887.8267    1344.7903    2.1779381    41.930235   0.16150279 
  198100   -944.81701    51.246046   -893.57096    1835.4475   -2384.2792    2.1641053    43.180292   0.18897532 
  198200   -947.10473    46.155012   -900.94971    1653.1052   -6453.8758    2.1644223    43.369528   0.14931041 
  198300   -939.11835    44.693835   -894.42451    1600.7711    4853.3972    2.1772238    43.309131   0.17125923 
  198400   -940.46416    48.989992   -891.47416    1754.6439    5026.8608    2.1728116      43.2598   0.16308568 
  198500   -947.05811    46.241213    -900.8169    1656.1925   -3787.2315    2.1688024    44.583567   0.13253957 
  198600   -946.83493     50.74825   -896.08668    1817.6183   -3561.4649    2.1641951     40.61105   0.14740973 
  198700   -941.31275     50.40007   -890.91268    1805.1477    5193.9545    2.1774125    45.714055   0.15351792 
  198800   -945.47874    44.751275   -900.72746    1602.8284    5510.3167    2.1897803    46.951196   0.15886337 
  198900   -941.09527    44.349593   -896.74567    1588.4416   -11401.673    2.1386659     44.32824   0.17378935 
  199000    -948.4461     55.04795   -893.39815    1971.6179   -4632.6961    2.1673073    43.392418   0.15851524 
  199100   -948.97382    50.208357   -898.76546    1798.2813    13390.415    2.2171494    45.711635   0.14835569 
  199200   -949.34898    47.581442   -901.76754    1704.1947   -8150.5766     2.163981    41.982803    0.1489273 
  199300   -938.29296    45.161133   -893.13183     1617.508   -10127.683    2.1328406    40.056511   0.14433279 
  199400   -941.54968    44.499307   -897.05038    1593.8038    11576.434    2.1977227    40.217724   0.15839344 
  199500   -947.67434    47.700852   -899.97349    1708.4715    6534.7461    2.1954414     45.25071   0.14467076 
  199600    -941.6547    49.883612   -891.77109    1786.6501   -10222.724    2.1386283    43.802009   0.16337532 
  199700   -943.04483    45.628601   -897.41623     1634.251   -2392.5858    2.1665073    41.034974   0.16991472 
  199800   -943.02824    43.976018   -899.05222    1575.0615    9872.3925    2.1961933    45.673666   0.16082872 
  199900   -939.88077     48.00374   -891.87703    1719.3199     1924.806    2.1648521    43.193126    0.1647329 
  200000   -939.69715    43.821186   -895.87596     1569.516   -4773.3653    2.1490719    45.063194   0.15463879 
  200100   -944.73675    44.447594   -900.28915    1591.9516    1334.7273    2.1781423    40.587406   0.15382912 
  200200   -938.72808    46.729272   -891.99881    1673.6731     7745.112    2.1810682    44.372833   0.15973503 
  200300    -942.1834    45.833913   -896.34949    1641.6045   -3072.6807    2.1610827    46.097103   0.16645435 
  200400   -945.82029    44.045625   -901.77466    1577.5546   -4833.0801    2.1641784    44.685819   0.13219712 
  200500   -943.15927     50.05387    -893.1054    1792.7481    3501.7458    2.1755458    45.898843   0.15877198 
  200600    -945.3861    49.455452   -895.93065    1771.3149    4593.3609    2.1835788    45.715413   0.15848529 
  200700   -948.67344    46.015823   -902.65762    1648.1199   -7304.8239    2.1606198    44.675308   0.16248806 
  200800   -944.99368    50.516354   -894.47733    1809.3126   -4473.2045    2.1572978    47.998502    0.1671847 
  200900   -947.01643    53.615752   -893.40068    1920.3218    15475.561    2.2076587    41.345299   0.15268857 
  201000    -944.1212     43.13754   -900.98366    1545.0303    2061.8338    2.1797099    43.736768   0.14770213 
  201100    -941.4656    46.557809   -894.90779    1667.5319   -18791.243     2.114159    47.966487   0.16023502 
  201200   -942.21566    50.249317   -891.96634    1799.7483    7361.6082    2.1822991    45.104927   0.16234076 
  201300   -942.23366    44.826306   -897.40735    1605.5157    15259.933    2.2061198    44.122139   0.15820081 
  201400   -946.15112    47.092025    -899.0591    1686.6656   -9241.2414    2.1519632    47.714478   0.16971901 
  201500   -935.78348     45.87941   -889.90407    1643.2341   -5152.8807    2.1412577    45.243482   0.17793614 
  201600   -945.21366    47.777109   -897.43655    1711.2028    8521.1497    2.1919857    45.573386   0.17504908 
  201700   -944.65044    45.707999   -898.94244    1637.0948    1580.8426    2.1740784    42.187144   0.16522479 
  201800   -939.15668    47.412752   -891.74393    1698.1528   -6320.9622    2.1458709    44.104171   0.15636437 
  201900   -946.21013    47.500316   -898.70981    1701.2891    666.12012    2.1758318    47.716881   0.13692298 
  202000   -946.29694    46.838603   -899.45834    1677.5889    3875.8428    2.1846372    45.787823   0.14425354 
  202100   -942.06855    48.564625   -893.50392    1739.4087     -2191.13    2.1591034    45.622069   0.15250797 
  202200   -942.77782    46.599277   -896.17854    1669.0171   -4408.3622    2.1581627    45.175385   0.16886198 
  202300   -948.18127    46.910704   -901.27057    1680.1713    4130.6158    2.1894902    46.349736   0.14373553 
  202400    -941.0943    48.103938   -892.99036    1722.9086    5018.3499    2.1733814    41.701366   0.15550045 
  202500   -942.76005    45.857477   -896.90257    1642.4485   -7795.1596    2.1486028    39.632103   0.17718667 
  202600    -944.3966    41.846494   -902.55011    1498.7897    230.69893    2.1727602    38.624801    0.1596439 
  202700   -945.87659    52.692411   -893.18418    1887.2511    10724.851     2.194328    49.075476   0.14551067 
  202800   -943.58895    48.845203   -894.74374     1749.458    1295.7047    2.1694865    46.420094   0.14763484 
  202900   -941.01055    39.629079   -901.38147    1419.3699   -10409.051    2.1382231    44.429917   0.14271529 
  203000   -943.77506    48.681465   -895.09359    1743.5935    3185.7923    2.1793522    40.833007   0.14696757 
  203100   -941.54653    50.573052   -890.97348    1811.3433    12032.105    2.1947522    44.980724   0.17721651 
  203200   -945.45297    45.709521   -899.74345    1637.1493   -4520.7245    2.1582899     42.36773   0.15574724 
Loop time of 142.57 on 1 procs for 200000 steps with 217 atoms

Performance: 363.611 ns/day, 0.066 hours/ns, 1402.820 timesteps/s
100.0% CPU use with 1 MPI tasks x no OpenMP threads

MPI task timing breakdown:
Section |  min time  |  avg time  |  max time  |%varavg| %total
---------------------------------------------------------------
Pair    | 136.68     | 136.68     | 136.68     |   0.0 | 95.87
Neigh   | 2.6882     | 2.6882     | 2.6882     |   0.0 |  1.89
Comm    | 0.93254    | 0.93254    | 0.93254    |   0.0 |  0.65
Output  | 0.071167   | 0.071167   | 0.071167   |   0.0 |  0.05
Modify  | 1.8701     | 1.8701     | 1.8701     |   0.0 |  1.31
Other   |            | 0.3238     |            |       |  0.23

Nlocal:    217 ave 217 max 217 min
Histogram: 1 0 0 0 0 0 0 0 0 0
Nghost:    953 ave 953 max 953 min
Histogram: 1 0 0 0 0 0 0 0 0 0
Neighs:    4081 ave 4081 max 4081 min
Histogram: 1 0 0 0 0 0 0 0 0 0
FullNghs:  8162 ave 8162 max 8162 min
Histogram: 1 0 0 0 0 0 0 0 0 0

Total # of neighbors = 8162
Ave neighs/atom = 37.6129
Neighbor list builds = 4525
Dangerous builds = 73
Total wall time: 0:02:24
