LAMMPS (3 Mar 2020)

    # ---------- Initialize simulation ---------------------
    units metal
    atom_style atomic
    dimension  3
    boundary   p p p
    read_data /home/modeler/RemLabs/Lab4/Problem2A_size_3/temp_1900/lammps.data
  orthogonal box = (0 0 0) to (12.27 12.27 12.27)
  1 by 1 by 1 MPI processor grid
  reading atoms ...
  108 atoms
  read_data CPU = 0.000894304 secs

    pair_style eam
    pair_coeff * * /usr/share/lammps-stable/potentials/Ag_u3.eam
Reading potential file /usr/share/lammps-stable/potentials/Ag_u3.eam with DATE: 2007-06-11

    velocity  all create 1900 87287 dist gaussian

    # ---------- Describe computed properties------------------
    compute msdall all msd
    thermo_style custom step pe ke etotal temp press density c_msdall[4]
    thermo 100

    # ---------- Specify ensemble  ---------------------
    #fix  1 all nve
    fix  1 all nvt temp 1900 1900 0.25

    # --------- Compute RDF ---------------
    compute rdfall all rdf 100 1 1
    fix 2 all ave/time 1 25000 25000 c_rdfall[*] file /home/modeler/RemLabs/Lab4/Problem2A_size_3/temp_1900/lammps.rdf mode vector

    # --------- Run -------------
    timestep 0.005
    run 100000
Neighbor list info ...
  update every 1 steps, delay 10 steps, check yes
  max neighbors/atom: 2000, page size: 100000
  master list distance cutoff = 7.55
  ghost atom cutoff = 7.55
  binsize = 3.775, bins = 4 4 4
  2 neighbor lists, perpetual/occasional/extra = 1 1 0
  (1) pair eam, perpetual
      attributes: half, newton on
      pair build: half/bin/atomonly/newton
      stencil: half/bin/3d/newton
      bin: standard
  (2) compute rdf, occasional, copy from (1)
      attributes: half, newton on
      pair build: copy
      stencil: none
      bin: none
Per MPI rank memory allocation (min/avg/max) = 3.723 | 3.723 | 3.723 Mbytes
Step PotEng KinEng TotEng Temp Press Density c_msdall[4] 
       0       -307.8    26.278587   -281.52141         1900    15194.477    10.472245            0 
     100   -291.08737    19.305376     -271.782    1395.8214    69273.473    10.472245   0.09137508 
     200    -281.6534    24.643053   -257.01035    1781.7472    103169.22    10.472245   0.11938715 
     300   -279.30623    29.759445   -249.54678    2151.6737    111979.23    10.472245   0.17938334 
     400   -282.44411     25.20686   -257.23725    1822.5117    101117.09    10.472245   0.17119128 
     500   -281.17101    24.512571   -256.65844    1772.3131    103351.76    10.472245   0.14744977 
     600   -279.72351    27.965054   -251.75846    2021.9353    110495.38    10.472245   0.15456856 
     700   -282.58677    24.226172    -258.3606    1751.6058    97552.505    10.472245   0.14711154 
     800   -280.16273    23.561285   -256.60144     1703.533    106565.99    10.472245   0.16515829 
     900   -281.94272    26.920969   -255.02175    1946.4456    100876.72    10.472245   0.17231501 
    1000   -278.23603     26.74554   -251.49049    1933.7617     113476.2    10.472245   0.21499805 
    1100   -279.53691    26.431244   -253.10566    1911.0374    110944.87    10.472245   0.18292379 
    1200   -282.78791    26.154758   -256.63315    1891.0469     99124.06    10.472245   0.13791371 
    1300   -277.95378    27.078919   -250.87486    1957.8657    114921.19    10.472245   0.15584907 
    1400   -278.52274    26.102198   -252.42054    1887.2466    112816.81    10.472245   0.17076421 
    1500   -280.73238    26.003489   -254.72889    1880.1098    105566.64    10.472245   0.15418652 
    1600   -280.44487    22.673717   -257.77116    1639.3599    106553.54    10.472245   0.16271798 
    1700   -279.77468     25.72139   -254.05329    1859.7134    108744.03    10.472245    0.1541539 
    1800   -282.96429    30.628957   -252.33533    2214.5414    101307.18    10.472245   0.11786944 
    1900   -281.43883    23.022611   -258.41621    1664.5857    100142.17    10.472245   0.19494543 
    2000   -282.70054    28.650892   -254.04965    2071.5229    101358.04    10.472245   0.14579247 
    2100   -282.11277    27.556982   -254.55579    1992.4308     102928.8    10.472245   0.15823433 
    2200   -282.60591    21.254463   -261.35145    1536.7447    98159.789    10.472245   0.17202822 
    2300   -281.01235    26.777457    -254.2349    1936.0693    105403.44    10.472245    0.1579465 
    2400   -281.99173    27.541224   -254.45051    1991.2914    99639.703    10.472245   0.13017449 
    2500    -285.2758    25.129581   -260.14622    1816.9243    92488.967    10.472245   0.10674082 
    2600    -280.8601    25.889254   -254.97085    1871.8503    105642.87    10.472245   0.14901386 
    2700    -280.4154    25.430078   -254.98532    1838.6509    105603.71    10.472245    0.1605834 
    2800   -282.99196    24.048911   -258.94305    1738.7895    98013.981    10.472245   0.13033836 
    2900   -282.84239    26.909045   -255.93334    1945.5835     96118.34    10.472245   0.13501334 
    3000    -282.3478    29.113674   -253.23412     2104.983    102858.65    10.472245   0.14528781 
    3100   -283.73844    23.634203   -260.10424    1708.8051    95415.305    10.472245   0.15165053 
    3200   -281.56016    25.387089   -256.17307    1835.5427    103893.23    10.472245   0.14447122 
    3300   -280.43324    26.008085   -254.42515    1880.4421    105227.48    10.472245   0.14981117 
    3400   -283.89964    27.134303   -256.76533    1961.8701    96139.698    10.472245    0.1271512 
    3500   -278.65601    24.825813    -253.8302    1794.9612    110739.76    10.472245   0.16442253 
    3600   -279.41207      26.7882   -252.62387    1936.8461    108105.42    10.472245   0.16106049 
    3700   -283.79838    26.830404   -256.96798    1939.8976    96210.116    10.472245   0.12960695 
    3800   -277.70732    25.045855   -252.66146    1810.8707    115224.57    10.472245   0.17110598 
    3900   -278.36853    29.526063   -248.84246    2134.7997    115646.19    10.472245    0.2031294 
    4000   -282.35698    24.526454   -257.83052    1773.3169    98016.371    10.472245   0.15185067 
    4100   -280.98826    26.116172   -254.87208     1888.257     104178.4    10.472245   0.14249403 
    4200   -278.01912    26.663176   -251.35594    1927.8066    111612.76    10.472245    0.1731159 
    4300   -283.05759    28.578101   -254.47949    2066.2599     99804.19    10.472245   0.14644343 
    4400   -280.83328    23.757331   -257.07595    1717.7076    102151.58    10.472245   0.14797238 
    4500   -282.75442    23.381484   -259.37294     1690.533    97837.416    10.472245    0.1206184 
    4600   -280.71779    28.215546   -252.50224    2040.0464     105291.3    10.472245   0.16356867 
    4700   -280.57212    24.630358   -255.94177    1780.8294    104138.44    10.472245   0.17600677 
    4800   -284.79708    23.415236   -261.38184    1692.9733    92213.763    10.472245    0.1194665 
    4900   -280.56064    25.781542    -254.7791    1864.0625    104884.18    10.472245   0.18304878 
    5000   -281.04171    27.374992   -253.66672    1979.2725    106487.68    10.472245   0.14904148 
    5100   -283.81463     23.49205   -260.32258    1698.5271    93494.205    10.472245   0.12727307 
    5200   -282.66626    25.891343   -256.77492    1872.0014     99509.96    10.472245   0.14591994 
    5300   -280.67851    26.690926   -253.98758     1929.813    107858.35    10.472245   0.15338722 
    5400   -282.87482    30.099762   -252.77505    2176.2793    99445.139    10.472245   0.16498807 
    5500   -280.34435    23.024581   -257.31977    1664.7281     104297.7    10.472245   0.16476843 
    5600   -281.73214    26.579761   -255.15238    1921.7755    103797.76    10.472245   0.15308016 
    5700   -274.79255     23.21963   -251.57292    1678.8306    123156.87    10.472245   0.22372425 
    5800   -283.69912    27.894882   -255.80423    2016.8616    95931.698    10.472245   0.13165024 
    5900   -282.10139    26.510215   -255.59118    1916.7472    99973.844    10.472245   0.16529679 
    6000   -279.25022    25.308666   -253.94156    1829.8726     111533.6    10.472245   0.17958131 
    6100   -276.34716    31.414636   -244.93253    2271.3477     122320.4    10.472245   0.21854612 
    6200   -280.25655    26.322409   -253.93414    1903.1684    105558.48    10.472245   0.17872449 
    6300   -280.63572    23.080337   -257.55538    1668.7594    105197.17    10.472245   0.16141633 
    6400   -279.85509    28.257285    -251.5978    2043.0642    109159.86    10.472245   0.15457837 
    6500   -281.36272    27.929008   -253.43371     2019.329    104086.76    10.472245   0.15979949 
    6600   -282.80537    25.564339   -257.24104    1848.3582    99148.337    10.472245   0.14077809 
    6700   -278.95303    26.614077   -252.33895    1924.2567    111989.93    10.472245   0.14278537 
    6800   -280.89387    22.488859   -258.40502    1625.9942    103198.44    10.472245   0.15717506 
    6900   -282.11907    25.412862   -256.70621    1837.4061    99763.512    10.472245   0.15183566 
    7000   -279.67335    26.547077   -253.12627    1919.4124    110681.28    10.472245   0.16886373 
    7100    -282.7675    27.294284   -255.47322    1973.4371    97262.043    10.472245   0.13794003 
    7200   -287.41752     24.84798   -262.56954    1796.5639    83060.834    10.472245    0.1197528 
    7300   -282.88592    25.671531   -257.21439    1856.1085     99437.74    10.472245    0.1441021 
    7400   -279.92122    26.492622    -253.4286    1915.4752    109598.66    10.472245    0.1448231 
    7500   -280.30592    23.298394   -257.00753    1684.5254    105314.42    10.472245   0.15605697 
    7600   -285.29407    26.941649   -258.35242    1947.9408     91402.23    10.472245   0.12505772 
    7700    -278.3472    25.593557   -252.75365    1850.4708    111561.55    10.472245   0.15497179 
    7800   -281.39989    25.377886     -256.022    1834.8773    102282.96    10.472245   0.15190706 
    7900    -283.8832    23.747341   -260.13586    1716.9853    92628.121    10.472245   0.12307168 
    8000   -278.27561    25.353409    -252.9222    1833.1075     111848.8    10.472245   0.21015799 
    8100   -275.92884    23.148697   -252.78014     1673.702    119542.58    10.472245   0.27652221 
    8200   -285.39715    26.180718   -259.21643    1892.9238    90146.781    10.472245   0.13399915 
    8300   -280.70677    25.236668   -255.47011    1824.6669    104239.86    10.472245   0.14443927 
    8400   -281.92344     28.58438   -253.33906    2066.7139    101960.81    10.472245   0.13262573 
    8500   -283.92278    26.519546   -257.40323    1917.4218    93062.002    10.472245   0.16771352 
    8600   -282.49291     24.22973   -258.26318    1751.8631    97336.268    10.472245   0.15861062 
    8700   -281.84199    30.078138   -251.76385    2174.7159    103831.25    10.472245   0.17230337 
    8800   -284.45679    26.546541   -257.91025    1919.3737     95352.46    10.472245   0.16601449 
    8900   -281.49594    24.175829   -257.32011    1747.9659    102058.45    10.472245   0.14057047 
    9000   -280.26908    26.187879    -254.0812    1893.4416     106904.9    10.472245   0.17202495 
    9100   -282.69748    28.253736   -254.44375    2042.8076    100583.19    10.472245   0.16131774 
    9200   -281.06819    25.314665   -255.75353    1830.3063    103650.24    10.472245   0.14735198 
    9300    -280.0941    23.302765   -256.79133    1684.8415    106501.63    10.472245   0.15498497 
    9400   -278.28298    25.692344   -252.59064    1857.6133     113319.1    10.472245   0.16667036 
    9500   -280.30966    24.828619   -255.48104    1795.1641    104908.73    10.472245     0.159848 
    9600   -285.40927    27.482956   -257.92632    1987.0785    91251.474    10.472245   0.12386578 
    9700   -278.91579    24.025725   -254.89006     1737.113    109649.85    10.472245    0.1538641 
    9800   -282.01207    26.651105   -255.36097    1926.9338    101460.81    10.472245   0.15346703 
    9900   -281.25544    28.641918   -252.61352    2070.8741    105005.39    10.472245   0.14422474 
   10000   -279.41628    24.875153   -254.54112    1798.5286    107439.75    10.472245   0.17853957 
   10100   -282.80875    23.781149    -259.0276    1719.4297    96742.966    10.472245   0.13666947 
   10200   -278.55724    27.735018   -250.82222    2005.3031    109881.65    10.472245   0.20212719 
   10300   -282.36274    26.860766   -255.50198    1942.0928    101868.34    10.472245   0.11623259 
   10400   -282.38593    25.542221   -256.84371    1846.7591    100079.32    10.472245   0.15850347 
   10500   -279.29604    25.569608   -253.72644    1848.7392    107962.56    10.472245   0.16119669 
   10600   -281.49394    21.500811   -259.99313    1554.5562    97828.711    10.472245   0.14724436 
   10700   -280.52046    23.869146   -256.65131    1725.7921    103932.88    10.472245   0.17302236 
   10800   -280.64535    26.627304   -254.01805     1925.213    106269.28    10.472245   0.17777931 
   10900   -281.82182    23.163722    -258.6581    1674.7883    101151.57    10.472245   0.14932584 
   11000   -283.03802    25.219552   -257.81847    1823.4294    96977.037    10.472245   0.12048825 
   11100   -282.33514     28.48461   -253.85053    2059.5003    102240.13    10.472245   0.14007275 
   11200   -282.60205    26.276457   -256.32559    1899.8459    100920.15    10.472245   0.14066081 
   11300   -281.45321    27.901882   -253.55133    2017.3678    102832.59    10.472245   0.16826246 
   11400   -279.07465    26.774719   -252.29993    1935.8714    109486.58    10.472245   0.17870529 
   11500   -285.32544    27.023135    -258.3023    1953.8324    92134.264    10.472245   0.11285239 
   11600    -281.1825     27.24728   -253.93522    1970.0386    104968.56    10.472245       0.1393 
   11700   -280.35196    26.582426   -253.76954    1921.9682    108276.67    10.472245   0.16109213 
   11800   -282.74842    26.555627   -256.19279    1920.0306    97761.123    10.472245   0.15428424 
   11900   -282.69089    24.527875   -258.16301    1773.4196    97389.529    10.472245   0.11517362 
   12000   -279.31091    25.109032   -254.20187    1815.4386    110397.48    10.472245   0.18437068 
   12100   -278.32819    26.288614   -252.03958    1900.7249    113550.35    10.472245   0.15575299 
   12200    -283.9699    25.235832   -258.73407    1824.6065    95723.812    10.472245   0.14494449 
   12300   -281.27908    27.755398   -253.52368    2006.7766    104261.31    10.472245   0.14368464 
   12400   -280.17723    24.815788   -255.36144    1794.2364    106437.33    10.472245   0.14657543 
   12500    -283.3792    24.053128   -259.32607    1739.0944    96079.702    10.472245   0.15578867 
   12600   -281.34093     27.26996   -254.07097    1971.6784     100852.3    10.472245   0.17758532 
   12700   -281.49928    26.823243   -254.67604    1939.3798    104288.56    10.472245   0.17261444 
   12800   -287.08352    26.053128    -261.0304    1883.6988     85733.74    10.472245   0.11762757 
   12900   -282.45181    27.906548   -254.54526    2017.7052    100429.98    10.472245    0.1297574 
   13000   -281.95897    26.419451   -255.53952    1910.1848    101240.29    10.472245   0.13340468 
   13100   -283.55467    23.459478   -260.09519    1696.1722    95536.718    10.472245   0.13964404 
   13200   -280.19114    26.031258   -254.15988    1882.1175    105999.04    10.472245   0.15853624 
   13300    -278.5765    25.044473   -253.53203    1810.7708    111026.57    10.472245   0.15010916 
   13400   -284.70117    24.889591   -259.81158    1799.5725    92253.268    10.472245   0.13162234 
   13500   -282.99454    25.533262   -257.46128    1846.1113     98340.16    10.472245   0.12061367 
   13600   -282.01394    29.740619   -252.27332    2150.3125     105241.8    10.472245   0.16420273 
   13700   -283.06964    25.455223   -257.61441    1840.4689    98614.069    10.472245   0.15662753 
   13800   -285.00442    28.022586   -256.98183     2026.095    92305.072    10.472245   0.14192411 
   13900    -280.2884    25.832461   -254.45594    1867.7441       108928    10.472245   0.15900085 
   14000   -283.23073    26.199915   -257.03081    1894.3118    97868.836    10.472245   0.13626663 
   14100   -283.73741    23.141461   -260.59595    1673.1788    93864.938    10.472245   0.12554051 
   14200   -281.01721    27.550587   -253.46662    1991.9684    106352.49    10.472245   0.14075167 
   14300   -282.71791    25.567846   -257.15006    1848.6118    98049.463    10.472245   0.17287317 
   14400   -280.78616    25.156905   -255.62926    1818.8999    102994.61    10.472245   0.15097739 
   14500   -282.48137    30.809582   -251.67179    2227.6009     103708.3    10.472245   0.13505159 
   14600   -282.77354    25.153349   -257.62019    1818.6428    98990.937    10.472245   0.13579628 
   14700   -281.91537    26.079134   -255.83623     1885.579       101089    10.472245   0.13088116 
   14800   -277.04036    26.230691   -250.80967     1896.537    117456.96    10.472245   0.16096701 
   14900   -278.37839    28.012006   -250.36639      2025.33    115000.33    10.472245   0.17031061 
   15000   -281.24614    25.880122   -255.36602    1871.1901    104969.26    10.472245    0.1718952 
   15100   -280.37043    26.562447   -253.80798    1920.5237    106984.84    10.472245    0.1359705 
   15200   -278.03301    23.907998   -254.12501    1728.6011     115570.1    10.472245   0.14606401 
   15300   -284.46365    25.261191   -259.20246      1826.44    92262.227    10.472245   0.12483276 
   15400   -277.69169    25.844942   -251.84674    1868.6464    116123.06    10.472245   0.14574409 
   15500   -281.54631    25.786373   -255.75993    1864.4118    103731.57    10.472245   0.13042364 
   15600   -282.63162    24.112948   -258.51868    1743.4195    98470.829    10.472245   0.11338208 
   15700   -279.41328    28.534475   -250.87881    2063.1057    109138.58    10.472245   0.16241758 
   15800   -280.26266     23.61103   -256.65163    1707.1297    103051.24    10.472245   0.17042638 
   15900   -280.78244    24.333081   -256.44936    1759.3356    102917.96    10.472245   0.16045373 
   16000   -281.34856    26.469256    -254.8793    1913.7858    103919.92    10.472245   0.16574298 
   16100   -280.91031     28.02956   -252.88075    2026.5992    104776.25    10.472245   0.15970378 
   16200   -281.85911    26.377406    -255.4817    1907.1448    101996.44    10.472245   0.15087826 
   16300   -283.31219     24.32021   -258.99198     1758.405    95891.973    10.472245   0.13845719 
   16400   -278.90545    27.562039   -251.34341    1992.7964    111983.12    10.472245    0.1674029 
   16500    -282.3154    26.621348   -255.69405    1924.7823    98635.191    10.472245   0.18770503 
   16600   -284.58465    24.318971   -260.26568    1758.3154    92406.743    10.472245   0.15476491 
   16700   -280.82302    22.362587   -258.46043    1616.8645    102816.86    10.472245   0.16186214 
   16800   -279.72489    26.881885     -252.843    1943.6198    108286.28    10.472245   0.14405458 
   16900   -280.63538    23.937588   -256.69779    1730.7405    106411.84    10.472245   0.15534075 
   17000   -283.86614    24.240641    -259.6255    1752.6519    95032.467    10.472245   0.14974674 
   17100   -277.59531    25.113695   -252.48161    1815.7757    115312.79    10.472245   0.16051916 
   17200   -280.23479    22.699856   -257.53494    1641.2498    107150.66    10.472245   0.20010789 
   17300   -281.40327    30.353493   -251.04978    2194.6247    104277.13    10.472245   0.15210958 
   17400   -283.22178    26.897351   -256.32443     1944.738     97824.68    10.472245   0.13398224 
   17500   -281.73216    25.153439   -256.57873    1818.6493    104518.15    10.472245   0.14270085 
   17600   -283.28123    31.504862   -251.77636    2277.8712     101478.8    10.472245    0.1528578 
   17700   -282.65681     24.57521    -258.0816    1776.8421    97572.351    10.472245   0.13167087 
   17800   -285.27875    28.628617   -256.65013    2069.9123    92064.886    10.472245   0.12023572 
   17900    -282.2333     28.09384   -254.13946    2031.2467    101224.55    10.472245   0.16528685 
   18000   -282.38279    25.463499   -256.91929    1841.0673    99202.828    10.472245   0.15482719 
   18100   -287.03894    24.433023   -262.60591    1766.5616    84095.331    10.472245   0.11978569 
   18200   -285.18455    28.583198   -256.60135    2066.6285    91811.425    10.472245   0.16061407 
   18300   -278.25868    26.807132   -251.45155    1938.2149    113111.09    10.472245   0.19138732 
   18400   -282.17521    24.407069   -257.76814    1764.6851    101024.07    10.472245   0.14367681 
   18500    -282.9858    26.395248   -256.59056    1908.4348    99845.877    10.472245   0.13689683 
   18600   -280.68873    28.745271   -251.94346    2078.3467    105824.22    10.472245   0.15628511 
   18700   -285.36202    24.547434   -260.81459    1774.8338    92958.478    10.472245   0.11251134 
   18800   -281.60705    25.189228   -256.41783    1821.2369    102931.51    10.472245   0.13229345 
   18900   -279.20432    24.889725   -254.31459    1799.5822    107701.76    10.472245   0.15513114 
   19000   -285.98709    24.541194   -261.44589    1774.3826    88007.977    10.472245   0.13297196 
   19100   -284.21738    26.918435   -257.29894    1946.2624    94337.755    10.472245   0.12648549 
   19200   -280.13492    25.347438   -254.78748    1832.6759    108557.74    10.472245   0.17111058 
   19300   -280.89548    30.165292   -250.73019    2181.0173    105737.86    10.472245   0.14997437 
   19400   -282.21262     25.93991   -256.27271    1875.5129    99957.234    10.472245   0.13791514 
   19500   -282.65029      25.9412   -256.70909    1875.6061     100157.8    10.472245   0.15872427 
   19600   -281.08445    27.735111   -253.34934    2005.3098    106650.82    10.472245   0.16763579 
   19700   -279.00471    23.779962   -255.22474    1719.3439    108721.08    10.472245   0.19195173 
   19800   -280.44677      26.4739   -253.97287    1914.1215     105085.2    10.472245   0.15650001 
   19900   -282.67011    25.430397   -257.23972     1838.674    99401.877    10.472245   0.16069514 
   20000   -282.12526    27.313062    -254.8122    1974.7948    102739.42    10.472245   0.16883563 
   20100   -277.74842    26.763158   -250.98526    1935.0355    115817.01    10.472245   0.16559363 
   20200   -281.57462    24.358511   -257.21611    1761.1742    103277.96    10.472245   0.15170288 
   20300   -280.29591    25.380826   -254.91509    1835.0899    105950.75    10.472245   0.13303956 
   20400   -277.40467    28.836169    -248.5685    2084.9188    116718.55    10.472245   0.17440806 
   20500   -279.55318    23.822088   -255.73109    1722.3897    107996.12    10.472245   0.15242031 
   20600   -281.65668     25.50482   -256.15186    1844.0549    101384.02    10.472245   0.12774639 
   20700   -277.97077       28.195   -249.77577    2038.5609    114868.92    10.472245   0.15168236 
   20800   -282.91719    26.173797    -256.7434    1892.4235    98626.511    10.472245   0.14424798 
   20900    -280.6366    24.431432   -256.20516    1766.4466    105287.91    10.472245   0.14153444 
   21000   -277.58223    26.727099   -250.85513    1932.4284    116178.79    10.472245   0.17722144 
   21100   -284.81937    27.006633   -257.81273    1952.6393    93206.393    10.472245   0.12009225 
   21200   -280.75843    24.432268   -256.32616     1766.507    103365.05    10.472245   0.13179631 
   21300   -280.51989    28.027869   -252.49202    2026.4769    106928.47    10.472245   0.14364024 
   21400   -285.05875    23.663902   -261.39484    1710.9525     90046.82    10.472245   0.13635276 
   21500   -280.67332    23.666581   -257.00674    1711.1462    102603.44    10.472245   0.14494553 
   21600    -281.6315    28.853577   -252.77792    2086.1774    103061.25    10.472245   0.17674836 
   21700   -283.72976    25.337774   -258.39198    1831.9771    96758.378    10.472245    0.1409023 
   21800   -283.65095    26.432721   -257.21823    1911.1442     97366.55    10.472245   0.13524138 
   21900   -281.34145    26.951352    -254.3901    1948.6423    103589.11    10.472245   0.16305344 
   22000   -281.30004      25.7165   -255.58354    1859.3599     104127.6    10.472245   0.15507762 
   22100   -282.92379    23.259739   -259.66405    1681.7306    95563.026    10.472245   0.13046552 
   22200   -278.62584    26.539883   -252.08596    1918.8922    109169.03    10.472245   0.14819445 
   22300   -283.06663    27.090818   -255.97581    1958.7261    97409.834    10.472245   0.14033798 
   22400   -282.97497    23.964359   -259.01061    1732.6762    96905.163    10.472245    0.1262738 
   22500    -279.6292    26.766047   -252.86315    1935.2444    109956.19    10.472245   0.18676692 
   22600   -281.60134    27.143345   -254.45799    1962.5239    103719.66    10.472245   0.13355859 
   22700    -285.1369    27.589533   -257.54737    1994.7842    92477.582    10.472245   0.12685372 
   22800   -281.25525    27.291264   -253.96399    1973.2188    102966.26    10.472245     0.153405 
   22900   -283.04419    26.729581   -256.31461    1932.6078    98502.196    10.472245   0.14986016 
   23000   -283.75593    24.421233    -259.3347    1765.7092     93937.68    10.472245   0.14213938 
   23100   -280.69394     27.48152   -253.21242    1986.9747    104783.72    10.472245    0.1411768 
   23200   -280.87316    23.402042   -257.47112    1692.0194    103420.68    10.472245   0.16706749 
   23300   -281.21895    20.737021   -260.48193    1499.3325    100982.37    10.472245   0.13797259 
   23400   -282.11424    25.728928   -256.38531    1860.2584    100834.88    10.472245   0.15363596 
   23500   -279.93922    27.823578   -252.11565    2011.7062    108142.03    10.472245   0.17796962 
   23600   -280.97981    21.974332   -259.00548    1588.7928     103818.1    10.472245    0.1875378 
   23700   -280.10033    24.984805   -255.11552    1806.4566    106135.09    10.472245   0.14946775 
   23800   -277.88893    25.232781   -252.65615    1824.3859    114995.77    10.472245   0.15625336 
   23900   -280.45224    25.581955   -254.87028    1849.6319       104602    10.472245   0.15241298 
   24000   -280.60959    23.949515   -256.66008    1731.6029    104735.78    10.472245   0.16499024 
   24100   -280.64913    28.116346   -252.53278     2032.874     107197.4    10.472245   0.15602646 
   24200   -282.35818    27.771552   -254.58662    2007.9446    103407.34    10.472245   0.15328991 
   24300    -283.9394    25.548987   -258.39041    1847.2483      94411.8    10.472245   0.14227869 
   24400   -282.08472    27.058187   -255.02653    1956.3667    102265.49    10.472245   0.15037335 
   24500   -280.12427    25.163364   -254.96091    1819.3669    108383.47    10.472245   0.18455467 
   24600   -280.82722    24.724329   -256.10289    1787.6237    104217.97    10.472245   0.16017767 
   24700   -281.37761    25.503109    -255.8745    1843.9312    103989.42    10.472245   0.15061863 
   24800   -276.49206     27.42202   -249.07004    1982.6727    119778.58    10.472245   0.19900619 
   24900   -280.15271     24.60884   -255.54387    1779.2736    105728.12    10.472245   0.16201543 
   25000   -281.71602    26.092957   -255.62306    1886.5785    101671.31    10.472245   0.15768276 
   25100   -278.29387     26.48303   -251.81084    1914.7817    113027.31    10.472245   0.18670745 
   25200   -278.22902    23.997892   -254.23113    1735.1006    112052.01    10.472245   0.16459575 
   25300   -282.15313    24.162869   -257.99026    1747.0289    98971.247    10.472245   0.15181408 
   25400    -281.0734    30.438247   -250.63515    2200.7526    105752.25    10.472245   0.13929127 
   25500   -279.05169    24.003096   -255.04859    1735.4769    109435.88    10.472245   0.17239637 
   25600   -281.47969    23.734954   -257.74474    1716.0896    101100.45    10.472245   0.16417998 
   25700   -278.22385    26.121327   -252.10252    1888.6297    114860.83    10.472245   0.16779453 
   25800   -281.26444    25.705864   -255.55857    1858.5908    105424.59    10.472245   0.15817325 
   25900   -279.57906    21.413831   -258.16523    1548.2673    105106.92    10.472245    0.1949591 
   26000   -280.98188    28.590797   -252.39108    2067.1779    104663.42    10.472245   0.15447498 
   26100   -280.91884    25.784218   -255.13462     1864.256    103092.46    10.472245   0.16734275 
   26200   -281.61306     25.64287   -255.97019    1854.0362    102745.73    10.472245   0.15023763 
   26300   -281.59375    26.430795   -255.16296     1911.005    102179.01    10.472245   0.16312832 
   26400    -281.7137    28.997247   -252.71646    2096.5651    101565.92    10.472245   0.14042692 
   26500   -283.87898     25.32622   -258.55276    1831.1417     95029.92    10.472245   0.12396614 
   26600   -280.58897    25.630142   -254.95883    1853.1159    107562.85    10.472245   0.14258171 
   26700   -280.95969    27.546073   -253.41362     1991.642    104275.67    10.472245   0.14196051 
   26800   -283.66804     25.58851   -258.07953    1850.1058     95069.72    10.472245   0.15758235 
   26900   -281.81564    32.420528   -249.39512    2344.0759    104846.58    10.472245   0.18669544 
   27000    -277.7172     24.88729   -252.82991    1799.4061    115942.26    10.472245   0.16391084 
   27100   -281.27371    23.275591   -257.99812    1682.8767    100711.23    10.472245   0.15301976 
   27200   -280.78194    29.165673   -251.61627    2108.7427    107122.93    10.472245   0.13597979 
   27300   -279.75553    26.324156   -253.43137    1903.2947    109019.65    10.472245    0.1576145 
   27400   -278.94776    22.854941   -256.09282    1652.4628    106622.53    10.472245   0.17160916 
   27500   -279.74451    25.051632   -254.69288    1811.2884    109205.69    10.472245   0.15965433 
   27600   -275.09829     24.84757   -250.25072    1796.5343    120762.02    10.472245   0.22620054 
   27700   -281.11917    24.237191   -256.88198    1752.4025    105015.11    10.472245   0.16858733 
   27800    -279.7759    24.895575   -254.88032    1800.0051    108904.42    10.472245   0.15542056 
   27900   -277.32112    30.294713   -247.02641    2190.3748    117755.01    10.472245   0.16980178 
   28000   -282.76817    28.950254   -253.81792    2093.1674    100539.83    10.472245   0.13387685 
   28100   -282.72013    24.993265   -257.72687    1807.0683    98830.976    10.472245   0.13788558 
   28200   -279.85333    28.479338   -251.37399    2059.1191    109107.48    10.472245   0.16660329 
   28300   -282.42461    28.912761   -253.51185    2090.4566    101728.21    10.472245   0.15829101 
   28400   -279.37592    23.076845   -256.29908     1668.507     107507.6    10.472245   0.14758036 
   28500   -277.36436    23.709368   -253.65499    1714.2398    112048.27    10.472245     0.182928 
   28600   -279.79935    30.944292   -248.85505    2237.3407    110007.56    10.472245   0.16633924 
   28700   -281.54528    25.288839   -256.25644     1828.439     101841.5    10.472245   0.14726896 
   28800   -281.99977    27.909281   -254.09049    2017.9028    103523.14    10.472245   0.15292127 
   28900   -282.47232     31.35574   -251.11658    2267.0894    102312.07    10.472245   0.16616614 
   29000   -283.69433    25.436609   -258.25772    1839.1231    94733.401    10.472245    0.1557041 
   29100   -281.35183     27.33987   -254.01196    1976.7331    102951.53    10.472245   0.15761224 
   29200   -279.18456    25.886703   -253.29785    1871.6659    108856.93    10.472245   0.21019377 
   29300   -283.28084    27.706772   -255.57407    2003.2609    99191.168    10.472245   0.15555852 
   29400   -284.06346    21.748918   -262.31454    1572.4949    91074.777    10.472245   0.12371675 
   29500   -280.66557    24.196844   -256.46873    1749.4853     103789.3    10.472245   0.17929779 
   29600   -279.46113    27.407266   -252.05387    1981.6059     110247.4    10.472245   0.16775712 
   29700   -283.64594    24.407848    -259.2381    1764.7414    95010.022    10.472245   0.12358901 
   29800    -281.3098    24.686198    -256.6236    1784.8668    102396.13    10.472245   0.15182084 
   29900   -276.73566    22.518631   -254.21703    1628.1468    116106.38    10.472245   0.21162995 
   30000    -280.6752    24.287199   -256.38801    1756.0182    102836.98    10.472245   0.15005146 
   30100   -281.73809    22.375975   -259.36212    1617.8325    100380.26    10.472245   0.15378737 
   30200   -279.45503    26.492871   -252.96216    1915.4932    109252.13    10.472245   0.15976006 
   30300   -281.88483    24.586551   -257.29828     1777.662     100780.2    10.472245   0.15365249 
   30400   -285.81441      27.4541   -258.36031    1984.9922    90180.907    10.472245   0.10650405 
   30500   -282.17148    27.507804   -254.66368     1988.875    99787.397    10.472245    0.1619857 
   30600   -278.71509    23.893071   -254.82202    1727.5219    109870.54    10.472245    0.1810878 
   30700   -282.65672    25.030082   -257.62664    1809.7303     99841.08    10.472245   0.16917328 
   30800   -279.68161    26.840887   -252.84072    1940.6555    109337.38    10.472245   0.14781521 
   30900    -280.0161    26.830557   -253.18554    1939.9086    109527.12    10.472245   0.15981084 
   31000   -284.37334    25.918241    -258.4551    1873.9462     95029.44    10.472245   0.13062985 
   31100   -279.87102    26.387338   -253.48368    1907.8629    108711.14    10.472245   0.15446136 
   31200   -283.28879    28.021571   -255.26722    2026.0216    98044.627    10.472245   0.14014103 
   31300   -283.80377    24.399613   -259.40416     1764.146    94835.761    10.472245   0.13698248 
   31400   -280.50189    27.320498   -253.18139    1975.3325    106872.56    10.472245   0.18263083 
   31500   -282.00411    28.433474   -253.57064    2055.8031    102211.12    10.472245   0.15612213 
   31600   -282.76626     23.87529   -258.89097    1726.2363    98109.092    10.472245    0.1440624 
   31700   -281.63127    28.734823   -252.89645    2077.5913    104261.64    10.472245    0.1366729 
   31800    -282.3242    28.094696    -254.2295    2031.3087    101568.52    10.472245   0.16975649 
   31900   -285.14693    24.874942   -260.27198    1798.5134     89801.83    10.472245   0.14254054 
   32000   -278.65736    22.073528   -256.58384    1595.9649    109470.51    10.472245   0.18721769 
   32100   -281.87621    28.490915   -253.38529    2059.9562       101739    10.472245     0.169683 
   32200   -281.55941    25.015737   -256.54367    1808.6931    101804.26    10.472245   0.15958945 
   32300   -283.80368     23.44229   -260.36139    1694.9294    96253.354    10.472245   0.13679687 
   32400   -279.98514    27.417663   -252.56747    1982.3577    109554.31    10.472245   0.13106011 
   32500   -281.57048    24.867361   -256.70312    1797.9652    101513.85    10.472245   0.14938211 
   32600   -284.99816    23.127268   -261.87089    1672.1527    90706.195    10.472245    0.1370472 
   32700   -281.26696    25.898316   -255.36865    1872.5055    103653.48    10.472245   0.12505933 
   32800   -278.40297    26.123643   -252.27932    1888.7972    112137.52    10.472245     0.181656 
   32900   -281.36637    24.887893   -256.47848    1799.4497    104371.45    10.472245   0.14248891 
   33000   -283.75923    25.945152   -257.81408    1875.8919    96406.724    10.472245   0.16040585 
   33100   -281.18002    28.314666   -252.86535     2047.213    106107.57    10.472245   0.16364444 
   33200   -283.96692    29.628051   -254.33887    2142.1736    97358.675    10.472245   0.13336041 
   33300   -284.87453    23.548382   -261.32614    1702.6001    91042.959    10.472245   0.13620381 
   33400   -281.90564    28.397056   -253.50858      2053.17    104241.29    10.472245    0.1289375 
   33500   -282.95421    27.480608    -255.4736    1986.9087     97203.24    10.472245   0.12953757 
   33600   -284.55845    25.353439   -259.20501    1833.1097    92919.461    10.472245    0.1409031 
   33700   -277.87118    26.590736   -251.28044     1922.569    112622.83    10.472245   0.22210521 
   33800   -280.79487    25.808098   -254.98677    1865.9826    104753.55    10.472245   0.17999459 
   33900   -282.55474    24.572478   -257.98227    1776.6445    97674.518    10.472245   0.13110974 
   34000   -281.14394    26.087508   -255.05644    1886.1845    103994.77    10.472245   0.12253435 
   34100    -279.4764    27.169291    -252.3071    1964.3999     110058.3    10.472245   0.14670832 
   34200   -279.50844    25.913214   -253.59522    1873.5827    108637.27    10.472245   0.17492025 
   34300   -284.65139    26.558349   -258.09304    1920.2274    94649.749    10.472245   0.13795971 
   34400   -282.31983    32.456962   -249.86286    2346.7102    102768.53    10.472245   0.14138461 
   34500   -279.45173    24.981173   -254.47055    1806.1941    107946.88    10.472245   0.16967337 
   34600   -283.39007     26.69157    -256.6985    1929.8595    97508.825    10.472245   0.12497577 
   34700   -279.21877    29.848802   -249.36997    2158.1344    109770.27    10.472245   0.16572216 
   34800   -279.43997    25.622238   -253.81773    1852.5445    106688.62    10.472245   0.17426591 
   34900   -281.87842    25.006288   -256.87213    1808.0099    101462.06    10.472245   0.16038896 
   35000   -279.27793    28.164364   -251.11357    2036.3458    109350.29    10.472245   0.17197074 
   35100   -278.30161    28.868898   -249.43271    2087.2852    115824.38    10.472245   0.17221726 
   35200   -283.44464     27.72562   -255.71902    2004.6236    98731.152    10.472245    0.1291955 
   35300    -283.4441    27.477926   -255.96617    1986.7149    96670.639    10.472245   0.13357813 
   35400   -275.62248      25.2414   -250.38108    1825.0091    122629.19    10.472245   0.18086234 
   35500   -282.35259    27.662061   -254.69053    2000.0282    100433.39    10.472245   0.16461329 
   35600   -281.12929    25.617495    -255.5118    1852.2016    103152.09    10.472245   0.14792745 
   35700   -284.03945    27.603566   -256.43589    1995.7989    94402.445    10.472245   0.13194587 
   35800   -280.80771    27.396701   -253.41101    1980.8421    105207.02    10.472245   0.15123093 
   35900    -277.8344    25.981461   -251.85294    1878.5171     113118.1    10.472245   0.19821372 
   36000   -283.57146    25.021416   -258.55005    1809.1037    96168.392    10.472245   0.12589488 
   36100   -281.42266     28.73799   -252.68467    2077.8203    104784.12    10.472245   0.18426828 
   36200   -280.99544    28.476946   -252.51849    2058.9462    107245.82    10.472245   0.15269573 
   36300   -286.15455    28.992996   -257.16156    2096.2578    90623.797    10.472245   0.11956199 
   36400   -282.24168    26.270651   -255.97103    1899.4262    100311.16    10.472245   0.13488076 
   36500   -278.82171    27.168054   -251.65365    1964.3104     111935.6    10.472245   0.17053491 
   36600   -285.74236    27.138633   -258.60373    1962.1832    90625.964    10.472245   0.13268319 
   36700   -284.06572    27.262014    -256.8037    1971.1039    96462.523    10.472245   0.12747617 
   36800   -279.79754     25.44794    -254.3496    1839.9424    106601.39    10.472245   0.14586906 
   36900   -279.31461    27.405307   -251.90931    1981.4643    110571.66    10.472245   0.15695442 
   37000   -281.71353    26.190167   -255.52336     1893.607    101892.17    10.472245   0.18351123 
   37100    -282.5716    23.875066   -258.69653    1726.2201    97820.027    10.472245   0.14447625 
   37200    -281.8682    31.333669   -250.53453    2265.4936    104866.48    10.472245   0.15394885 
   37300   -281.91864    25.684144    -256.2345    1857.0204    100734.68    10.472245   0.15684305 
   37400   -283.56321    27.393226   -256.16998    1980.5909    97475.835    10.472245   0.15414399 
   37500   -282.40268    27.906111   -254.49657    2017.6735    100586.22    10.472245   0.18737258 
   37600   -279.11983    25.901654   -253.21818    1872.7469    108514.83    10.472245   0.16453558 
   37700   -283.17309    24.551275   -258.62182    1775.1115    98531.589    10.472245   0.13403106 
   37800   -280.26889     27.38141   -252.88748    1979.7365    109301.12    10.472245   0.14671051 
   37900   -281.68895    27.855389   -253.83356    2014.0062    103687.79    10.472245   0.13792475 
   38000   -282.76347    27.335169    -255.4283    1976.3932       100447    10.472245   0.14158423 
   38100    -280.0085     27.03421   -252.97429    1954.6331    107638.53    10.472245    0.1709687 
   38200   -276.07235    26.490288   -249.58206    1915.3064    118489.35    10.472245   0.21278807 
   38300   -284.02689     26.58581   -257.44108    1922.2129    95054.206    10.472245   0.11331117 
   38400   -282.91903    29.212552   -253.70648    2112.1321    98364.679    10.472245   0.14391734 
   38500   -276.63229    24.675702   -251.95658    1784.1079    121378.66    10.472245   0.14572176 
   38600   -286.08267    27.686502   -258.39617    2001.7953    89005.726    10.472245   0.12277781 
   38700   -281.37282    29.639069   -251.73375    2142.9703    104107.09    10.472245   0.13102625 
   38800   -279.40242    24.772601   -254.62982    1791.1138    108399.85    10.472245    0.1568045 
   38900     -284.531    27.166111   -257.36489    1964.1699    92486.898    10.472245   0.11450792 
   39000   -280.14592    25.303683   -254.84224    1829.5122    105014.85    10.472245    0.1562221 
   39100    -278.9172    27.787691   -251.12951    2009.1116    109439.76    10.472245   0.16665303 
   39200   -283.27602    26.043675   -257.23235    1883.0153    95810.798    10.472245   0.14811415 
   39300   -283.42474    27.387838    -256.0369    1980.2013    98484.976    10.472245   0.12286556 
   39400   -277.30202    27.428761   -249.87326    1983.1601    115639.53    10.472245   0.16868724 
   39500   -283.73789    28.873102   -254.86479    2087.5891    98993.953    10.472245   0.14448191 
   39600   -283.23449     27.50715   -255.72734    1988.8278    98081.978    10.472245   0.18414006 
   39700   -276.49008    27.176982    -249.3131    1964.9559    120525.01    10.472245   0.16489211 
   39800   -282.62268    27.107711   -255.51497    1959.9474    101628.41    10.472245   0.15636091 
   39900   -283.20049    26.759376   -256.44112    1934.7621    98751.181    10.472245   0.12208154 
   40000   -276.52556    26.759264    -249.7663     1934.754    120853.98    10.472245   0.18527813 
   40100   -281.19695     24.32483   -256.87212     1758.739    103785.86    10.472245   0.14858285 
   40200   -281.08589    25.758234   -255.32765    1862.3773    104055.62    10.472245   0.17170907 
   40300    -278.7667    26.735267   -252.03143    1933.0189    113327.84    10.472245   0.14452671 
   40400   -283.55447    24.376287   -259.17818    1762.4595    93650.711    10.472245   0.13269231 
   40500   -281.91352    28.850884   -253.06264    2085.9827    102772.06    10.472245   0.14956914 
   40600    -279.8483    25.395071   -254.45323    1836.1198    108483.87    10.472245   0.15753959 
   40700   -284.70435    21.488502   -263.21585    1553.6662     92197.75    10.472245   0.13299792 
   40800   -283.69741    25.584776   -258.11264    1849.8359    94470.192    10.472245   0.15429034 
   40900   -280.56108    27.467403   -253.09368     1985.954    106146.23    10.472245   0.18687878 
   41000   -278.98239    24.071934   -254.91046    1740.4541    111268.38    10.472245   0.17315779 
   41100   -284.98035    26.447848    -258.5325    1912.2379    91971.643    10.472245   0.12854816 
   41200   -277.57223    24.130995   -253.44123    1744.7243       113914    10.472245   0.15065605 
   41300   -281.87869    26.476154   -255.40253    1914.2845    100058.81    10.472245   0.14880086 
   41400   -285.94189    23.754288    -262.1876    1717.4875    87727.035    10.472245   0.12907135 
   41500   -280.05662    24.153819    -255.9028    1746.3745    108461.19    10.472245   0.15964602 
   41600   -281.88612    27.019361   -254.86676    1953.5596    103067.34    10.472245   0.15469791 
   41700   -283.38709    28.369051   -255.01804    2051.1452    97265.901    10.472245   0.16265768 
   41800   -280.99245    24.266459   -256.72599    1754.5187    102422.91    10.472245   0.14678467 
   41900   -282.09614    26.093976   -256.00216    1886.6522    100318.22    10.472245   0.14626884 
   42000   -277.47209    27.264471   -250.20762    1971.2816    112077.52    10.472245   0.17871658 
   42100    -282.2052    23.974449   -258.23075    1733.4057    98557.162    10.472245   0.13448697 
   42200   -280.28904    25.288199   -255.00085    1828.3927    105505.11    10.472245    0.1495848 
   42300   -281.56151    30.210976   -251.35054    2184.3204    104725.84    10.472245   0.16010121 
   42400   -285.39745    25.951666   -259.44579    1876.3628    89946.156    10.472245   0.12743861 
   42500   -281.79725    28.555932   -253.24132    2064.6571    101605.74    10.472245   0.15367153 
   42600   -278.72232    25.870095   -252.85222    1870.4651    109636.36    10.472245   0.17226984 
   42700   -282.84098    23.370254   -259.47073    1689.7211    95824.279    10.472245    0.1305203 
   42800   -277.61138     23.84187   -253.76951      1723.82    111422.55    10.472245    0.1857832 
   42900   -280.61265    27.297455    -253.3152    1973.6664    109891.63    10.472245   0.18831204 
   43000   -281.45662    23.426759   -258.02986    1693.8065    103368.57    10.472245   0.13780997 
   43100   -285.08297    25.943493   -259.13948    1875.7719     91549.16    10.472245   0.12985634 
   43200   -278.39818    25.549902   -252.84828    1847.3144     112295.7    10.472245   0.17829665 
   43300   -284.57002    26.900214   -257.66981     1944.945    95186.586    10.472245   0.11190776 
   43400   -281.69051    25.789607    -255.9009    1864.6457    101856.69    10.472245   0.15473264 
   43500   -276.68491    25.838664   -250.84625    1868.1926    117333.43    10.472245   0.20114688 
   43600   -282.55827    24.978664   -257.57961    1806.0127    98334.908    10.472245   0.15079643 
   43700   -283.58819    28.076133   -255.51206    2029.9665    97816.969    10.472245   0.14402152 
   43800   -278.51464    29.211409   -249.30323    2112.0495    112478.07    10.472245   0.17428361 
   43900   -279.69146    31.720729   -247.97074    2293.4789    111133.81    10.472245   0.18006134 
   44000   -282.51698    26.580483    -255.9365    1921.8277    100249.43    10.472245   0.13287873 
   44100   -283.03234    25.761958   -257.27039    1862.6466    97606.742    10.472245   0.16180758 
   44200   -280.00597    29.180927   -250.82504    2109.8456    107288.64    10.472245   0.15367583 
   44300   -282.99809    27.703348   -255.29475    2003.0133    98058.323    10.472245   0.13603532 
   44400   -282.09101    26.580561   -255.51045    1921.8334    99518.269    10.472245   0.14947965 
   44500   -279.82886    28.302052   -251.52681    2046.3009    109730.65    10.472245   0.14990464 
   44600   -280.98916    27.134313   -253.85485    1961.8709    106087.89    10.472245   0.14318569 
   44700   -282.16934    24.787774   -257.38157    1792.2109     100646.3    10.472245   0.17290484 
   44800   -281.12914    27.190233    -253.9389     1965.914    104207.24    10.472245   0.13932586 
   44900   -281.22712    26.138618    -255.0885    1889.8799    104304.54    10.472245    0.1600701 
   45000   -282.49504    27.704995   -254.79005    2003.1324    102478.09    10.472245   0.13642875 
   45100   -281.43577    20.750259   -260.68551    1500.2896    100265.54    10.472245   0.14978415 
   45200   -282.35796    27.290919   -255.06704    1973.1938    102089.45    10.472245   0.14265961 
   45300   -280.83088     26.06148    -254.7694    1884.3027    107625.14    10.472245   0.16603277 
   45400   -283.84859    25.330447   -258.51814    1831.4473     94399.07    10.472245   0.12571274 
   45500   -284.56897    28.009297   -256.55967    2025.1341    95263.345    10.472245   0.14528522 
   45600   -279.11192    26.572819    -252.5391    1921.2736    112564.89    10.472245     0.150677 
   45700   -282.95364    25.419387   -257.53425    1837.8779     97383.49    10.472245   0.14595612 
   45800   -283.13083    19.432993   -263.69784    1405.0484    92790.782    10.472245   0.17418055 
   45900   -280.09542    23.973554   -256.12187     1733.341    104852.23    10.472245   0.17836003 
   46000    -279.9987    26.782431   -253.21627     1936.429    107474.52    10.472245   0.16415954 
   46100    -284.2001    25.799726   -258.40037    1865.3773    95753.445    10.472245   0.13310274 
   46200   -281.00539    26.040807   -254.96459     1882.808    102855.24    10.472245   0.15644993 
   46300     -281.188    27.574245   -253.61376    1993.6789    105854.62    10.472245   0.14648518 
   46400   -282.87214     24.06906   -258.80308    1740.2463    96839.125    10.472245    0.1398518 
   46500   -281.38121    24.335226   -257.04599    1759.4906    102391.38    10.472245   0.13975458 
   46600   -279.80153    27.108673   -252.69285     1960.017    108800.09    10.472245   0.16600332 
   46700   -285.11119    26.365251   -258.74593     1906.266    90331.908    10.472245   0.11705926 
   46800   -280.20207    25.562422   -254.63965    1848.2197    106087.03    10.472245   0.13301242 
   46900   -279.59872    26.530325    -253.0684    1918.2012    109214.78    10.472245   0.16058364 
   47000   -284.47999    26.561713   -257.91828    1920.4706    92261.219    10.472245   0.14653136 
   47100   -279.63206    28.739725   -250.89233    2077.9457    109925.59    10.472245   0.18489174 
   47200   -279.74414    26.557207   -253.18693    1920.1448    109101.06    10.472245   0.16441794 
   47300    -283.9328    26.946577   -256.98622    1948.2971    95040.288    10.472245   0.14217453 
   47400   -281.28784    26.704765   -254.58307    1930.8135    103546.61    10.472245   0.13707663 
   47500   -280.65624    26.747803   -253.90844    1933.9253    105748.86    10.472245    0.1558945 
   47600   -280.24486    24.962357    -255.2825    1804.8336    106943.63    10.472245   0.16422981 
   47700   -280.84282    24.661494   -256.18133    1783.0806    103059.76    10.472245   0.17439061 
   47800   -277.68699      26.6201   -251.06689    1924.6921     114622.7    10.472245   0.20295453 
   47900   -278.66898    23.754342   -254.91463    1717.4915     109511.8    10.472245   0.19581003 
   48000   -280.13155    22.827086   -257.30447    1650.4488    104793.82    10.472245   0.14809173 
   48100   -280.08557    29.733424   -250.35215    2149.7923    108662.71    10.472245   0.16237268 
   48200   -279.07365    23.462224   -255.61143    1696.3707    108831.07    10.472245   0.19074337 
   48300   -283.58065    26.228155    -257.3525    1896.3536    96058.047    10.472245   0.12333898 
   48400   -279.96175     27.74933   -252.21242     2006.338    109597.96    10.472245   0.16820719 
   48500   -283.94774    26.815537    -257.1322    1938.8226    96254.791    10.472245   0.15769398 
   48600   -279.83677    22.664965    -257.1718    1638.7271    107142.74    10.472245   0.15017288 
   48700   -280.92293    26.596722   -254.32621    1923.0018    106766.73    10.472245   0.16475144 
   48800   -280.17295      25.3835   -254.78945    1835.2832    105202.04    10.472245    0.1485852 
   48900   -284.69384    23.172688   -261.52115    1675.4366    91091.623    10.472245    0.1341405 
   49000   -280.26437    24.773843   -255.49053    1791.2036    103296.54    10.472245   0.18673165 
   49100   -280.61149    26.776752   -253.83474    1936.0184    106597.95    10.472245   0.17039376 
   49200    -284.1293    24.373949   -259.75535    1762.2904    93315.708    10.472245   0.13440714 
   49300   -277.94933    22.103335     -255.846      1598.12    112825.44    10.472245   0.16075378 
   49400    -281.1494    27.269847   -253.87956    1971.6702    104805.49    10.472245   0.16157827 
   49500   -280.81988    22.758684   -258.06119    1645.5032     103709.5    10.472245    0.1538975 
   49600   -278.52369    24.337195   -254.18649    1759.6331    108603.41    10.472245   0.16096142 
   49700   -279.44991    27.148855   -252.30106    1962.9222     110858.4    10.472245   0.16051075 
   49800   -280.37839    22.991059   -257.38733    1662.3044    105000.22    10.472245   0.17079643 
   49900   -281.58053     26.62103    -254.9595    1924.7593     102982.5    10.472245   0.18648783 
   50000   -280.97455    30.512184   -250.46237    2206.0984    107121.91    10.472245   0.16528005 
   50100   -284.78598    25.761859   -259.02412    1862.6394    91748.496    10.472245   0.13195369 
   50200   -280.07253    25.805924   -254.26661    1865.8254    108292.98    10.472245   0.14954266 
   50300   -278.16966    25.669268   -252.50039    1855.9448    111683.12    10.472245   0.20001187 
   50400   -282.85762    22.143847   -260.71377    1601.0491    96112.454    10.472245   0.18251816 
   50500   -279.75963    25.287119   -254.47251    1828.3147    107694.26    10.472245    0.1706385 
   50600   -277.91768      25.0931   -252.82458    1814.2866    112354.22    10.472245   0.18634501 
   50700   -285.71687    25.964931   -259.75194    1877.3219    87513.221    10.472245    0.1120127 
   50800   -280.98693    26.199579   -254.78735    1894.2875    105465.99    10.472245   0.14549983 
   50900   -280.83516    26.236121   -254.59904    1896.9296    105827.79    10.472245   0.14441309 
   51000   -286.30793    26.862675   -259.44526    1942.2308    86596.753    10.472245   0.13310262 
   51100   -281.98437    23.309308   -258.67506    1685.3145    99416.357    10.472245   0.17486946 
   51200   -281.49381    28.171759   -253.32205    2036.8805    104827.69    10.472245   0.15120859 
   51300   -282.77321    26.109763   -256.66344    1887.7936    99569.693    10.472245   0.16006277 
   51400   -283.77262    23.895603   -259.87702    1727.7049    92936.113    10.472245   0.13107484 
   51500   -278.36653    26.151171   -252.21536    1890.7875    113352.42    10.472245   0.17405516 
   51600   -283.10695    27.917526   -255.18942    2018.4989    98920.144    10.472245   0.13440621 
   51700    -284.7682    26.734853   -258.03334     1932.989    93503.451    10.472245   0.13542984 
   51800   -279.50414    24.943172   -254.56097    1803.4465    108096.29    10.472245   0.17707706 
   51900   -279.12218     24.55446   -254.56772    1775.3418    109108.58    10.472245   0.16565338 
   52000   -283.23774    27.944153   -255.29359    2020.4241    99375.362    10.472245   0.11400635 
   52100   -279.69502     24.62564   -255.06938    1780.4883    107567.57    10.472245   0.14731788 
   52200   -277.55009    28.284469   -249.26562    2045.0296    116258.28    10.472245   0.21916139 
   52300   -281.04325    25.325929   -255.71732    1831.1207     101475.4    10.472245    0.1424671 
   52400    -282.9628    26.347892   -256.61491    1905.0109      99167.1    10.472245   0.14037043 
   52500    -277.1919    27.451482   -249.74042    1984.8028    119167.36    10.472245   0.16254099 
   52600   -283.87916    26.606477   -257.27268    1923.7071    96338.354    10.472245   0.13042116 
   52700   -280.87245    25.080225   -255.79223    1813.3557    105665.01    10.472245    0.1409294 
   52800   -278.19216    27.360564    -250.8316    1978.2293       114809    10.472245   0.15624114 
   52900   -284.73118    25.190601   -259.54058    1821.3362    92382.253    10.472245   0.14540879 
   53000   -279.98696    26.685686   -253.30128    1929.4341    107017.69    10.472245   0.15286972 
   53100    -279.5626    25.744744   -253.81785     1861.402    107127.74    10.472245   0.12458608 
   53200   -284.18565    23.920661   -260.26499    1729.5167    92652.357    10.472245   0.14264604 
   53300   -276.88046    22.366912   -254.51355    1617.1772    114159.46    10.472245   0.19421791 
   53400   -281.80624    28.272232   -253.53401    2044.1449    103404.95    10.472245   0.15885373 
   53500   -282.50335    22.237514   -260.26583    1607.8214    95854.445    10.472245   0.13839346 
   53600   -280.30751    25.285846   -255.02167    1828.2226    107390.28    10.472245   0.18044372 
   53700   -282.45078    29.052665   -253.39812    2100.5719    100860.92    10.472245    0.1634639 
   53800   -282.17623    22.632153   -259.54408    1636.3547    95730.415    10.472245   0.16067165 
   53900    -278.1604     23.20134   -254.95906    1677.5082    109854.63    10.472245    0.1774793 
   54000   -279.92862    25.804534   -254.12409    1865.7249    107840.73    10.472245   0.18307637 
   54100   -281.25367      23.2448   -258.00887    1680.6505    103674.41    10.472245   0.14006369 
   54200   -285.43208    25.029548   -260.40253    1809.6917    90025.851    10.472245   0.11362372 
   54300   -281.99181    28.726776   -253.26504    2077.0094    102994.42    10.472245   0.14806788 
   54400   -281.84299    25.018973   -256.82402    1808.9271    101031.75    10.472245   0.13122512 
   54500   -284.77371    23.994852   -260.77886    1734.8809    91141.998    10.472245   0.12324245 
   54600   -279.64266    27.235127   -252.40753    1969.1599    109331.12    10.472245   0.17183571 
   54700   -281.22645    24.695531   -256.53092    1785.5415    105001.02    10.472245   0.14665225 
   54800   -286.67196    26.002105   -260.66985    1880.0097    88298.008    10.472245   0.10219479 
   54900   -281.54049    27.372359   -254.16813    1979.0821    103627.19    10.472245   0.12347777 
   55000   -279.49734    25.808542   -253.68879    1866.0147    110075.28    10.472245   0.15966706 
   55100    -284.2772    24.095485   -260.18171    1742.1569    92736.828    10.472245   0.12327963 
   55200   -281.25558    25.388636   -255.86694    1835.6545     102037.9    10.472245    0.1293731 
   55300      -280.67    26.159545   -254.51045     1891.393     105592.7    10.472245   0.14877235 
   55400   -283.53105    28.515539   -255.01551    2061.7365    99029.348    10.472245   0.11166843 
   55500   -283.25513    26.059342   -257.19579    1884.1481    98104.602    10.472245   0.12653677 
   55600   -278.65961    27.760772   -250.89884    2007.1652    111039.53    10.472245   0.16021353 
   55700   -281.21875    23.450786   -257.76797    1695.5437    102572.84    10.472245   0.16090919 
   55800   -279.27286    22.452936   -256.81992    1623.3969     107418.3    10.472245   0.15989702 
   55900   -277.68476    25.031451   -252.65331    1809.8293     115456.3    10.472245   0.17652771 
   56000   -283.95648    24.202155   -259.75433    1749.8694    94661.989    10.472245   0.15424307 
   56100   -280.66279    25.449252   -255.21353    1840.0372    105107.48    10.472245   0.16114594 
   56200   -279.45197    25.985073   -253.46689    1878.7783    109213.61    10.472245   0.14405412 
   56300   -281.23502    25.156543   -256.07848    1818.8737    104325.44    10.472245   0.12810358 
   56400   -284.82877    24.473055   -260.35571     1769.456    92109.114    10.472245    0.1140909 
   56500   -282.02855    26.570752    -255.4578    1921.1242     102651.3    10.472245   0.14200273 
   56600   -279.74197    26.767524   -252.97445    1935.3512     108092.4    10.472245   0.17357761 
   56700   -282.20054    22.297167   -259.90337    1612.1345    98277.159    10.472245   0.14141193 
   56800   -285.26072    28.282796   -256.97793    2044.9087    93293.244    10.472245   0.11518742 
   56900   -282.70547    28.234151   -254.47132    2041.3916    101280.44    10.472245   0.13003355 
   57000   -281.91422     26.07948   -255.83474    1885.6041    100808.46    10.472245   0.13009602 
   57100   -282.94409    24.074745   -258.86934    1740.6573    96623.192    10.472245    0.1401766 
   57200   -278.41492    25.080757   -253.33416    1813.3942    114843.05    10.472245   0.20380478 
   57300   -283.76032    27.747201   -256.01312     2006.184    95746.957    10.472245    0.1342251 
   57400   -285.15134    22.038369   -263.11297    1593.4228    89007.488    10.472245   0.13189866 
   57500   -281.33784    24.081624   -257.25621    1741.1547    101119.47    10.472245    0.1631507 
   57600   -281.07023    28.204575   -252.86565    2039.2532    105613.75    10.472245   0.13683644 
   57700   -282.70506    24.476374   -258.22868     1769.696    97837.227    10.472245   0.16299326 
   57800   -280.20132    25.244506   -254.95682    1825.2336    104542.44    10.472245   0.16810796 
   57900   -278.43544    25.807976   -252.62746    1865.9738    113138.56    10.472245    0.1885028 
   58000   -286.55238    27.829406   -258.72298    2012.1276    89215.336    10.472245   0.12018264 
   58100   -280.30637    28.369976   -251.93639    2051.2121    109537.09    10.472245   0.13919888 
   58200   -280.94641     27.11495   -253.83146    1960.4708    103748.57    10.472245   0.15666715 
   58300   -282.32756    24.423869   -257.90369    1765.8998    99423.888    10.472245   0.16727683 
   58400   -277.18821    27.690151   -249.49806    2002.0592    115702.21    10.472245   0.18865228 
   58500   -277.93931    24.571136   -253.36817    1776.5475    113817.16    10.472245     0.179865 
   58600    -280.1019    24.879162   -255.22274    1798.8184    104001.69    10.472245   0.15500848 
   58700   -283.01186    24.027327   -258.98454    1737.2289    97372.223    10.472245   0.15151347 
   58800   -282.65678    27.420938   -255.23584    1982.5944    100356.65    10.472245   0.11812482 
   58900   -279.22865    25.494257    -253.7344    1843.2911    108700.39    10.472245   0.14824572 
   59000   -284.26729    23.254251   -261.01304    1681.3338    92847.941    10.472245   0.13293534 
   59100   -284.54697      27.0621   -257.48487    1956.6497    94855.927    10.472245   0.10989514 
   59200   -276.98042    24.294842   -252.68558    1756.5708    114894.64    10.472245   0.15423782 
   59300   -283.81101    24.136655   -259.67435    1745.1335    93967.587    10.472245   0.13446391 
   59400   -282.31247    24.968536   -257.34394    1805.2804    99831.499    10.472245   0.12654109 
   59500   -279.24951    24.817945   -254.43156    1794.3923     109201.4    10.472245   0.14471038 
   59600   -283.29574    25.081936    -258.2138    1813.4794    96519.879    10.472245   0.15662491 
   59700   -280.03067    22.568643   -257.46203    1631.7628    105303.43    10.472245    0.1892499 
   59800   -278.46895    24.517918   -253.95103    1772.6997    111469.09    10.472245    0.1943163 
   59900    -281.7489     24.96072   -256.78818    1804.7152    101261.05    10.472245   0.14615441 
   60000   -286.07726    26.623839   -259.45342    1924.9624    89690.545    10.472245   0.11929223 
   60100    -278.9638    26.659755   -252.30405    1927.5592    112320.14    10.472245   0.16930553 
   60200     -282.428    25.335371   -257.09263    1831.8033    99256.137    10.472245   0.16494447 
   60300   -279.53623    25.409883   -254.12635    1837.1908    110501.22    10.472245    0.1685562 
   60400    -281.9999    29.140404    -252.8595    2106.9157    103080.76    10.472245   0.12931086 
   60500   -282.96099     25.29781   -257.66318    1829.0876    98006.525    10.472245   0.15509956 
   60600   -280.05045    26.527325   -253.52313    1917.9842    107669.06    10.472245   0.15264349 
   60700   -274.32293    28.450642   -245.87229    2057.0443    125041.85    10.472245   0.20361631 
   60800   -282.77275    29.105013   -253.66773    2104.3568    100072.01    10.472245   0.13526406 
   60900   -282.34988    24.364093   -257.98579    1761.5778    99366.383    10.472245   0.14086392 
   61000   -279.16214    28.004693   -251.15744    2024.8012    112288.57    10.472245   0.17031908 
   61100   -280.37915    26.456894   -253.92226     1912.892    105684.98    10.472245   0.15419523 
   61200   -280.90026    24.097963   -256.80229     1742.336    101703.93    10.472245   0.12869359 
   61300   -278.65459    24.160287   -254.49431    1746.8422    111140.49    10.472245   0.15727875 
   61400   -277.35355    29.057054    -248.2965    2100.8893    118908.25    10.472245   0.15627232 
   61500   -279.18984    25.426196   -253.76365    1838.3702    111590.52    10.472245   0.15409621 
   61600   -282.08073    25.522082   -256.55864     1845.303    101171.85    10.472245    0.1432105 
   61700   -277.82698     24.74469   -253.08229    1789.0958    112748.52    10.472245   0.16491545 
   61800   -277.94554    25.157795   -252.78774    1818.9643    112184.76    10.472245   0.20194935 
   61900   -283.95296    27.826128   -256.12683    2011.8906    94280.034    10.472245   0.13502503 
   62000   -280.39948    26.512649   -253.88683    1916.9232     106770.5    10.472245   0.18082593 
   62100   -279.77584    31.228532    -248.5473    2257.8919    108940.71    10.472245   0.15945054 
   62200   -281.16255    26.245772   -254.91678    1897.6274    105696.56    10.472245   0.17221569 
   62300   -282.40224    27.084522   -255.31771    1958.2709    100476.37    10.472245   0.11744301 
   62400   -283.20862    25.260662   -257.94795    1826.4017    97719.021    10.472245   0.13335229 
   62500   -281.61992    27.607368   -254.01255    1996.0738    103814.98    10.472245   0.14410235 
   62600   -281.67819    28.860125   -252.81807    2086.6509    103198.85    10.472245   0.15670289 
   62700   -283.73322    25.055945   -258.67728    1811.6002    96203.809    10.472245   0.12377785 
   62800   -280.31636     25.41861   -254.89775    1837.8217    107412.51    10.472245   0.17450288 
   62900   -279.64983    27.290163   -252.35966    1973.1391    110645.87    10.472245   0.17577812 
   63000   -284.91731     25.17429   -259.74302    1820.1568    91101.045    10.472245   0.14135194 
   63100   -279.08716    24.833186   -254.25397    1795.4943    110192.99    10.472245   0.16877172 
   63200   -281.77307    27.290186   -254.48288    1973.1408    103483.15    10.472245   0.17373929 
   63300   -282.96908    22.548226   -260.42085    1630.2866    97257.609    10.472245   0.12368873 
   63400   -279.44628     21.89144   -257.55484    1582.7996    107379.36    10.472245   0.14759081 
   63500   -279.02963    26.265002   -252.76463    1899.0177    112706.41    10.472245   0.18039475 
   63600   -279.35311    24.041863   -255.31124    1738.2799    108152.02    10.472245   0.15591854 
   63700   -281.77945    22.049626   -259.72982    1594.2367    99346.246    10.472245    0.1256327 
   63800   -281.30956    27.905741   -253.40382    2017.6468    104336.17    10.472245   0.16137713 
   63900   -279.27113    25.230787   -254.04035    1824.2417     111254.3    10.472245   0.16396999 
   64000   -285.49481    24.446458   -261.04835     1767.533    88831.525    10.472245   0.14862839 
   64100   -278.84173    24.971254   -253.87048    1805.4769    109002.68    10.472245   0.20651628 
   64200   -280.12725    26.937931   -253.18932     1947.672    107611.13    10.472245   0.20403137 
   64300   -282.37442    23.505569   -258.86885    1699.5046    97118.038    10.472245   0.16858485 
   64400    -281.2164    28.559834   -252.65656    2064.9392    106690.01    10.472245    0.1425253 
   64500   -278.81288    24.542685    -254.2702    1774.4904    109038.35    10.472245   0.17134436 
   64600   -281.82411    24.218599   -257.60551    1751.0583    101680.67    10.472245   0.16674156 
   64700   -280.49723    26.208305   -254.28892    1894.9184    107460.51    10.472245   0.16652393 
   64800      -279.31    24.952377   -254.35762    1804.1121    107808.34    10.472245   0.16948949 
   64900   -285.55925    26.222823   -259.33643    1895.9681    90674.805    10.472245   0.12893418 
   65000   -279.72243    24.836518   -254.88591    1795.7352    109110.42    10.472245   0.15813542 
   65100   -278.95909    25.528958   -253.43013    1845.8001    111390.44    10.472245    0.1638372 
   65200   -281.77208    22.880867   -258.89122    1654.3373    100105.42    10.472245   0.16522587 
   65300   -278.95576    27.315762      -251.64      1974.99    112021.06    10.472245   0.15008669 
   65400   -283.71219    28.242028   -255.47017    2041.9611    98739.463    10.472245   0.11955325 
   65500   -281.36975    24.335766   -257.03398    1759.5297    101876.95    10.472245   0.15139459 
   65600   -277.38155    25.529721   -251.85183    1845.8553     115186.9    10.472245   0.19104804 
   65700   -277.66573    30.228839   -247.43689    2185.6119     118427.4    10.472245   0.21424588 
   65800   -279.50911    24.932606   -254.57651    1802.6825    108407.52    10.472245   0.18723185 
   65900   -281.25865    23.046188   -258.21246    1666.2904    103029.66    10.472245   0.17069313 
   66000   -280.55426     29.17361   -251.38065    2109.3165    107397.97    10.472245   0.17685383 
   66100   -281.97727    28.606025   -253.37124    2068.2789    104593.06    10.472245    0.1511565 
   66200   -283.06003     24.87776   -258.18227    1798.7171    97101.126    10.472245   0.14240358 
   66300    -279.7387    25.716821   -254.02188     1859.383    107290.39    10.472245   0.17403604 
   66400    -278.8635    25.051623   -253.81188    1811.2878    109655.14    10.472245    0.1981987 
   66500   -281.05762    21.778408   -259.27922     1574.627    100783.57    10.472245   0.17301576 
   66600   -282.95661    29.175644   -253.78096    2109.4636    100923.62    10.472245   0.13732782 
   66700   -279.45126    23.082188   -256.36907    1668.8933    108025.96    10.472245   0.15269139 
   66800   -286.02802    24.473233   -261.55478    1769.4688    86674.287    10.472245   0.11118691 
   66900   -282.26416    26.290032   -255.97413    1900.8275    100238.25    10.472245   0.15326504 
   67000   -280.96061    27.419466   -253.54114     1982.488    104881.99    10.472245   0.18185147 
   67100   -283.68698     26.75878    -256.9282     1934.719     96984.65    10.472245   0.13514889 
   67200   -285.42831    27.351307     -258.077      1977.56    92545.763    10.472245    0.1087697 
   67300    -277.6564     25.93341   -251.72299    1875.0429    114049.78    10.472245   0.19951768 
   67400   -282.06582    26.507459   -255.55836    1916.5479    101219.89    10.472245   0.13946994 
   67500   -285.15881    28.762956   -256.39586    2079.6254    93878.215    10.472245   0.10972142 
   67600   -283.00405    28.486376   -254.51767     2059.628    99225.907    10.472245   0.13293396 
   67700   -281.10354    33.648747   -247.45479    2432.8788    108896.18    10.472245   0.14133959 
   67800   -282.20606    27.216477   -254.98959    1967.8115    102158.28    10.472245   0.16194306 
   67900   -283.78827    27.784584   -256.00368    2008.8869    95482.184    10.472245   0.13212097 
   68000   -286.30527    28.555654   -257.74961    2064.6369    89392.011    10.472245   0.11568336 
   68100   -278.76072    26.871681   -251.88904     1942.882    112662.31    10.472245   0.16862455 
   68200   -282.54823    27.408751   -255.13948    1981.7133    101142.94    10.472245   0.13243489 
   68300   -283.19141    26.668187   -256.52323    1928.1689    97427.037    10.472245    0.1304316 
   68400   -278.33574    24.972903   -253.36284    1805.5961    114006.69    10.472245    0.1801705 
   68500   -280.67107    32.893473    -247.7776    2378.2709    109441.33    10.472245   0.17142727 
   68600   -281.82307    25.403848   -256.41922    1836.7544    100697.07    10.472245   0.14872337 
   68700   -280.63794    25.970677   -254.66726    1877.7374    104809.87    10.472245   0.15362316 
   68800   -279.32092    29.909725    -249.4112    2162.5392    112072.28    10.472245   0.19600692 
   68900   -284.10531    26.901414   -257.20389    1945.0318    93834.424    10.472245     0.159861 
   69000   -277.65677    24.937062   -252.71971    1803.0047    112017.35    10.472245    0.1901126 
   69100   -280.88323    27.532563   -253.35067    1990.6652    105826.86    10.472245   0.14969384 
   69200   -283.06057    25.529493   -257.53108    1845.8388    96723.147    10.472245   0.14414818 
   69300   -280.09427    28.292959   -251.80131    2045.6435    109857.67    10.472245    0.1310917 
   69400   -284.66813    25.263189   -259.40494    1826.5844    92968.699    10.472245   0.12121681 
   69500   -283.52666     26.51984   -257.00682    1917.4431    96801.547    10.472245   0.12718354 
   69600   -279.46873    25.624426    -253.8443    1852.7027    109029.51    10.472245   0.18027239 
   69700   -281.71649    24.879361   -256.83713    1798.8329     102033.6    10.472245   0.14975091 
   69800    -284.0155    25.646941   -258.36856    1854.3306    92940.878    10.472245    0.1549453 
   69900   -283.36892    30.795875   -252.57305    2226.6098    99237.728    10.472245   0.15237258 
   70000   -281.99545    26.980872   -255.01458    1950.7767    101096.67    10.472245   0.13977463 
   70100   -285.81507    22.175911   -263.63915    1603.3674    86605.804    10.472245   0.12322995 
   70200   -285.06251    27.201338   -257.86117    1966.7169    90904.523    10.472245   0.12935726 
   70300   -281.28492    28.121947   -253.16297     2033.279    102641.02    10.472245    0.1563048 
   70400   -280.59917      23.2158   -257.38337    1678.5537    102137.26    10.472245   0.14683642 
   70500   -280.67923    22.494487   -258.18474    1626.4011    102750.45    10.472245   0.14154659 
   70600   -282.19649     28.39121   -253.80528    2052.7473    101709.39    10.472245    0.1690839 
   70700   -278.74431    23.103646   -255.64066    1670.4447    109389.38    10.472245   0.15346625 
   70800   -284.19939    21.982074   -262.21732    1589.3526    91613.856    10.472245   0.12910112 
   70900   -282.57255    26.174402   -256.39815    1892.4671    99922.663    10.472245   0.12942055 
   71000   -279.35664    26.261202   -253.09544     1898.743    109525.58    10.472245   0.17875099 
   71100    -281.9985    27.320232   -254.67827    1975.3132    101618.33    10.472245   0.17592954 
   71200   -282.43722    23.812108   -258.62511    1721.6681    99305.352    10.472245   0.14486287 
   71300   -279.52812      28.6295   -250.89862    2069.9762    110570.86    10.472245   0.17326172 
   71400   -280.37357    26.017913   -254.35566    1881.1526    104399.03    10.472245   0.16021247 
   71500   -282.16176    25.376774   -256.78498    1834.7969    99911.597    10.472245   0.13529953 
   71600   -277.08191    28.890526   -248.19138    2088.8489    117190.97    10.472245   0.18796231 
   71700   -282.47901    27.500948   -254.97807    1988.3794    99657.279    10.472245   0.18159627 
   71800   -283.08871    27.233227   -255.85549    1969.0225    98054.701    10.472245   0.14911658 
   71900   -281.74059    31.268363   -250.47223    2260.7718    105793.03    10.472245    0.1593456 
   72000   -282.45814    27.139976   -255.31816    1962.2803    100708.69    10.472245   0.14759232 
   72100   -283.34105    26.888333   -256.45272    1944.0859     97447.26    10.472245   0.14022674 
   72200   -277.02656    26.825306   -250.20126    1939.5289     117199.6    10.472245   0.18354399 
   72300   -277.61041    28.718084   -248.89233     2076.381    116546.51    10.472245   0.20136517 
   72400   -280.66927    23.876931   -256.79233     1726.355    105084.84    10.472245   0.14019369 
   72500    -280.7309     24.14426   -256.58664    1745.6834    103910.93    10.472245    0.1616402 
   72600    -278.6786     28.53739   -250.14121    2063.3164    112823.35    10.472245    0.1913314 
   72700   -281.67469    26.353895    -255.3208    1905.4449    102183.23    10.472245    0.1665735 
   72800   -281.70857    26.853842   -254.85473    1941.5922     103499.2    10.472245   0.16659348 
   72900   -279.35666    29.615156   -249.74151    2141.2413     110645.5    10.472245   0.16087548 
   73000   -284.37216    27.917769   -256.45439    2018.5165    97742.624    10.472245   0.12926718 
   73100   -284.73559    29.188399   -255.54719    2110.3858    95172.306    10.472245   0.12782238 
   73200   -280.72677    31.010505   -249.71627    2242.1281    105161.68    10.472245   0.14466132 
   73300    -282.5403    25.912639   -256.62766    1873.5411    98879.113    10.472245   0.13372607 
   73400   -283.15553    26.421663   -256.73387    1910.3446    97542.527    10.472245   0.12606607 
   73500   -278.57414    26.845404   -251.72874    1940.9821    111224.58    10.472245   0.16667761 
   73600   -279.62245      24.7087   -254.91375    1786.4936    107387.91    10.472245   0.16517233 
   73700   -279.35073    25.144802   -254.20593    1818.0248    108221.39    10.472245   0.17231282 
   73800   -279.62157    26.004699   -253.61687    1880.1973     109214.5    10.472245   0.16058366 
   73900   -284.09647    24.978192   -259.11828    1805.9785    93321.423    10.472245   0.13621655 
   74000   -280.51956    27.546138   -252.97342    1991.6467    107545.06    10.472245   0.15914636 
   74100   -278.25512    25.343292   -252.91183    1832.3761    111836.39    10.472245   0.17530619 
   74200   -282.23791    23.438275   -258.79964    1694.6391    99553.034    10.472245   0.12470457 
   74300   -276.91924    26.570761   -250.34848    1921.1248    116151.65    10.472245   0.19335366 
   74400   -279.44735    25.101162   -254.34619    1814.8695    111657.89    10.472245   0.14727706 
   74500   -283.47816    25.283328   -258.19483    1828.0405    96036.379    10.472245   0.11748478 
   74600   -279.09821    28.829728   -250.26848    2084.4531    113236.53    10.472245   0.15686119 
   74700   -280.39347    25.444557   -254.94891    1839.6978    104784.02    10.472245   0.16535314 
   74800   -281.67643    24.640536    -257.0359    1781.5652    101494.57    10.472245   0.16223305 
   74900    -278.0099    29.072769   -248.93713    2102.0255    115003.36    10.472245   0.15330385 
   75000   -281.46482    25.502026    -255.9628    1843.8529    100152.58    10.472245   0.16489286 
   75100   -281.26547    24.981636   -256.28384    1806.2275    103760.95    10.472245   0.14543315 
   75200   -278.01636    29.585356   -248.43101    2139.0867    113891.71    10.472245   0.21056267 
   75300   -280.66562    25.401145   -255.26447    1836.5589    106586.06    10.472245   0.15244404 
   75400     -284.155     27.98959   -256.16541    2023.7093    95808.191    10.472245   0.16986971 
   75500   -279.76116    27.623707   -252.13745    1997.2551    109911.59    10.472245   0.19158598 
   75600   -279.87089    27.047621   -252.82327    1955.6028    109198.17    10.472245   0.16542838 
   75700   -281.69204     25.10904     -256.583    1815.4392     101435.5    10.472245   0.16147184 
   75800    -278.9289    26.554186   -252.37472    1919.9264    111708.56    10.472245   0.19919907 
   75900   -276.76804     27.56723   -249.20081    1993.1717    116663.98    10.472245   0.19836645 
   76000    -281.6159     24.45582   -257.16008    1768.2099    102720.28    10.472245   0.13410318 
   76100   -278.53883    23.420851   -255.11798    1693.3794    109150.73    10.472245   0.21718298 
   76200   -279.08588    28.863457   -250.22242    2086.8918    113156.89    10.472245   0.16363263 
   76300   -282.11194    26.318161   -255.79378    1902.8612    101113.68    10.472245   0.13676712 
   76400    -277.8304    21.818761   -256.01163    1577.5447    112115.73    10.472245   0.19117139 
   76500   -279.16781    30.458941   -248.70887    2202.2488    114289.39    10.472245   0.14582136 
   76600   -282.55917    27.253899   -255.30527    1970.5172    100484.19    10.472245   0.12604784 
   76700   -280.36736    24.127597   -256.23976    1744.4786    104268.26    10.472245   0.17808912 
   76800   -277.04227    27.011221   -250.03105     1952.971     118155.1    10.472245   0.21824369 
   76900    -281.1802    26.197224   -254.98298    1894.1172    102292.48    10.472245   0.14623301 
   77000   -280.33953    23.935703   -256.40383    1730.6042    105513.59    10.472245   0.15792444 
   77100   -280.10428    28.181658   -251.92262    2037.5962    107010.29    10.472245   0.15772126 
   77200   -284.12332    26.802261   -257.32106    1937.8628    95025.228    10.472245   0.12953867 
[...]
   81400   -282.35629    26.995788    -255.3605    1951.8552    101219.09    10.472245   0.14035697 
   81500    -279.2051    31.103869   -248.10124    2248.8786    112730.43    10.472245   0.15932015 
   81600   -279.76869    29.089722   -250.67897    2103.2512    108691.91    10.472245    0.1724488 
   81700    -280.5775    24.840812   -255.73669    1796.0456    104511.07    10.472245    0.1481381 
   81800   -283.30125    26.035771   -257.26548    1882.4439    96896.001    10.472245   0.11694252 
   81900    -278.9283    28.088931   -250.83937    2030.8918    110799.55    10.472245   0.15642067 
   82000   -282.93256    25.882157   -257.05041    1871.3372    97434.366    10.472245    0.1226402 
   82100   -280.99546    25.146516   -255.84894    1818.1487    103491.55    10.472245    0.1588135 
   82200   -277.35496     25.20825   -252.14671    1822.6123    115336.57    10.472245    0.1742729 
   82300   -283.17244    23.597333   -259.57511    1706.1394    96739.203    10.472245   0.12818037 
   82400   -280.52485    25.739858   -254.78499    1861.0487    105331.81    10.472245   0.16440559 
   82500    -280.6638    27.738021   -252.92578    2005.5203    109350.27    10.472245   0.12812121 
   82600   -282.46924    25.746074   -256.72317    1861.4981    100352.99    10.472245     0.140897 
   82700   -280.57407    24.467006   -256.10706    1769.0186    104058.49    10.472245   0.14097894 
   82800   -279.32792    27.358335   -251.96958    1978.0682    110759.93    10.472245   0.17533324 
   82900    -284.3443    27.445049   -256.89925    1984.3377    94528.681    10.472245   0.15172778 
   83000   -282.55305    23.972707   -258.58034    1733.2797    96774.126    10.472245   0.15860335 
   83100   -280.03241    28.784425   -251.24799    2081.1776       108511    10.472245   0.19359454 
   83200   -280.96802    24.589056   -256.37897    1777.8431    103620.79    10.472245   0.17042267 
   83300   -282.53302    25.256106   -257.27692    1826.0723    99430.257    10.472245   0.14376918 
   83400    -282.3242     27.77932   -254.54488    2008.5063    101614.71    10.472245   0.15137523 
   83500   -282.66038    26.653324   -256.00706    1927.0943     99470.44    10.472245   0.13813256 
   83600   -283.33438    21.637481    -261.6969    1564.4377      95402.9    10.472245   0.14810105 
   83700   -281.85537    26.646263   -255.20911    1926.5838    104274.93    10.472245   0.13966726 
   83800   -279.18374    26.163518   -253.02022    1891.6802    112047.05    10.472245   0.15663521 
   83900   -283.41188    24.198958   -259.21292    1749.6382    96768.957    10.472245   0.14532158 
   84000   -281.71402    25.714263   -255.99976    1859.1981     102182.6    10.472245   0.17912052 
   84100   -283.94418     30.19732   -253.74686     2183.333    97050.899    10.472245   0.14654954 
   84200   -281.75099    23.064344   -258.68665    1667.6031    99495.211    10.472245   0.16902073 
   84300   -280.38103    23.499741   -256.88129    1699.0832    106576.14    10.472245   0.14234565 
   84400   -281.81268     29.02087   -252.79181    2098.2731    103788.89    10.472245   0.13085854 
   84500   -282.88608    23.839311   -259.04677    1723.6349    97654.309    10.472245    0.1294959 
   84600   -283.46119    27.023569   -256.43762    1953.8638    98629.265    10.472245   0.14519144 
   84700   -283.93817    29.119552   -254.81862     2105.408    96821.808    10.472245   0.15610087 
   84800   -279.45866    29.349318   -250.10934    2122.0206    113157.69    10.472245   0.18311164 
   84900   -280.74451    25.088534   -255.65598    1813.9565    104915.17    10.472245   0.19890173 
   85000   -283.00895    26.336355   -256.67259    1904.1767    98666.665    10.472245   0.14351832 
   85100   -278.46128    27.999855   -250.46143    2024.4514    112665.73    10.472245   0.19762972 
   85200   -278.93706    25.125111   -253.81195    1816.6011    108675.13    10.472245   0.19440741 
   85300   -282.74687    24.999401   -257.74746     1807.512     97528.45    10.472245   0.16633765 
   85400   -276.62155    25.223106   -251.39844    1823.6864    118575.37    10.472245   0.18373352 
   85500   -281.41805    26.269829   -255.14822    1899.3667    104864.03    10.472245   0.18503626 
   85600   -281.02712    25.843897   -255.18322    1868.5709    106059.56    10.472245   0.15593865 
   85700   -280.28594    26.232094   -254.05384    1896.6384    107341.41    10.472245   0.15085824 
   85800   -281.10353    23.712811   -257.39072    1714.4887    101959.02    10.472245   0.17268307 
   85900   -281.59847    23.478039   -258.12043    1697.5141    101468.41    10.472245    0.1748417 
   86000   -280.13042    28.587897   -251.54253    2066.9682    106726.48    10.472245   0.17981833 
   86100   -283.34233    25.929012   -257.41332    1874.7249    95956.679    10.472245   0.14640171 
   86200   -281.32014    23.771553   -257.54859    1718.7359    101029.96    10.472245   0.15298086 
   86300   -279.13636    25.852258    -253.2841    1869.1755    109695.17    10.472245   0.16396572 
   86400   -281.62182    26.190311   -255.43151    1893.6175    101926.71    10.472245   0.16931135 
   86500   -283.59224    24.728406   -258.86384    1787.9185    96333.409    10.472245   0.13478687 
   86600   -281.91709    27.626093     -254.291    1997.4277    103432.74    10.472245   0.16595906 
   86700   -283.30253    28.511095   -254.79143    2061.4152    97194.586    10.472245   0.13704292 
   86800   -285.11758    22.247352   -262.87022    1608.5328    89078.517    10.472245    0.1182885 
   86900   -281.63939    24.639996   -256.99939    1781.5262    101708.49    10.472245   0.14123159 
   87000   -283.79076    29.858252   -253.93251    2158.8177    98319.127    10.472245   0.13966616 
   87100    -280.2687     26.26224   -254.00646    1898.8181    106657.39    10.472245   0.15575004 
   87200   -279.67211    21.978282   -257.69383    1589.0784    105133.37    10.472245   0.18529184 
   87300   -282.61751    29.528215   -253.08929    2134.9553    100234.02    10.472245   0.11509695 
   87400   -280.00163    26.354008   -253.64763    1905.4531    108574.63    10.472245   0.14316492 
   87500   -284.67305    27.565901   -257.10715    1993.0756    93451.974    10.472245   0.11735147 
   87600   -280.99168    27.421586   -253.57009    1982.6413    105982.64    10.472245   0.15882749 
   87700   -278.03675    27.691724   -250.34503    2002.1729    113834.06    10.472245   0.16882593 
   87800   -279.73295    23.315706   -256.41724    1685.7771    106150.33    10.472245   0.16837719 
   87900   -279.16904    23.566342    -255.6027    1703.8986    108406.58    10.472245     0.158516 
   88000   -280.22402    32.829929   -247.39409    2373.6765    111921.15    10.472245   0.16130606 
   88100   -284.64427    28.013649   -256.63062    2025.4488     94377.33    10.472245   0.12585169 
   88200   -281.41523    25.542576   -255.87265    1846.7847    102995.93    10.472245   0.15497064 
   88300   -278.55192    27.246269   -251.30565    1969.9655    111255.08    10.472245   0.16509031 
   88400   -282.33488     22.97173   -259.36315    1660.9069    99632.207    10.472245   0.14431653 
   88500   -278.59905    23.880419   -254.71863    1726.6071     110534.8    10.472245   0.18655911 
   88600   -283.60495    30.793271   -252.81168    2226.4216    97714.321    10.472245   0.15332088 
   88700   -280.85413    25.715223    -255.1389    1859.2675    104374.74    10.472245   0.18474626 
   88800   -281.27051    26.518699   -254.75181    1917.3606    103449.83    10.472245   0.15886188 
   88900   -278.46027    22.882466    -255.5778    1654.4529    109746.85    10.472245   0.16640636 
   89000   -279.02059     26.82241   -252.19818    1939.3196    112875.99    10.472245   0.15487328 
   89100   -279.53412    24.659263   -254.87485    1782.9193    108085.36    10.472245   0.18413693 
   89200   -279.48759     21.99012   -257.49747    1589.9343    105761.45    10.472245   0.13523694 
   89300   -274.40803    26.318341   -248.08969    1902.8743    123174.06    10.472245   0.21439913 
   89400   -279.02474    24.972885   -254.05186    1805.5949    111073.44    10.472245   0.18394939 
   89500   -279.86978    23.550187    -256.3196    1702.7306    106468.69    10.472245   0.17675052 
   89600   -279.66477    29.186982   -250.47779    2110.2833    111568.73    10.472245   0.13667184 
   89700   -282.93933    27.509265   -255.43006    1988.9807    99825.195    10.472245   0.15599312 
   89800   -281.99497    26.062342   -255.93263     1884.365    100928.68    10.472245   0.14089016 
   89900   -281.48984    30.924221   -250.56562    2235.8896    107079.93    10.472245   0.15847995 
   90000   -282.26991    30.217039   -252.05287    2184.7588    100780.53    10.472245   0.16680541 
   90100   -281.25519    25.148253   -256.10693    1818.2743    103191.41    10.472245   0.15214614 
   90200   -280.10075    26.927541   -253.17321    1946.9208    109077.41    10.472245   0.17203599 
   90300   -278.79433    27.722898   -251.07143    2004.4269    113346.59    10.472245    0.1479558 
   90400   -281.65327    24.145342   -257.50793    1745.7617    101555.46    10.472245   0.15898053 
   90500   -281.11799     29.45801   -251.65998    2129.8793    106264.85    10.472245   0.14316607 
   90600   -281.27601     22.96892   -258.30709    1660.7037     101313.9    10.472245   0.14080279 
   90700   -282.96257    26.590964   -256.37161    1922.5855    98579.966    10.472245   0.13571209 
   90800   -279.63799    26.809171   -252.82882    1938.3624    110853.29    10.472245   0.17093354 
   90900   -283.49008    22.977495   -260.51258    1661.3237    94535.643    10.472245   0.13568054 
   91000   -282.58459    24.946245   -257.63834    1803.6687    97957.386    10.472245   0.15982775 
   91100   -279.80617    25.283344   -254.52283    1828.0417    107120.44    10.472245   0.17570356 
   91200   -279.82755     27.11557   -252.71198    1960.5157    107517.08    10.472245   0.17020414 
   91300   -278.42539    20.815325   -257.61006    1504.9941    108883.27    10.472245   0.16679811 
   91400   -284.56575    28.752705   -255.81304    2078.8841    96073.095    10.472245    0.1239857 
   91500   -279.05624    27.789537   -251.26671     2009.245     112113.8    10.472245    0.1747982 
   91600   -279.81021    25.040407    -254.7698    1810.4768    106801.54    10.472245   0.16389941 
   91700   -281.80232    26.292402   -255.50992    1900.9988    101941.42    10.472245   0.12760952 
   91800   -278.61306    23.251222   -255.36184    1681.1148    112219.82    10.472245   0.17662976 
   91900   -280.66934    30.646945   -250.02239    2215.8419    106759.09    10.472245   0.14183468 
   92000   -283.41738    26.263855   -257.15352    1898.9348    95829.018    10.472245   0.15272873 
   92100   -281.62034    25.869747   -255.75059    1870.4399    103105.86    10.472245   0.16094393 
   92200   -277.17364     29.48508   -247.68856    2131.8365    116738.18    10.472245   0.22190362 
   92300   -276.88443    27.718259   -249.16617    2004.0914    118120.88    10.472245    0.1846584 
   92400   -283.24262    26.783875   -256.45874    1936.5334     99041.95    10.472245    0.1564172 
   92500   -283.02421     26.31714   -256.70707    1902.7874    97941.262    10.472245   0.12953334 
   92600   -279.25034    29.566876   -249.68346    2137.7505    112505.21    10.472245   0.18054283 
   92700   -281.15537    24.361725   -256.79365    1761.4066    105138.65    10.472245   0.14050636 
   92800    -279.8255    23.775469   -256.05003     1719.019    106912.17    10.472245   0.13431616 
   92900   -274.69813    24.089668   -250.60847    1741.7363       122789    10.472245   0.16458859 
   93000   -281.72968    25.965289    -255.7644    1877.3478     101550.7    10.472245   0.15333849 
   93100   -281.78773    24.857676   -256.93005    1797.2649    99525.398    10.472245   0.17098696 
   93200   -277.57304    26.093518   -251.47953    1886.6191    114789.91    10.472245   0.20894141 
   93300    -284.2583     24.72992   -259.52837    1788.0279    92268.864    10.472245   0.10389718 
   93400   -280.74276    24.319641   -256.42312    1758.3638    103263.13    10.472245   0.13675455 
   93500   -278.23017    25.894894   -252.33527    1872.2581    109242.69    10.472245   0.16743947 
   93600   -286.60878    27.631341   -258.97744    1997.8071    86540.018    10.472245   0.11160603 
   93700   -283.59234    26.940689   -256.65165    1947.8714     99614.88    10.472245    0.1296402 
   93800    -280.9744    27.127448   -253.84695    1961.3745    104911.28    10.472245   0.15269092 
   93900   -280.07807    22.115047   -257.96302    1598.9668    104267.33    10.472245   0.17225705 
   94000   -282.19705    22.641184   -259.55586    1637.0077    98591.626    10.472245   0.17711443 
   94100   -281.81464    27.553475   -254.26117    1992.1772    102849.31    10.472245   0.14630793 
   94200   -279.42768    26.740068   -252.68761    1933.3661    108362.73    10.472245   0.17162508 
   94300   -283.33515    24.314134   -259.02101    1757.9656    96002.989    10.472245   0.15077929 
   94400   -283.06709    29.139274   -253.92782    2106.8339    101063.15    10.472245   0.16100424 
   94500   -279.09412    27.131025   -251.96309    1961.6331    112244.82    10.472245    0.1782139 
   94600   -281.03127    23.160411   -257.87086    1674.5489    103185.13    10.472245   0.16540951 
   94700     -281.294    27.541897    -253.7521    1991.3401    104239.89    10.472245   0.14051862 
   94800   -279.67303    31.230373   -248.44266     2258.025    112280.11    10.472245   0.15589853 
   94900   -279.73202    23.866091   -255.86593    1725.5712    108028.06    10.472245   0.16179404 
   95000   -283.81244    26.697612   -257.11483    1930.2964    97082.943    10.472245   0.11519592 
   95100   -281.22861    28.919691   -252.30892    2090.9576    106817.67    10.472245   0.15149689 
   95200   -281.85706    27.028377   -254.82869    1954.2114     102544.6    10.472245   0.14107319 
   95300    -283.2751    25.686796    -257.5883    1857.2122    97687.249    10.472245   0.12069073 
   95400   -281.46706    27.848987   -253.61808    2013.5434    106700.55    10.472245   0.17151943 
   95500   -277.86757    33.810735   -244.05683    2444.5909     117392.4    10.472245   0.22797032 
   95600   -279.83563    28.897684   -250.93795    2089.3665    110287.97    10.472245   0.18384626 
   95700   -284.06725      26.6105   -257.45675     1923.998    94759.898    10.472245   0.12962438 
   95800   -280.55323    25.002852   -255.55037    1807.7615    105156.57    10.472245   0.14381435 
   95900   -277.70429    26.332235   -251.37205    1903.8788    111989.09    10.472245   0.15211308 
   96000   -283.03391    28.175682   -254.85823    2037.1641    98567.792    10.472245   0.13510407 
   96100   -280.44546    23.988168   -256.45729    1734.3976    107158.34    10.472245   0.13854989 
   96200   -282.31576    26.269494   -256.04627    1899.3425    101580.02    10.472245   0.15954614 
   96300   -278.60177    26.411787   -252.18998    1909.6306    113371.73    10.472245   0.17813948 
   96400   -284.49365    25.786094   -258.70756    1864.3916    92814.565    10.472245   0.14692225 
   96500    -282.1536    25.977691   -256.17591    1878.2445    100617.56    10.472245   0.17031396 
   96600   -279.26939    25.433156   -253.83624    1838.8734     109681.9    10.472245   0.17258615 
   96700   -282.90926    25.439677   -257.46959    1839.3449    99708.055    10.472245   0.16601047 
   96800    -285.4911    23.675142   -261.81596    1711.7651    89849.557    10.472245   0.13928532 
   96900   -280.85178    26.805198   -254.04658    1938.0751    105935.08    10.472245   0.14013155 
   97000   -279.44259    23.485808   -255.95678    1698.0759    109349.79    10.472245    0.1809224 
   97100   -283.24269    24.053846   -259.18884    1739.1463    96917.394    10.472245   0.15330108 
   97200   -280.08223     27.77684   -252.30539     2008.327    107576.03    10.472245   0.15132581 
   97300   -281.73933    25.662173   -256.07716    1855.4319    101140.95    10.472245   0.19912441 
   97400   -282.26111    24.790741   -257.47037    1792.4254    99708.546    10.472245   0.16434499 
   97500   -279.14796    23.574773   -255.57318    1704.5083    108649.41    10.472245   0.19383539 
   97600   -278.53498    26.101351   -252.43363    1887.1854    111233.46    10.472245   0.17043129 
   97700   -281.77661    22.359766   -259.41685    1616.6606    101457.38    10.472245   0.15051075 
   97800   -281.77617      27.8651   -253.91107    2014.7084    104434.71    10.472245   0.13865236 
   97900   -283.50859    29.849297   -253.65929    2158.1702    99891.028    10.472245   0.13052512 
   98000   -281.42888    24.621785    -256.8071    1780.2095    101093.61    10.472245   0.15548217 
   98100   -284.59283     22.93193    -261.6609    1658.0293    90234.162    10.472245   0.15864961 
   98200   -281.75243    27.185763   -254.56667    1965.5908     103528.4    10.472245   0.17022235 
   98300   -279.92336    25.511316   -254.41204    1844.5246    106120.97    10.472245   0.15912503 
   98400   -284.02639    23.556961   -260.46943    1703.2204    94153.129    10.472245   0.13988028 
   98500   -278.72908    25.701397   -253.02768    1858.2679    112317.65    10.472245   0.18166185 
   98600   -282.93794    27.697949   -255.23999     2002.623    99085.813    10.472245   0.12018945 
   98700   -281.17562    24.642117   -256.53351    1781.6796    101221.34    10.472245   0.14770671 
   98800   -280.58158    30.643092   -249.93849    2215.5633    108415.73    10.472245   0.13188062 
   98900   -283.49184    27.381681   -256.11016    1979.7561    97031.636    10.472245   0.14400176 
   99000   -278.30435    22.501869   -255.80248    1626.9349     110857.4    10.472245   0.14336325 
   99100   -279.67505    28.103828   -251.57123    2031.9689    112318.09    10.472245    0.1896668 
   99200   -280.95414    27.854759   -253.09938    2013.9607    104933.73    10.472245   0.15526154 
   99300   -281.78415    25.780896   -256.00325    1864.0158    99464.268    10.472245   0.16625948 
   99400   -277.12898    25.614502   -251.51448    1851.9852    116022.98    10.472245   0.19011202 
   99500   -276.54833     25.69156   -250.85677    1857.5566    119841.29    10.472245   0.19429702 
   99600   -281.72494    25.420972   -256.30397    1837.9925    102860.61    10.472245    0.1499406 
   99700   -281.58363     28.92952   -252.65411    2091.6683    104175.17    10.472245    0.1621204 
   99800   -278.33604    27.152326   -251.18371    1963.1732    113667.25    10.472245   0.20839472 
   99900   -284.00707    26.237985   -257.76909    1897.0643    95137.331    10.472245   0.14574515 
  100000   -278.07689    25.006553   -253.07034    1808.0291    114473.27    10.472245   0.16072023 
Loop time of 31.6804 on 1 procs for 100000 steps with 108 atoms

Performance: 1363.620 ns/day, 0.018 hours/ns, 3156.527 timesteps/s
100.0% CPU use with 1 MPI tasks x no OpenMP threads

MPI task timing breakdown:
Section |  min time  |  avg time  |  max time  |%varavg| %total
---------------------------------------------------------------
Pair    | 18.884     | 18.884     | 18.884     |   0.0 | 59.61
Neigh   | 1.1895     | 1.1895     | 1.1895     |   0.0 |  3.75
Comm    | 0.50976    | 0.50976    | 0.50976    |   0.0 |  1.61
Output  | 0.018827   | 0.018827   | 0.018827   |   0.0 |  0.06
Modify  | 10.992     | 10.992     | 10.992     |   0.0 | 34.70
Other   |            | 0.0865     |            |       |  0.27

Nlocal:    108 ave 108 max 108 min
Histogram: 1 0 0 0 0 0 0 0 0 0
Nghost:    994 ave 994 max 994 min
Histogram: 1 0 0 0 0 0 0 0 0 0
Neighs:    5564 ave 5564 max 5564 min
Histogram: 1 0 0 0 0 0 0 0 0 0

Total # of neighbors = 5564
Ave neighs/atom = 51.5185
Neighbor list builds = 5106
Dangerous builds = 1
    
Total wall time: 0:00:31
