LAMMPS (3 Mar 2020)
Reading data file ...
  orthogonal box = (0 0 0) to (12.27 12.27 12.27)
  1 by 1 by 1 MPI processor grid
  reading atoms ...
  108 atoms
  read_data CPU = 0.000884011 secs
Reading potential file /usr/share/lammps-stable/potentials/Ag_u3.eam with DATE: 2007-06-11
Neighbor list info ...
  update every 1 steps, delay 10 steps, check yes
  max neighbors/atom: 2000, page size: 100000
  master list distance cutoff = 7.55
  ghost atom cutoff = 7.55
  binsize = 3.775, bins = 4 4 4
  2 neighbor lists, perpetual/occasional/extra = 1 1 0
  (1) pair eam, perpetual
      attributes: half, newton on
      pair build: half/bin/atomonly/newton
      stencil: half/bin/3d/newton
      bin: standard
  (2) compute rdf, occasional, copy from (1)
      attributes: half, newton on
      pair build: copy
      stencil: none
      bin: none
Setting up Verlet run ...
  Unit style    : metal
  Current step  : 0
  Time step     : 0.001
Per MPI rank memory allocation (min/avg/max) = 3.723 | 3.723 | 3.723 Mbytes
Step PotEng KinEng TotEng Temp Press Density c_msdall[4] 
       0       -307.8    17.011928   -290.78807         1230    9836.4043    10.472245            0 
     100    -296.8981    10.401526   -286.49658    752.05335    42929.357    10.472245  0.066969591 
     200   -293.58267    17.328542   -276.25412    1252.8919     58458.51    10.472245  0.077836086 
     300   -289.68117    20.802206   -268.87896    1504.0455    73727.731    10.472245  0.091906137 
     400   -290.61988    15.885425   -274.73446    1148.5513    67352.795    10.472245  0.098384225 
     500   -292.91946    18.975049   -273.94441     1371.938    63141.036    10.472245  0.073510009 
     600   -291.94529    15.955909   -275.98938    1153.6475    62161.022    10.472245  0.087688103 
     700   -290.18495    17.603716   -272.58123    1272.7876    70524.639    10.472245  0.097512819 
     800     -291.256     17.52787   -273.72813    1267.3038    66201.998    10.472245  0.085838769 
     900   -290.47809    15.203546   -275.27455      1099.25     66947.85    10.472245  0.093170626 
    1000   -289.87921    17.546406    -272.3328    1268.6439    72074.236    10.472245  0.087716468 
    1100   -291.01705      17.3372   -273.67985    1253.5179    68210.224    10.472245  0.089349785 
    1200   -290.29966    16.257706   -274.04196    1175.4681    69749.474    10.472245   0.10015551 
    1300   -288.28087    18.247255   -270.03362    1319.3169    76461.536    10.472245  0.096411491 
    1400   -293.17773    17.723137   -275.45459     1281.422        61024    10.472245  0.068301796 
    1500   -292.21383     17.83776   -274.37607    1289.7095    63698.656    10.472245  0.087457042 
    1600   -288.88486    18.456797   -270.42806    1334.4672    75070.407    10.472245   0.11428879 
    1700   -290.12323      16.3816   -273.74163    1184.4259    69302.068    10.472245   0.10738324 
    1800   -293.61837    17.711509   -275.90686    1280.5813    58368.424    10.472245  0.081402403 
    1900   -289.39098    16.335534   -273.05545    1181.0952    71293.596    10.472245  0.094441733 
    2000    -291.1315    17.164529   -273.96697    1241.0334    66867.897    10.472245  0.079223069 
    2100   -292.73602    17.381345   -275.35468    1256.7097    60925.589    10.472245  0.078140399 
    2200   -289.36747    18.206933   -271.16053    1316.4016    71936.403    10.472245  0.098301527 
    2300    -289.1154    18.111655   -271.00374    1309.5127    73778.671    10.472245   0.10181592 
    2400   -291.94922    16.217397   -275.73182    1172.5537    63378.638    10.472245  0.076327403 
    2500    -292.2605    16.109534   -276.15097    1164.7549    61966.671    10.472245   0.07233595 
    2600   -291.12746    17.846287   -273.28117     1290.326    67034.612    10.472245  0.082170917 
    2700   -290.22084    16.755182   -273.46566    1211.4367    69577.971    10.472245  0.085901494 
    2800    -292.5302    15.528242   -277.00196    1122.7263    61792.895    10.472245   0.07498233 
    2900   -291.90362    17.719771   -274.18385    1281.1786    64910.148    10.472245  0.071770489 
    3000   -288.38658    14.950027   -273.43655      1080.92    74197.594    10.472245   0.10284652 
    3100   -288.57971     18.89954   -269.68017    1366.4785    75915.054    10.472245  0.099519703 
    3200   -291.72593    17.836537    -273.8894    1289.6211    66011.547    10.472245  0.083672846 
    3300   -291.68027    15.916873    -275.7634    1150.8251     65469.21    10.472245  0.083871338 
    3400   -289.86791    18.219037   -271.64888    1317.2767    71706.126    10.472245  0.089471093 
    3500   -290.55972    17.561793   -272.99792    1269.7565    68720.833    10.472245  0.086334714 
    3600   -293.69472    15.943944   -277.75077    1152.7824    58087.896    10.472245  0.073442306 
    3700   -292.65239        17.96   -274.69239    1298.5478    60728.259    10.472245  0.080203152 
    3800   -292.20709    20.235956   -271.97113    1463.1044    65147.556    10.472245  0.084452881 
    3900   -290.89778    17.535955   -273.36183    1267.8884    67302.364    10.472245  0.092184835 
    4000   -292.61361    17.015394   -275.59822    1230.2506    61355.742    10.472245  0.082088436 
    4100   -291.78832    18.148914    -273.6394    1312.2066    65352.933    10.472245  0.090618023 
    4200   -291.53854    19.193158   -272.34538    1387.7078    66205.902    10.472245  0.089904526 
    4300   -292.02244    17.393087   -274.62935    1257.5586    63310.805    10.472245  0.084212619 
    4400    -291.2114    14.340704   -276.87069    1036.8646    65815.929    10.472245  0.082379796 
    4500   -290.96154    17.722868   -273.23867    1281.4026    67049.915    10.472245  0.075103387 
    4600   -289.93015    14.348193   -275.58196    1037.4061    68672.424    10.472245  0.089116994 
    4700   -290.46524    20.048679   -270.41657    1449.5638    71106.161    10.472245  0.088379104 
    4800   -289.17095    16.762732   -272.40822    1211.9826    73396.345    10.472245    0.1183086 
    4900   -289.94637    16.964996   -272.98138    1226.6068    70707.262    10.472245   0.11473234 
    5000   -290.96963    19.222351   -271.74728    1389.8185     67471.36    10.472245  0.088509838 
    5100   -292.02511    15.880988   -276.14412    1148.2306    64027.156    10.472245  0.074315229 
    5200   -292.70865    18.169183   -274.53947    1313.6721    61823.487    10.472245  0.080737226 
    5300   -289.56439    18.785856   -270.77853    1358.2589    72579.622    10.472245   0.10878435 
    5400   -287.91456    16.741647   -271.17292    1210.4581    77173.633    10.472245    0.1157303 
    5500   -291.17506    16.097813   -275.07724    1163.9075    64797.047    10.472245  0.093123321 
    5600   -291.08531    16.807543   -274.27777    1215.2226    67068.804    10.472245  0.082969562 
    5700   -290.16043    16.398073   -273.76236     1185.617     67986.69    10.472245  0.089299943 
    5800   -291.11972    16.761141   -274.35858    1211.8676    66464.836    10.472245  0.088151163 
    5900    -292.4511    19.087155   -273.36394    1380.0436    63927.987    10.472245  0.084057527 
    6000   -291.11678    16.796653   -274.32012    1214.4352    66357.368    10.472245  0.092585662 
    6100   -292.12185    16.344001   -275.77785    1181.7074    62497.256    10.472245  0.073940947 
    6200   -290.49687    15.823504   -274.67337    1144.0743    67490.889    10.472245  0.077104764 
    6300   -289.71587    17.846303   -271.86957    1290.3272    71241.684    10.472245  0.096323787 
    6400   -288.67224    16.067406   -272.60484     1161.709    75067.978    10.472245   0.10242622 
    6500   -292.12938    15.260455   -276.86892    1103.3646    63251.024    10.472245  0.079693866 
    6600   -290.99252    15.799984   -275.19254    1142.3738    66907.854    10.472245  0.085397133 
    6700   -288.82566     15.31589   -273.50977    1107.3727    73213.351    10.472245  0.095972466 
    6800   -291.24046    17.992424   -273.24804    1300.8921    67539.341    10.472245  0.082112563 
    6900   -291.31253    15.678817   -275.63371    1133.6131    66591.151    10.472245  0.088207238 
    7000    -290.1258    16.338943   -273.78686    1181.3417    69943.733    10.472245   0.08982019 
    7100   -289.50612    15.115706   -274.39042     1092.899    71422.334    10.472245  0.097863944 
    7200   -289.03926    15.554395   -273.48486    1124.6172    72525.284    10.472245  0.096504648 
    7300   -291.20372    17.420642   -273.78308    1259.5509    66936.949    10.472245   0.08600724 
    7400   -292.47451    16.602188   -275.87233    1200.3749    62170.704    10.472245  0.088128129 
    7500   -290.28399    18.675075   -271.60891    1350.2492    70371.843    10.472245  0.098187968 
    7600   -289.86799    16.789167   -273.07882    1213.8939    71133.039    10.472245   0.10161568 
    7700   -292.76872    14.928166   -277.84056    1079.3394    59584.984    10.472245    0.0804864 
    7800   -290.47068    17.464522   -273.00615    1262.7236    69081.523    10.472245  0.080212023 
    7900   -289.70451    15.906056   -273.79846     1150.043    70979.522    10.472245  0.090278268 
    8000   -291.07091     15.28412   -275.78679    1105.0757    66460.649    10.472245  0.090026902 
    8100   -290.03136    18.023914   -272.00744    1303.1689    71304.316    10.472245  0.085363835 
    8200   -290.97113    16.574783   -274.39635    1198.3934    66662.944    10.472245  0.084328177 
    8300   -292.36858    14.401239   -277.96734    1041.2414    61274.172    10.472245  0.075905154 
    8400    -291.1088    16.189566   -274.91923    1170.5415    66161.181    10.472245  0.077789318 
    8500   -290.61924    17.645428   -272.97381    1275.8035    69666.777    10.472245  0.093247765 
    8600   -291.66614    15.710915   -275.95523    1135.9339    64211.292    10.472245   0.09868853 
    8700   -287.91898    15.289497   -272.62948    1105.4645    74641.298    10.472245  0.098461821 
    8800   -290.36511    16.633305    -273.7318    1202.6248    69152.674    10.472245   0.08329841 
    8900   -291.44463    15.809732    -275.6349    1143.0786    64778.985    10.472245  0.087868008 
    9000    -289.9499    17.344753   -272.60515     1254.064    70521.794    10.472245  0.096937963 
    9100   -287.79073    19.714885   -268.07585    1425.4298    79751.347    10.472245   0.10786968 
    9200   -290.13682    17.420323    -272.7165    1259.5279    69102.785    10.472245  0.096612824 
    9300   -292.37312    16.178956   -276.19417    1169.7743    61614.578    10.472245  0.071556175 
    9400   -291.25173    15.250032    -276.0017     1102.611    66066.874    10.472245  0.082482466 
    9500   -288.19539    15.176625   -273.01877    1097.3035    76057.795    10.472245   0.10583385 
    9600   -289.95327    17.946712   -272.00656     1297.587    72068.459    10.472245  0.088357517 
    9700   -291.49387    15.925591   -275.56827    1151.4555    65643.266    10.472245  0.074513232 
    9800   -290.68702    15.550807   -275.13622    1124.3578    68670.661    10.472245  0.084425207 
    9900   -287.83177    18.106571    -269.7252    1309.1451    77619.254    10.472245   0.10017698 
   10000   -291.33405    17.657244    -273.6768    1276.6578    67388.368    10.472245  0.080766142 
Loop time of 2.59592 on 1 procs for 10000 steps with 108 atoms

Performance: 332.830 ns/day, 0.072 hours/ns, 3852.196 timesteps/s
100.0% CPU use with 1 MPI tasks x no OpenMP threads

MPI task timing breakdown:
Section |  min time  |  avg time  |  max time  |%varavg| %total
---------------------------------------------------------------
Pair    | 1.6454     | 1.6454     | 1.6454     |   0.0 | 63.38
Neigh   | 0.0044847  | 0.0044847  | 0.0044847  |   0.0 |  0.17
Comm    | 0.041753   | 0.041753   | 0.041753   |   0.0 |  1.61
Output  | 0.0016999  | 0.0016999  | 0.0016999  |   0.0 |  0.07
Modify  | 0.8929     | 0.8929     | 0.8929     |   0.0 | 34.40
Other   |            | 0.009677   |            |       |  0.37

Nlocal:    108 ave 108 max 108 min
Histogram: 1 0 0 0 0 0 0 0 0 0
Nghost:    990 ave 990 max 990 min
Histogram: 1 0 0 0 0 0 0 0 0 0
Neighs:    5479 ave 5479 max 5479 min
Histogram: 1 0 0 0 0 0 0 0 0 0

Total # of neighbors = 5479
Ave neighs/atom = 50.7315
Neighbor list builds = 19
Dangerous builds = 0
Total wall time: 0:00:02
