LAMMPS (3 Mar 2020)
Reading data file ...
  orthogonal box = (0 0 0) to (20.45 20.45 20.45)
  1 by 1 by 1 MPI processor grid
  reading atoms ...
  500 atoms
  read_data CPU = 0.00130397 secs
Reading potential file /usr/share/lammps-stable/potentials/Ag_u3.eam with DATE: 2007-06-11
Neighbor list info ...
  update every 1 steps, delay 10 steps, check yes
  max neighbors/atom: 2000, page size: 100000
  master list distance cutoff = 7.55
  ghost atom cutoff = 7.55
  binsize = 3.775, bins = 6 6 6
  2 neighbor lists, perpetual/occasional/extra = 1 1 0
  (1) pair eam, perpetual
      attributes: half, newton on
      pair build: half/bin/atomonly/newton
      stencil: half/bin/3d/newton
      bin: standard
  (2) compute rdf, occasional, copy from (1)
      attributes: half, newton on
      pair build: copy
      stencil: none
      bin: none
Setting up Verlet run ...
  Unit style    : metal
  Current step  : 0
  Time step     : 0.005
Per MPI rank memory allocation (min/avg/max) = 3.769 | 3.769 | 3.769 Mbytes
Step PotEng KinEng TotEng Temp Press Density c_msdall[4] 
       0        -1425    187.05236   -1237.9476         2900    23361.529    10.472245            0 
     100   -1298.6932    113.33251   -1185.3607     1757.071    105429.07    10.472245   0.17549581 
     200   -1258.8997    156.69791   -1102.2018    2429.3944     137349.6    10.472245   0.26428835 
     300   -1219.4559    193.49498   -1025.9609    2999.8844    166426.94    10.472245   0.40793339 
     400   -1200.0926    195.15271   -1004.9399    3025.5853    180401.47    10.472245    0.6165445 
     500   -1198.4484    184.53949   -1013.9089    2861.0414    178747.61    10.472245    1.2279529 
     600    -1167.117    185.11735   -981.99966    2870.0003    202657.88    10.472245    2.3118802 
     700   -1169.8541    194.28156   -975.57256    3012.0792    200724.93    10.472245    4.0966955 
     800   -1177.3981    181.15438   -996.24369    2808.5597     195444.9    10.472245    6.2940039 
     900   -1170.3969    183.28084   -987.11606    2841.5276    198646.56    10.472245    7.9361961 
    1000   -1170.7336    196.96664   -973.76693     3053.708     201352.8    10.472245    9.7267049 
    1100   -1172.7177    183.10837    -989.6093    2838.8537    198508.71    10.472245    11.745754 
    1200   -1169.8091    179.57505   -990.23408    2784.0743    197508.57    10.472245    13.301044 
    1300   -1175.1178    200.58049   -974.53731    3109.7359     198265.2    10.472245    14.956683 
    1400   -1170.5298    175.97947   -994.55036    2728.3296    200913.34    10.472245    16.705584 
    1500    -1173.441    190.48408   -982.95689    2953.2044    196064.34    10.472245    17.779559 
    1600   -1174.3604    192.50106   -981.85936     2984.475    197853.58    10.472245     19.23995 
    1700   -1178.9232    187.70967   -991.21355    2910.1908    195167.44    10.472245    21.434175 
    1800   -1170.8365    186.69446   -984.14208    2894.4513    199416.92    10.472245    23.346655 
    1900   -1169.9578    197.12528   -972.83255    3056.1674       200256    10.472245    25.191614 
    2000   -1181.1034    192.93036   -988.17304    2991.1307    193953.95    10.472245    26.783581 
    2100   -1167.6503    184.82404    -982.8263    2865.4529    201217.22    10.472245    28.466922 
    2200   -1168.9837    197.47004    -971.5137    3061.5125    201345.17    10.472245    29.752282 
    2300   -1188.0324    192.01448   -996.01792    2976.9312    189800.34    10.472245    30.901085 
    2400   -1172.7492    187.34993   -985.39924    2904.6136    198520.69    10.472245    32.664724 
    2500   -1158.1652     197.6246    -960.5406    3063.9086    209373.44    10.472245    34.628827 
    2600   -1158.5064    181.57534   -976.93106     2815.086    207455.12    10.472245    36.385984 
    2700   -1175.3909    188.54545   -986.84547    2923.1484    196806.17    10.472245    37.853122 
    2800   -1162.5515    188.60404   -973.94746    2924.0569    203610.85    10.472245    39.841939 
    2900   -1169.9723    196.55201   -973.42027    3047.2795     203431.3    10.472245    42.121792 
    3000   -1174.3173    183.62555   -990.69172    2846.8719    197195.16    10.472245    43.763511 
    3100   -1166.4763    195.78898   -970.68728    3035.4498    203252.75    10.472245    45.275935 
    3200   -1175.8395    185.83517   -990.00437    2881.1291    196085.74    10.472245    47.347918 
    3300    -1172.394    180.52422   -991.86974    2798.7899    198024.34    10.472245    49.596318 
    3400   -1164.7561    191.42129   -973.33484    2967.7345    204473.23    10.472245    51.543252 
    3500   -1177.6541    182.35822   -995.29585    2827.2236    193629.03    10.472245    52.502155 
    3600   -1179.8879    191.71933    -988.1686    2972.3552    193752.32    10.472245    53.919463 
    3700   -1165.5051    188.24367   -977.26146    2918.4698    202189.81    10.472245    55.068786 
    3800    -1169.258    184.77532   -984.48264    2864.6976    199361.81    10.472245    56.992266 
    3900   -1168.1555    182.81187   -985.34361    2834.2569    200820.06    10.472245    58.357616 
    4000   -1162.2392    196.02594   -966.21322    3039.1235     206539.2    10.472245    60.469064 
    4100   -1158.6995    181.71238   -976.98711    2817.2107    207186.99    10.472245    63.229293 
    4200   -1157.0528    174.54503    -982.5078    2706.0905    204044.25    10.472245    64.462764 
    4300    -1177.945    191.09421   -986.85084    2962.6635    196062.02    10.472245    66.328285 
    4400   -1180.5906    186.61046   -993.98009     2893.149    192800.85    10.472245    67.065604 
    4500   -1165.1034     186.0133   -979.09007    2883.8908    200246.43    10.472245    69.130203 
    4600   -1169.6964    178.59101   -991.10538    2768.8181    199656.14    10.472245    70.525054 
    4700    -1171.422    161.27974   -1010.1423    2500.4297    195360.26    10.472245    71.247452 
    4800   -1177.3693    193.79694   -983.57237    3004.5659    196980.53    10.472245    72.487727 
    4900   -1159.7915    190.75342   -969.03805    2957.3801    204088.85    10.472245    75.645273 
    5000   -1174.0264    183.58831   -990.43808    2846.2945    196672.71    10.472245    76.082625 
    5100   -1166.7714    184.41933   -982.35207    2859.1785    199594.42    10.472245    77.931122 
    5200    -1178.634     196.0167   -982.61733    3038.9803    197883.31    10.472245    78.942549 
    5300   -1167.1601    174.69221   -992.46793    2708.3722    199293.17    10.472245    80.319742 
    5400   -1169.5588    193.04132   -976.51751    2992.8511    199628.12    10.472245    81.700747 
    5500    -1168.796    180.75907    -988.0369     2802.431    201229.05    10.472245    82.553902 
    5600   -1164.4139    207.08931   -957.32458    3210.6466     207051.4    10.472245    84.916671 
    5700   -1170.3879     192.0901   -978.29784    2978.1036    199350.83    10.472245     88.09846 
    5800    -1173.801    185.56439   -988.23662     2876.931    198210.24    10.472245     90.75304 
    5900   -1176.4048    181.85158   -994.55326    2819.3688    196506.43    10.472245    92.157762 
    6000   -1174.1738    200.26063   -973.91312    3104.7769    200352.94    10.472245    94.666802 
    6100   -1175.3343    184.39636   -990.93797    2858.8222    197133.61    10.472245    95.947675 
    6200   -1175.4005    186.22382   -989.17672    2887.1546    196377.92    10.472245    97.681837 
    6300   -1165.0966    184.75617   -980.34039    2864.4007    202371.23    10.472245    99.888039 
    6400   -1164.0508    172.36077      -991.69    2672.2264    200500.13    10.472245    100.30775 
    6500   -1165.2436    185.62328    -979.6203     2877.844       201028    10.472245    101.47347 
    6600   -1170.8945    196.10462   -974.78992    3040.3434    199864.36    10.472245    102.43875 
    6700   -1180.8935    193.92496   -986.96851    3006.5507    193324.56    10.472245    104.77203 
    6800   -1174.8723    189.17468   -985.69766    2932.9038    196488.22    10.472245    106.94617 
    6900   -1158.8961    199.31832   -959.57781    3090.1675    207949.51    10.472245    109.90821 
    7000   -1172.7321    191.05955   -981.67259    2962.1263    198326.55    10.472245    113.14818 
    7100   -1180.6048    191.08534   -989.51949    2962.5261    192370.79    10.472245    116.79513 
    7200   -1158.4175    191.50744   -966.91005    2969.0702    209002.43    10.472245    117.35854 
    7300   -1170.2655     187.0652   -983.20032    2900.1992    199826.64    10.472245    119.82507 
    7400    -1180.171    187.80186   -992.36914    2911.6201    191831.18    10.472245    123.57038 
    7500   -1168.9491    186.48761   -982.46147    2891.2444    199162.03    10.472245    126.05183 
    7600   -1158.3946    182.32049   -976.07414    2826.6387    206411.33    10.472245    126.96328 
    7700   -1177.2924    180.11288   -997.17949    2792.4126    193778.72    10.472245    129.95307 
    7800   -1173.8568    191.81928   -982.03754    2973.9049    198695.42    10.472245    130.32303 
    7900   -1170.6553    194.73138   -975.92391    3019.0532    199982.37    10.472245    130.77697 
    8000   -1182.5634    187.28777   -995.27566    2903.6498     190710.3    10.472245     133.9649 
    8100   -1165.5697    190.93526   -974.63445    2960.1994    200618.84    10.472245    134.04174 
    8200    -1166.125     190.2379   -975.88714    2949.3877    202406.01    10.472245    134.68934 
    8300   -1175.4409    186.85167   -988.58919    2896.8887     194429.6    10.472245     136.8374 
    8400   -1174.1006    188.68106   -985.41953    2925.2509    198722.21    10.472245    137.89912 
    8500   -1166.9822     197.0753   -969.90688    3055.3925     202307.6    10.472245    140.14915 
    8600   -1171.6003    183.32937   -988.27092      2842.28    196822.07    10.472245    141.61308 
    8700   -1172.1764    188.29361   -983.88281    2919.2439    200268.75    10.472245    144.28349 
    8800   -1172.1507    191.69755   -980.45311    2972.0176    198678.22    10.472245    146.20034 
    8900   -1176.1609    186.85064   -989.31029    2896.8726     194577.4    10.472245    148.67145 
    9000   -1159.1415    191.09484   -968.04669    2962.6734    206354.35    10.472245    150.64318 
    9100   -1179.1554     195.5183   -983.63713    3031.2533    194930.32    10.472245    151.59149 
    9200   -1176.7805    193.49704   -983.28348    2999.9163    195995.52    10.472245    154.76562 
    9300   -1179.5322    192.51209   -987.02008     2984.646    195012.62    10.472245    155.41677 
    9400   -1178.1109    187.96239   -990.14848    2914.1088    195737.03    10.472245    157.49331 
    9500   -1161.2971    187.24253   -974.05461    2902.9483    204318.88    10.472245    159.58488 
    9600   -1170.5985    186.05643   -984.54207    2884.5595    198850.84    10.472245    160.14197 
    9700   -1179.7529    183.11362   -996.63931     2838.935    193537.43    10.472245    161.32479 
    9800   -1162.5663    189.15937   -973.40698    2932.6664    203855.81    10.472245    163.06945 
    9900   -1166.2862    188.28564   -978.00057    2919.1205    198907.52    10.472245    164.88631 
   10000   -1172.5191    176.23243   -996.28665    2732.2513    197914.56    10.472245    166.64515 
   10100   -1178.5536    180.30059   -998.25299    2795.3227    193998.71    10.472245    169.52196 
   10200   -1165.9993    189.63944   -976.35988    2940.1094    202876.69    10.472245    170.58359 
   10300   -1173.6654     190.8494   -982.81601    2958.8682    199466.97    10.472245    171.69613 
   10400   -1172.8177     180.1092   -992.70846    2792.3555    195408.93    10.472245    173.91495 
   10500   -1163.9194    192.61234   -971.30709    2986.2002    203600.41    10.472245    176.53766 
   10600   -1176.9128    185.12174   -991.79109    2870.0684    196518.17    10.472245    178.46355 
   10700   -1170.5651    187.69594   -982.86916    2909.9779    200042.14    10.472245    180.94784 
   10800   -1160.3442    203.56406   -956.78015    3155.9922    206624.74    10.472245    181.88091 
   10900   -1169.3152    195.66926   -973.64593    3033.5937    199879.02    10.472245    184.42573 
   11000   -1178.1832    184.75188    -993.4313    2864.3341    195758.23    10.472245    186.57392 
   11100   -1158.1496    181.67898   -976.47058    2816.6929    206283.58    10.472245    188.88088 
   11200   -1162.5837    186.93246   -975.65123    2898.1411    202256.85    10.472245    191.33905 
   11300   -1167.0298    175.00407   -992.02569    2713.2073    199877.87    10.472245    193.13328 
   11400   -1157.1963    182.62189   -974.57442    2831.3115    207504.29    10.472245    194.42759 
   11500   -1166.2046    197.97665   -968.22798    3069.3668    204881.52    10.472245    194.99058 
   11600   -1167.0547    183.87918   -983.17552     2850.804    200488.23    10.472245    197.11429 
   11700   -1182.1167    191.37483   -990.74185    2967.0143    193944.04    10.472245    199.00764 
   11800   -1168.9314    188.25753   -980.67383    2918.6847    202049.87    10.472245    201.11635 
   11900   -1157.3986    185.35162   -972.04695    2873.6324    205458.54    10.472245    203.21309 
   12000   -1171.4945    179.34297   -992.15148    2780.4761    197788.41    10.472245    206.99358 
   12100    -1169.697    193.04826   -976.64879    2992.9586     200453.9    10.472245    209.66983 
   12200   -1178.4817    181.02935    -997.4523    2806.6212    192874.58    10.472245      213.274 
   12300   -1161.2669    173.15045   -988.11642    2684.4693    200467.93    10.472245    215.32388 
   12400   -1171.7782    192.73366   -979.04452    2988.0812    199575.57    10.472245    218.02321 
   12500   -1179.6375    185.63897   -993.99856    2878.0873    193431.56    10.472245    218.99184 
   12600   -1181.7476    175.34627   -1006.4014    2718.5126    191164.69    10.472245    220.11071 
   12700    -1167.071     186.1699   -980.90111    2886.3187    200446.23    10.472245    219.85084 
   12800   -1172.9955    184.88312   -988.11234    2866.3689    197106.62    10.472245    220.40483 
   12900   -1175.7363    178.11822   -997.61809    2761.4881    194329.92    10.472245    220.59595 
   13000    -1154.343    183.84533   -970.49768    2850.2792    208737.87    10.472245    221.99948 
   13100   -1181.6424    196.99046   -984.65197    3054.0773    193201.39    10.472245    224.49126 
   13200   -1171.6566    179.86744   -991.78916    2788.6073    196110.14    10.472245    226.13151 
   13300   -1167.3485     190.0001   -977.34836    2945.7008    201327.95    10.472245    228.41441 
   13400    -1156.962    204.08729   -952.87466    3164.1043    208703.31    10.472245    231.27026 
   13500   -1173.1031    194.51148   -978.59161    3015.6439    197000.58    10.472245    231.39435 
   13600   -1163.2625    175.72021   -987.54232    2724.3101    202970.49    10.472245    232.93541 
   13700   -1165.1883     194.0659   -971.12237    3008.7357    202069.24    10.472245    236.90785 
   13800   -1180.5176    180.26179   -1000.2558    2794.7212    191558.31    10.472245    238.57351 
   13900   -1177.8116    196.48394   -981.32765    3046.2243    196445.57    10.472245    241.44307 
   14000   -1158.6661    182.04092   -976.62518    2822.3044    206235.74    10.472245    242.88236 
   14100   -1169.9891    201.94955   -968.03959    3130.9614     202815.7    10.472245    244.77738 
   14200     -1175.45    182.62125   -992.82879    2831.3015    195335.51    10.472245    245.00346 
   14300   -1173.5114    189.10667    -984.4047    2931.8495    198187.44    10.472245    246.58021 
   14400    -1165.531    197.92955   -967.60142    3068.6365    201658.19    10.472245    249.93363 
   14500   -1161.1696    183.59967   -977.56989    2846.4707    204247.35    10.472245    250.84469 
   14600    -1175.871    176.74887   -999.12211    2740.2581    196092.05    10.472245    253.30106 
   14700   -1176.2161    181.64121   -994.57491    2816.1073    196024.69    10.472245    256.55734 
   14800   -1174.7566    196.47441   -978.28219    3046.0765     198685.3    10.472245    258.24428 
   14900    -1174.209    187.94341   -986.26555    2913.8147    197047.56    10.472245    258.20312 
   15000   -1154.4475    193.14488   -961.30259    2994.4566    209956.81    10.472245    258.79799 
   15100   -1165.7138     190.5765   -975.13731    2954.6372    201070.95    10.472245    260.28033 
   15200   -1177.3734    186.72164    -990.6518    2894.8727    194706.25    10.472245    262.26934 
   15300   -1166.7124    184.36289   -982.34946    2858.3034    198160.49    10.472245    263.67817 
   15400   -1153.2102    186.95363   -966.25655    2898.4694     209077.3    10.472245    267.03391 
   15500   -1167.2363    183.09238   -984.14392    2838.6058    199941.64    10.472245    271.15961 
   15600   -1167.7757    181.86438   -985.91129    2819.5672    200374.15    10.472245    274.13397 
   15700   -1168.0237     186.5072   -981.51649    2891.5481    199717.15    10.472245    276.72992 
   15800     -1161.55      175.279   -986.27098    2717.4697    203455.08    10.472245    277.23121 
   15900   -1183.0239    191.37965   -991.64424     2967.089    193193.99    10.472245    279.16329 
   16000    -1168.666    193.42529   -975.24068    2998.8039    200678.46    10.472245    281.06018 
   16100   -1160.0833    179.40489   -980.67843    2781.4361    204243.22    10.472245    282.98114 
   16200   -1163.0592    176.89527   -986.16396    2742.5277    203095.59    10.472245    283.99077 
   16300     -1160.01     177.5978   -982.41223    2753.4196    204944.25    10.472245    283.79176 
   16400   -1177.1469    195.56501   -981.58188    3031.9775    196387.21    10.472245    285.53546 
   16500    -1175.094    189.25502   -985.83898    2934.1494    195486.27    10.472245    287.65245 
   16600   -1178.5821    188.64927    -989.9328    2924.7581    195051.75    10.472245    290.91082 
   16700   -1166.7467    201.58914   -965.15753    3125.3737    202328.01    10.472245    290.05912 
   16800   -1169.6296    191.43157   -978.19807    2967.8939    200763.51    10.472245    290.38186 
   16900   -1167.3813    177.61942   -989.76192    2753.7548    198999.29    10.472245    292.01149 
   17000   -1157.8661    191.55521   -966.31092    2969.8109    207338.35    10.472245    293.76653 
   17100   -1169.2709    193.82443   -975.44646     3004.992    201801.89    10.472245    293.48091 
   17200   -1174.0058    187.16202    -986.8438    2901.7003    197423.17    10.472245    293.57871 
   17300    -1155.984    195.93674   -960.04731    3037.7406    209671.02    10.472245    294.59112 
   17400   -1166.7979    188.23967   -978.55823    2918.4078    201322.26    10.472245    294.91393 
   17500   -1175.5781    195.05352   -980.52454    3024.0475    196707.18    10.472245    295.01047 
   17600   -1159.7871    196.24913   -963.53793    3042.5838    206165.85    10.472245    298.63992 
   17700    -1174.012    189.51238   -984.49961    2938.1394    195668.52    10.472245    301.46042 
   17800   -1167.4858    182.38418   -985.10158    2827.6261    203179.78    10.472245     303.7547 
   17900   -1168.8712    196.28486   -972.58636    3043.1378    201864.63    10.472245    306.00435 
   18000   -1179.3659    184.84351   -994.52239    2865.7547    193706.83    10.472245    308.47454 
   18100   -1159.2543    185.51308   -973.74121    2876.1356    205689.32    10.472245    308.72309 
   18200   -1171.7322    191.72969   -980.00251    2972.5159    199340.77    10.472245    311.62726 
   18300   -1172.2869    185.29332   -986.99356    2872.7285    199188.87    10.472245    313.39807 
   18400   -1160.8804    179.73812   -981.14227    2786.6024    204852.75    10.472245      314.158 
   18500   -1170.7198    190.33013   -980.38966    2950.8175    200142.64    10.472245    317.72371 
   18600   -1176.8389     191.1816   -985.65726    2964.0184     196222.6    10.472245    319.23118 
   18700   -1157.1136    179.37068   -977.74288    2780.9057    207381.79    10.472245    320.53051 
   18800    -1165.331    191.01013   -974.32088    2961.3601     200085.8    10.472245    325.02795 
   18900   -1176.9726    181.99074   -994.98181    2821.5264    192426.07    10.472245    328.05488 
   19000   -1164.2327    192.40774   -971.82496    2983.0282    201328.15    10.472245     330.5577 
   19100   -1175.7167    195.93993    -979.7768    3037.7901    195829.64    10.472245    331.04367 
   19200   -1171.4156    175.96874   -995.44685    2728.1632    199315.82    10.472245    332.41634 
   19300     -1162.28      188.408   -973.87203    2921.0176    204437.11    10.472245    333.58361 
   19400    -1166.019    181.54706   -984.47193    2814.6477    202686.87    10.472245    334.64849 
   19500    -1170.493    176.70631   -993.78669    2739.5982    197690.45    10.472245     335.6878 
   19600   -1166.2447    192.08307   -974.16159    2977.9945    201747.44    10.472245    337.45934 
   19700   -1162.9105    178.43644   -984.47406    2766.4216    203936.29    10.472245    339.74169 
   19800    -1179.816    174.76454   -1005.0514    2709.4936    191930.24    10.472245    341.37472 
   19900   -1182.5194    190.23678   -992.28259    2949.3702    193711.33    10.472245    342.85869 
   20000   -1177.6273    196.67417   -980.95315    3049.1735    196907.57    10.472245    344.66657 
   20100   -1169.6543    192.57269   -977.08156    2985.5855    199335.83    10.472245    348.59273 
   20200   -1161.8538    185.79967   -976.05417    2880.5787    203991.69    10.472245    351.55383 
   20300   -1181.1071    189.60438   -991.50275    2939.5658    191337.41    10.472245    354.25149 
   20400   -1173.4909    192.89052   -980.60041     2990.513    200192.85    10.472245    356.72239 
   20500   -1169.4552    189.29039   -980.16483    2934.6978    200900.63    10.472245    357.80945 
   20600   -1182.0895    186.78306   -995.30647     2895.825    192456.17    10.472245    360.39923 
   20700   -1168.5407    191.10196   -977.43879    2962.7837    199396.86    10.472245    361.10336 
   20800   -1161.1397    178.65482   -982.48491    2769.8072     202074.7    10.472245    363.11796 
   20900   -1175.9947    180.15457   -995.84016     2793.059    195564.86    10.472245    366.11888 
   21000   -1180.0917    180.21453   -999.87721    2793.9886    190774.76    10.472245    366.89996 
   21100   -1166.7485    189.66388   -977.08461    2940.4882    202099.11    10.472245    369.44541 
   21200   -1171.4027    191.81992   -979.58275    2973.9148     199385.7    10.472245    369.98206 
   21300   -1177.7899    175.78323   -1002.0067    2725.2871    191179.64    10.472245    372.45422 
   21400    -1175.925    197.29351   -978.63149    3058.7756    197578.12    10.472245    372.97534 
   21500   -1164.8129    179.07126   -985.74166    2776.2637     203177.9    10.472245    376.07016 
   21600   -1169.9306    192.66248   -977.26817    2986.9775    200349.09    10.472245    376.08885 
   21700   -1164.9701    188.29573   -976.67434    2919.2769    203059.85    10.472245    377.85569 
   21800   -1169.5782    173.09186   -996.48631    2683.5609    196789.81    10.472245    381.22342 
   21900   -1162.8839    192.18576   -970.69812    2979.5867    203099.48    10.472245    380.31771 
   22000     -1177.95    191.49635   -986.45366    2968.8982    195733.32    10.472245    381.93532 
   22100   -1177.2277    182.39727   -994.83047     2827.829    195700.58    10.472245    388.05666 
   22200   -1170.4236    189.75638   -980.66726    2941.9224     198998.2    10.472245    389.20235 
   22300   -1159.8222    185.37114   -974.45108     2873.935    205558.27    10.472245    389.72647 
   22400   -1173.2488    174.11101    -999.1378    2699.3615    196383.65    10.472245    391.12531 
   22500   -1167.0934    181.84418    -985.2492    2819.2541    202646.07    10.472245    392.34425 
   22600   -1171.0453    193.59964   -977.44566     3001.507    198630.37    10.472245    392.64533 
   22700   -1168.6485    177.65377   -990.99471    2754.2873    200330.17    10.472245    392.94843 
   22800   -1185.7382    176.53732   -1009.2009    2736.9782    186241.94    10.472245    395.82524 
   22900    -1157.993    176.88185   -981.11113    2742.3197    207385.11    10.472245    394.19233 
   23000   -1166.8916    186.50354    -980.3881    2891.4913    199559.58    10.472245    396.33085 
   23100   -1174.6298    177.15727   -997.47253    2746.5897    196163.75    10.472245    399.33348 
   23200   -1176.0204    179.09163   -996.92874    2776.5795    194398.46    10.472245    399.23363 
   23300   -1166.6831    188.96455   -977.71851    2929.6461    200423.97    10.472245    399.03482 
   23400   -1182.6765    187.46801   -995.20848    2906.4442    192945.19    10.472245    399.16457 
   23500   -1169.6824    189.53156   -980.15088    2938.4368    202404.21    10.472245    399.58067 
   23600   -1155.1175    178.59595   -976.52154    2768.8945    208150.34    10.472245    401.25911 
   23700   -1172.9515    178.32691   -994.62458    2764.7235    198263.23    10.472245    401.63931 
   23800   -1167.5455    189.52843   -978.01706    2938.3883    201997.73    10.472245    402.60517 
   23900   -1168.4887    188.57119    -979.9175    2923.5475    202760.04    10.472245    406.20831 
   24000   -1169.6676    179.30058   -990.36698    2779.8189    197353.13    10.472245    407.30507 
   24100   -1164.4027    187.02668   -977.37603     2899.602    203228.84    10.472245    412.11398 
   24200   -1172.6176    191.26815   -981.34945    2965.3603     197455.6    10.472245    414.94616 
   24300   -1182.3152    183.79688   -998.51834    2849.5281    190893.53    10.472245    414.79557 
   24400   -1167.5091     197.1261   -970.38302    3056.1802    203285.81    10.472245    416.78113 
   24500   -1171.3737    187.64268   -983.73106    2909.1523     199956.7    10.472245    419.28876 
   24600   -1174.4662     191.0975   -983.36869    2962.7147    194175.13    10.472245    420.42271 
   24700   -1156.0208    198.85778   -957.16304    3083.0275    210197.06    10.472245    424.74119 
   24800    -1167.145    194.42099   -972.72404    3014.2409    202507.42    10.472245    426.56399 
   24900   -1180.7206    186.74288   -993.97771     2895.202    191188.01    10.472245    431.00751 
   25000   -1179.1377    187.31412   -991.82361    2904.0583    194780.36    10.472245    432.07654 
   25100   -1160.5904    186.12554   -974.46481     2885.631    204994.26    10.472245      434.289 
   25200    -1177.412    191.28642   -986.12559    2965.6436    194951.82    10.472245    433.36437 
   25300   -1165.4434    175.68827   -989.75517    2723.8148    200821.03    10.472245    433.96942 
   25400   -1167.1464    195.35458   -971.79185     3028.715    200992.25    10.472245    436.51602 
   25500   -1168.7807    177.49021   -991.29045    2751.7515    197520.69    10.472245    436.78018 
   25600   -1167.9416    184.27525   -983.66637    2856.9446    200362.15    10.472245    437.81608 
   25700   -1154.8615    190.69338   -964.16812    2956.4492    207855.21    10.472245    438.10457 
   25800    -1174.015     187.5321   -986.48294    2907.4378    199344.17    10.472245    441.18421 
   25900   -1169.1593    191.06328   -978.09605    2962.1841    200782.86    10.472245    442.19047 
   26000   -1166.2479    204.69825   -961.54966    3173.5763    205353.22    10.472245    444.75614 
   26100   -1171.6473    184.71702   -986.93029    2863.7937    197664.99    10.472245    445.44382 
   26200   -1177.1072    185.68858   -991.41858    2878.8565    196359.78    10.472245    448.02309 
   26300   -1174.1604    186.89097   -987.26942    2897.4979    197751.29    10.472245    447.01276 
   26400   -1165.4725    193.67664   -971.79589    3002.7008    204700.17    10.472245    447.95113 
   26500   -1178.4754    184.70542   -993.76995    2863.6139    192582.32    10.472245      451.765 
   26600   -1177.3415     189.0694   -988.27215    2931.2716    197065.44    10.472245    454.18226 
   26700    -1169.299    196.22121   -973.07774     3042.151    201369.91    10.472245    457.48614 
   26800   -1165.0453    197.69345    -967.3519    3064.9761     202873.6    10.472245    458.67987 
   26900   -1171.2324    181.27235   -989.96008    2810.3887    198876.87    10.472245    460.80639 
   27000   -1167.4582    184.54561   -982.91262    2861.1362    199366.95    10.472245     460.5626 
   27100    -1170.046    198.77708   -971.26894    3081.7764    199907.38    10.472245    461.30851 
   27200   -1173.8117    178.95144   -994.86023     2774.406    196542.34    10.472245    461.61227 
   27300   -1173.9209    187.75531   -986.16557    2910.8983     196910.4    10.472245    462.14544 
   27400   -1165.7549    185.77592   -979.97898    2880.2106     200988.9    10.472245    464.02577 
   27500   -1165.6033    180.54362   -985.05967    2799.0907    204243.35    10.472245    468.32218 
   27600   -1174.1595    177.66984   -996.48968    2754.5365    194439.07    10.472245    471.01707 
   27700   -1169.1753    192.62651   -976.54876    2986.4198    202309.71    10.472245    471.16386 
   27800   -1167.6932    179.31475   -988.37846    2780.0386    196395.22    10.472245    471.17847 
   27900   -1159.0891    190.56162   -968.52747    2954.4065    207569.48    10.472245    474.04284 
   28000    -1175.218    193.47874   -981.73922    2999.6326    194888.72    10.472245     478.7957 
   28100   -1172.7392    182.34397   -990.39527    2827.0026    196235.07    10.472245    478.85204 
   28200   -1164.9991    197.49757   -967.50154    3061.9393    203228.13    10.472245    480.13983 
   28300   -1169.5231    188.82883   -980.69422    2927.5419     200345.3    10.472245      482.352 
   28400   -1175.5463    191.41604   -984.13024    2967.6531    195906.21    10.472245    482.95749 
   28500   -1164.0605    198.68071   -965.37982    3080.2823    203497.02    10.472245    483.79832 
   28600   -1170.7002    191.10159   -979.59862    2962.7781    198627.54    10.472245    485.81002 
   28700   -1175.9108    192.72242   -983.18841    2987.9069    194203.79    10.472245    486.39135 
   28800   -1168.8786    204.60709   -964.27149     3172.163    203964.07    10.472245     487.9685 
   28900    -1159.938    174.59084   -985.34715    2706.8006    203971.69    10.472245    488.63875 
   29000   -1166.9172    184.64733   -982.26987    2862.7133    200359.77    10.472245    489.39631 
   29100   -1163.5186    189.95182   -973.56681    2944.9523    202856.12    10.472245    489.61227 
   29200   -1178.6317    181.39629   -997.23538    2812.3102    191898.64    10.472245    490.10507 
   29300   -1176.9604    191.32595   -985.63447    2966.2565    194038.39    10.472245    493.08617 
   29400   -1157.5787    194.72689   -962.85178    3018.9835    209748.57    10.472245    493.51317 
   29500   -1176.4339    191.25801    -985.1759    2965.2031    196988.36    10.472245    494.96812 
   29600   -1166.0949    184.60377   -981.49118    2862.0378    200463.86    10.472245    498.07181 
   29700   -1161.0033    191.50163   -969.50166    2968.9802    205896.87    10.472245    502.50213 
   29800   -1178.8868    191.25401   -987.63279     2965.141     193633.1    10.472245    506.36469 
   29900   -1162.1125     179.7895   -982.32299     2787.399    204233.05    10.472245    505.75364 
   30000   -1173.7347    197.66291   -976.07177    3064.5026    199153.34    10.472245    506.63491 
   30100   -1162.5965    177.21244   -985.38409    2747.4451       202886    10.472245    506.08943 
   30200   -1158.5802    193.14734   -965.43282    2994.4947    208588.03    10.472245    509.34548 
   30300     -1168.04    189.25206   -978.78796    2934.1035    200597.42    10.472245    510.42062 
   30400    -1176.905    188.56985   -988.33514    2923.5267    194799.11    10.472245    514.83118 
   30500   -1181.2338    189.44073   -991.79311    2937.0286     192280.7    10.472245    512.29475 
   30600   -1168.5311    187.97057   -980.56057    2914.2358    199662.39    10.472245    513.77166 
   30700   -1167.3522    189.11966   -978.23258    2932.0508    201464.38    10.472245    515.47659 
   30800   -1186.6834     189.2114   -997.47196    2933.4731    190288.52    10.472245    516.99445 
   30900   -1175.5766      183.624   -991.95264    2846.8479    194175.55    10.472245    517.44411 
   31000   -1177.6552    192.64225   -985.01292     2986.664    194713.87    10.472245    519.12198 
   31100   -1156.9377    187.39136   -969.54639    2905.2558    206148.18    10.472245    521.02493 
   31200   -1175.2715    179.48028   -995.79119    2782.6049    197249.65    10.472245     523.5901 
   31300   -1180.2737    198.73936   -981.53432    3081.1915    194022.41    10.472245     526.8463 
   31400   -1167.3701    193.87532   -973.49483     3005.781    202124.98    10.472245    529.54032 
   31500   -1183.5481     181.3236   -1002.2245    2811.1832    191159.11    10.472245    528.99371 
   31600   -1182.1384    198.04506    -984.0933    3070.4273     193662.5    10.472245    531.31491 
   31700    -1166.447    183.16218   -983.28485    2839.6879    200496.93    10.472245    531.89611 
   31800   -1175.3841    171.58084   -1003.8033    2660.1346    193909.65    10.472245    535.93674 
   31900   -1172.7041    191.49009   -981.21399    2968.8013    198332.57    10.472245    535.56861 
   32000   -1181.2126    193.19752   -988.01506    2995.2726    195021.37    10.472245    535.49788 
   32100   -1188.1978    179.52217   -1008.6756    2783.2544    186532.84    10.472245    535.81474 
   32200   -1163.8213    182.10046    -981.7208    2823.2273     201166.6    10.472245    537.04379 
   32300   -1164.1009    190.59405   -973.50685    2954.9093    204823.47    10.472245    539.06739 
   32400   -1176.6149    182.55029   -994.06457    2830.2014    195049.96    10.472245    541.03215 
   32500   -1162.0878    184.07269    -978.0151    2853.8042    204760.39    10.472245    543.40341 
   32600   -1168.0754    185.67044   -982.40493    2878.5752    200490.38    10.472245    548.10906 
   32700   -1173.1618    196.00143   -977.16041    3038.7435    199031.34    10.472245    549.87303 
   32800   -1173.2051    189.90195   -983.30316    2944.1791    198532.63    10.472245    550.61203 
   32900   -1171.5887    175.77768     -995.811     2725.201    195895.17    10.472245    550.61887 
   33000   -1161.7184    191.54967   -970.16871     2969.725    205300.08    10.472245     551.2184 
   33100   -1165.8665    180.68366   -985.18286    2801.2617    201282.05    10.472245    551.85263 
   33200   -1167.2423    182.29088   -984.95145    2826.1795     198755.8    10.472245    553.35949 
   33300    -1168.152    185.25979   -982.89218    2872.2086    200469.93    10.472245    555.40977 
   33400   -1170.3937    189.15723   -981.23648    2932.6332    200045.13    10.472245    554.76896 
   33500   -1173.6635    183.13899   -990.52446    2839.3284    197382.92    10.472245    556.53129 
   33600   -1176.7826    176.91248   -999.87011    2742.7946    193622.23    10.472245    555.00992 
   33700   -1166.9477    186.33068   -980.61702    2888.8113    202908.38    10.472245    555.78039 
   33800   -1161.3513    180.49381   -980.85748    2798.3185    208044.58    10.472245    555.36018 
   33900   -1169.9928    168.18669   -1001.8061    2607.5128    198370.94    10.472245    558.64671 
   34000   -1164.2993    182.73802   -981.56126    2833.1119    201918.48    10.472245    560.12107 
   34100   -1165.7581    185.62841   -980.12973    2877.9235    202618.49    10.472245    561.25934 
   34200   -1174.3278    170.60983    -1003.718    2645.0804    195779.07    10.472245    563.48107 
   34300   -1174.0792    189.28244    -984.7968    2934.5745    196091.45    10.472245    563.91707 
   34400   -1168.3266    189.38574   -978.94089     2936.176    200998.48    10.472245    567.50207 
   34500   -1168.2095     179.8509   -988.35861    2788.3509    197840.71    10.472245    569.34349 
   34600   -1167.8738    190.43306   -977.44074    2952.4133    200880.79    10.472245    575.74287 
   34700   -1154.4867    181.93603   -972.55068    2820.6782    209351.11    10.472245    579.08918 
   34800   -1176.0547    182.12612   -993.92853    2823.6253     195515.7    10.472245    581.19424 
   34900   -1157.9643    179.88741    -978.0769    2788.9169    206220.45    10.472245    583.97624 
   35000    -1171.397    196.76503   -974.63197    3050.5822    199351.93    10.472245    583.85901 
   35100   -1175.7961    187.16452   -988.63158    2901.7389    196800.23    10.472245     585.7242 
   35200   -1167.8874    183.87692   -984.01045     2850.769    200008.62    10.472245    586.77442 
   35300   -1173.2828    192.33834    -980.9445    2981.9522       198720    10.472245    589.19187 
   35400   -1176.2514    182.03592   -994.21545    2822.2267    195015.87    10.472245    590.19535 
   35500    -1173.956    191.73043   -982.22552    2972.5273    197150.99    10.472245    590.97459 
   35600   -1161.0182    189.18583   -971.83235    2933.0766    205393.92    10.472245    590.30221 
   35700   -1175.6384    193.95216   -981.68623    3006.9724    195466.21    10.472245    594.51855 
   35800   -1168.4324    191.35799   -977.07436    2966.7532    202416.05    10.472245    594.06867 
   35900   -1156.7672    193.74359   -963.02364    3003.7388    207197.18    10.472245    593.63845 
   36000   -1167.3228    179.09478   -988.22805    2776.6283    198606.26    10.472245    595.81694 
   36100   -1164.6272    185.99919   -978.62799    2883.6721     201030.3    10.472245    595.40496 
   36200   -1162.9321    195.41012   -967.52196    3029.5762    205308.91    10.472245        598.3 
   36300   -1171.5973    183.65325   -987.94408    2847.3013    198029.38    10.472245    599.26958 
   36400   -1163.8641    190.71126   -973.15281    2956.7265    203699.06    10.472245    602.03184 
   36500   -1162.1486    173.26663   -988.88202    2686.2706     203531.4    10.472245    599.21144 
   36600   -1171.2995    189.50286   -981.79666    2937.9918    199699.02    10.472245    603.38474 
   36700   -1154.5971    188.01729   -966.57986      2914.96    207400.73    10.472245    601.73268 
   36800   -1161.5622    193.73578   -967.82639    3003.6177    206613.99    10.472245    605.98326 
   36900   -1180.3644    193.13146   -987.23291    2994.2485    193611.52    10.472245    609.76802 
   37000   -1172.3366    184.59391   -987.74265     2861.885    200094.63    10.472245    608.15093 
   37100   -1161.7713    195.23194   -966.53934    3026.8137    204888.89    10.472245    609.43717 
   37200   -1171.7642    183.05008    -988.7141      2837.95    197868.01    10.472245    610.90722 
   37300   -1165.4648     183.4855   -981.97933    2844.7007    201316.95    10.472245    611.44142 
   37400   -1171.3725     199.2941   -972.07835    3089.7921    201171.29    10.472245    616.48301 
   37500   -1182.9788    189.17534   -993.80349    2932.9141    191124.55    10.472245    616.81119 
   37600   -1161.6633    181.55693   -980.10637    2814.8007    205290.16    10.472245    619.39034 
   37700   -1174.9413    191.06082   -983.88043     2962.146    197940.71    10.472245    621.46554 
   37800   -1169.1808    176.55444   -992.62636    2737.2437    199618.44    10.472245    623.56306 
   37900   -1170.8125    194.62468   -976.18786    3017.3988    198863.12    10.472245    624.85863 
   38000   -1175.7365    185.73195    -990.0045    2879.5289    195873.19    10.472245    628.60241 
   38100   -1180.2317    177.19164   -1003.0401    2747.1226    190158.31    10.472245    629.61961 
   38200   -1181.0972    196.41546   -984.68172    3045.1625    194930.42    10.472245    634.48859 
   38300   -1178.5001    205.14789   -973.35218    3180.5474    196902.34    10.472245    636.26113 
   38400   -1163.6463    166.09595   -997.55033    2575.0985    201012.51    10.472245    639.14332 
   38500   -1171.3071    192.75584   -978.55122     2988.425    200739.41    10.472245    640.14277 
   38600   -1176.5215    191.51255   -985.00891    2969.1494     194643.4    10.472245    642.12412 
   38700   -1166.7217    179.81784   -986.90381    2787.8384    201106.71    10.472245    644.57323 
   38800   -1167.1938    204.93216   -962.26163    3177.2028    204741.25    10.472245    643.59187 
   38900   -1171.1327     180.3599   -990.77277    2796.2423     197944.6    10.472245    646.26709 
   39000   -1173.7498     196.5969    -977.1529    3047.9756    197947.88    10.472245     649.9917 
   39100   -1171.7999    185.80981   -985.99013     2880.736    197318.33    10.472245     653.8818 
   39200   -1178.1996    182.71945   -995.48018     2832.824    192999.44    10.472245    655.09582 
   39300   -1169.9784    189.71087   -980.26753    2941.2167    199667.81    10.472245    654.05848 
   39400    -1175.715    193.14348   -982.57149    2994.4348    195997.47    10.472245    655.32094 
   39500   -1172.7131    171.78491   -1000.9282    2663.2983    195581.11    10.472245    656.68177 
   39600   -1166.9204     187.8205   -979.09986    2911.9091    202862.54    10.472245    658.38046 
   39700   -1172.3425    194.09561    -978.2469    3009.1964    198112.83    10.472245    659.36709 
   39800   -1175.6714    172.81078   -1002.8606    2679.2032    193150.25    10.472245    658.41168 
   39900   -1176.8533    186.94335   -989.90997      2898.31    196638.49    10.472245    659.58017 
   40000   -1170.4731    183.29698    -987.1761    2841.7779    199421.31    10.472245    661.07854 
   40100   -1173.1208    198.40052    -974.7203    3075.9383    198356.56    10.472245     663.3812 
   40200   -1159.8257     176.5944   -983.23126    2737.8631    205291.71    10.472245    663.89136 
   40300   -1168.0138    182.38523   -985.62861    2827.6424     197705.7    10.472245    666.27757 
   40400   -1165.6239    195.64834   -969.97557    3033.2694    205105.38    10.472245    665.22147 
   40500   -1176.8473    184.79771   -992.04961    2865.0447    195171.45    10.472245    669.28542 
   40600    -1177.801    187.37938   -990.42164    2905.0701    195882.83    10.472245    673.23201 
   40700    -1173.544    191.42952   -982.11452    2967.8622    199085.51    10.472245    675.93989 
   40800   -1167.9575    182.47688   -985.48064    2829.0633    198809.33    10.472245    677.96238 
   40900   -1169.0213    185.12604   -983.89526     2870.135    198325.23    10.472245    679.08061 
   41000   -1163.3348    196.33454   -967.00023     3043.908    203607.51    10.472245    680.34546 
   41100   -1166.8406    182.42602    -984.4146    2828.2748     200167.9    10.472245    681.26867 
   41200   -1174.6632    191.16337   -983.49984    2963.7359    194623.34    10.472245     682.4573 
   41300   -1164.5464     197.7727   -966.77367    3066.2047    203587.17    10.472245    684.20449 
   41400    -1173.031    180.83741   -992.19357    2803.6455    196067.87    10.472245    684.44231 
   41500   -1173.9423    194.31624   -979.62601    3012.6169    197093.36    10.472245    684.87279 
   41600   -1171.1619     187.1401   -984.02182    2901.3604    198730.49    10.472245    688.53459 
   41700   -1169.3483    173.37467   -995.97358    2687.9455     199034.1    10.472245    693.38489 
   41800   -1166.6105    190.86406   -975.74644    2959.0954    202475.63    10.472245    696.21494 
   41900    -1174.799    189.92304   -984.87593    2944.5061    196694.73    10.472245    697.07404 
   42000   -1173.3498    178.43322   -994.91661    2766.3716    199023.53    10.472245    696.90626 
   42100   -1166.8313    185.65683   -981.17451    2878.3642    200620.68    10.472245    697.63212 
   42200    -1164.601    185.14048   -979.46049     2870.359    202921.84    10.472245    698.15019 
   42300   -1187.7864    189.17512   -998.61129    2932.9107    188491.84    10.472245    699.80352 
   42400   -1160.1381    174.26751   -985.87061    2701.7879    202726.92    10.472245    703.83915 
   42500   -1171.1591    191.41395   -979.74516    2967.6208    200834.38    10.472245    702.56049 
   42600   -1167.5346    179.89936   -987.63525    2789.1023    200660.23    10.472245    702.25201 
   42700    -1164.359     188.1389   -976.22006    2916.8454    203024.78    10.472245    702.00843 
   42800   -1179.1754    192.79529   -986.38013    2989.0366    193761.18    10.472245    699.18765 
   42900   -1180.0946    190.37357   -989.72107     2951.491    192835.04    10.472245     700.6279 
   43000   -1159.4253    187.53781   -971.88745    2907.5263    206369.69    10.472245    701.35552 
   43100   -1172.8309    192.34689   -980.48404    2982.0848    197569.91    10.472245    703.91617 
   43200   -1167.5631    185.21885   -982.34423    2871.5739    202159.43    10.472245     702.7419 
   43300   -1174.7599    189.96271    -984.7972    2945.1212    199424.29    10.472245    701.72838 
   43400   -1179.3361    204.48332   -974.85275    3170.2441     195396.8    10.472245    703.12415 
   43500   -1168.1469    179.18339   -988.96348    2778.0021    200496.29    10.472245    704.60183 
   43600   -1172.8282    184.35048   -988.47769     2858.111    198438.25    10.472245    707.18625 
   43700   -1166.1665    190.71232   -975.45416    2956.7429    202588.56    10.472245     706.5912 
   43800    -1182.257    194.13501   -988.12201    3009.8073    194045.54    10.472245    709.32021 
   43900   -1168.1358    203.88374   -964.25202    3160.9484    203715.06    10.472245    710.71308 
   44000   -1163.9959    193.80618   -970.18975    3004.7091    204603.66    10.472245    708.55578 
   44100   -1176.2498    193.61283   -982.63698    3001.7114    197453.55    10.472245    711.27458 
   44200   -1169.1075     165.4441   -1003.6634    2564.9925    196191.65    10.472245    712.98035 
   44300   -1173.4577    188.03892   -985.41877    2915.2955    196839.53    10.472245    711.09851 
   44400   -1160.5632    184.21592   -976.34725    2856.0247    203010.51    10.472245    713.61488 
   44500   -1180.1657    182.40763   -997.75806    2827.9897    191698.21    10.472245    717.09614 
   44600   -1174.3185    187.67344   -986.64508     2909.629    196843.56    10.472245    720.03415 
   44700   -1171.0719    185.28287   -985.78904    2872.5665    198220.77    10.472245    726.02627 
   44800   -1160.6468    201.12045   -959.52636    3118.1073     206752.4    10.472245    729.07567 
   44900   -1163.1596    187.28296   -975.87661    2903.5753    203721.71    10.472245    728.75567 
   45000   -1165.7659    184.22121   -981.54471    2856.1068    203481.56    10.472245    727.05428 
   45100   -1179.8509    180.19241   -999.65846    2793.6456    192758.05    10.472245    727.18222 
   45200   -1172.5396    184.92438   -987.61519    2867.0085    199337.77    10.472245    727.03866 
   45300   -1166.5383    186.06389   -980.47437    2884.6751    200812.91    10.472245     726.1222 
   45400   -1165.6498    178.36565   -987.28415    2765.3241    201244.96    10.472245    730.32406 
   45500   -1172.3377    188.38157   -983.95611    2920.6078    198571.49    10.472245    729.21309 
   45600   -1163.0521    192.95994   -970.09211    2991.5893     204157.7    10.472245    732.63937 
   45700   -1171.7587    178.49503   -993.26371    2767.3299    197116.33    10.472245    735.66961 
   45800    -1163.966    181.75851   -982.20749    2817.9259    202614.03    10.472245    739.50681 
   45900   -1173.5753    191.54639   -982.02895    2969.6741    200016.18    10.472245    738.84304 
   46000   -1180.6777    179.21381   -1001.4639    2778.4737    190231.94    10.472245    738.48331 
   46100    -1157.178    178.94219   -978.23584    2774.2625    206364.28    10.472245    738.10701 
   46200   -1165.0648     189.6039   -975.46087    2939.5584     201883.6    10.472245    740.98489 
   46300   -1180.6147    184.13646   -996.47825    2854.7929    192163.85    10.472245    744.28802 
   46400   -1167.6083    184.00159   -983.60674     2852.702    200424.13    10.472245     747.3731 
   46500   -1171.0464    191.76481    -979.2816    2973.0604    199921.27    10.472245    750.80121 
   46600   -1182.6799    184.80115   -997.87871    2865.0981    192736.88    10.472245    750.32808 
   46700   -1165.5828     186.8125   -978.77032    2896.2814    202671.87    10.472245    748.90352 
   46800   -1172.7558    177.23442    -995.5214    2747.7859    195896.27    10.472245    752.35102 
   46900    -1192.273    194.24664   -998.02632    3011.5379    184770.58    10.472245    754.19276 
   47000   -1165.9799    182.50719   -983.47266    2829.5332     200856.8    10.472245      753.876 
   47100   -1155.6401    185.77859   -969.86155    2880.2519    207368.11    10.472245     754.8228 
   47200   -1167.7252    182.00636   -985.71884    2821.7685    202302.75    10.472245    756.21247 
   47300   -1179.2331    182.78899   -996.44407    2833.9021    193619.39    10.472245     761.2915 
   47400   -1161.3063    192.45212   -968.85422    2983.7163    206872.61    10.472245    760.76142 
   47500   -1160.7876    181.37218   -979.41541    2811.9363    204490.87    10.472245    761.74435 
   47600   -1183.3949    184.48426   -998.91064     2860.185    190636.66    10.472245    766.72012 
   47700   -1171.8302    167.70172   -1004.1284     2599.994    195138.47    10.472245    767.14908 
   47800   -1166.6373    185.06932   -981.56802    2869.2556    200619.88    10.472245    766.30326 
   47900   -1172.6905    187.12598    -985.5645    2901.1414     198179.6    10.472245     769.9844 
   48000   -1170.5559    169.71364   -1000.8422    2631.1861    198412.62    10.472245    769.59483 
   48100    -1162.997    188.44312   -974.55388     2921.562    202764.16    10.472245    772.75624 
   48200   -1172.6514    182.74557   -989.90583     2833.229    197494.83    10.472245    776.79536 
   48300   -1173.7583    182.25964    -991.4987    2825.6953    196727.45    10.472245    779.21028 
   48400   -1166.2582    186.28496   -979.97326    2888.1026    200979.35    10.472245     780.9671 
   48500   -1176.6796    192.73771   -983.94186     2988.144     197520.1    10.472245    787.01597 
   48600    -1179.795    179.04942   -1000.7456     2775.925    190936.41    10.472245    786.55091 
   48700   -1161.1969    185.52025   -975.67665    2876.2467     205848.7    10.472245     788.7647 
   48800   -1166.8419    187.19663   -979.64528    2902.2367    200288.59    10.472245    792.78687 
   48900   -1181.3706    180.28798   -1001.0826    2795.1273    192454.97    10.472245    791.26116 
   49000   -1172.4407    190.56041   -981.88034    2954.3877    200223.11    10.472245    789.38275 
   49100   -1174.7762    191.54306   -983.23316    2969.6224    196009.39    10.472245    792.45662 
   49200   -1181.7676    190.87182   -990.89582    2959.2158    192242.23    10.472245    794.72128 
   49300   -1166.6401    196.91143   -969.72872    3052.8519    202529.32    10.472245    796.59267 
   49400   -1171.0664    177.49315   -993.57324    2751.7971    198803.28    10.472245    801.96829 
   49500   -1173.0569    188.62141   -984.43547    2924.3261    198997.38    10.472245    802.40274 
   49600    -1156.861    186.36647   -970.49452    2889.3662    206912.12    10.472245    802.70384 
   49700   -1162.7991    183.76108   -979.03804    2848.9731    204728.01    10.472245    804.71719 
   49800    -1176.008     184.6073   -991.40067    2862.0926    198842.76    10.472245    806.42755 
   49900   -1164.8419    195.40379   -969.43808     3029.478    203831.25    10.472245    805.74637 
   50000   -1162.8145    197.12931   -965.68514      3056.23    205158.92    10.472245    805.63016 
   50100   -1170.3459    184.97721   -985.36867    2867.8276    199821.95    10.472245    807.67144 
   50200    -1173.502    194.51818   -978.98386    3015.7478    198359.29    10.472245    807.78691 
   50300   -1166.2617    192.24236   -974.01931    2980.4642     202156.2    10.472245    810.96426 
   50400   -1169.0931    177.65865   -991.43441     2754.363    199898.73    10.472245    810.92504 
   50500   -1159.3315    183.04204   -976.28944    2837.8254    205628.76    10.472245    811.05998 
   50600   -1169.5395    176.18724   -993.35226    2731.5508    197837.02    10.472245    812.37651 
   50700   -1168.4142    180.32933   -988.08491    2795.7684    196820.95    10.472245      814.539 
   50800   -1172.2139    196.45293   -975.76093    3045.7435    199824.81    10.472245    820.12805 
   50900   -1177.5621    180.57344   -996.98866     2799.553    194574.21    10.472245    822.42837 
   51000    -1169.995    180.12923   -989.86581     2792.666    199274.35    10.472245    825.85255 
   51100   -1168.0418    185.48593   -982.55592    2875.7146    198157.36    10.472245    827.00275 
   51200   -1178.6251    189.89049   -988.73458    2944.0015    195823.39    10.472245    831.92238 
   51300   -1172.3315    175.57735   -996.75418    2722.0952    196297.59    10.472245    834.28823 
   51400    -1168.381    192.07573   -976.30525    2977.8807    199552.36    10.472245    838.33156 
   51500   -1174.5917    189.55443    -985.0373    2938.7914    197713.04    10.472245    839.84719 
   51600    -1178.277     189.5076   -988.76943    2938.0653     194729.7    10.472245    845.94858 
   51700   -1182.5432    178.52975   -1004.0135    2767.8682    191681.22    10.472245    847.06377 
   51800   -1171.2657    191.12218   -980.14353    2963.0972    198914.11    10.472245    846.99229 
   51900   -1177.2675    195.42487   -981.84263    3029.8047    197206.55    10.472245    847.97457 
   52000   -1169.4218    172.00498    -997.4168    2666.7102    198014.85    10.472245    850.70625 
   52100   -1171.3934    184.64918   -986.74427    2862.7419    198846.85    10.472245    850.53646 
   52200   -1167.3007    190.10842   -977.19228    2947.3803    201397.12    10.472245    852.15974 
   52300   -1169.4204    185.24072   -984.17969     2871.913    199045.88    10.472245    852.89085 
   52400   -1158.9295    177.40677   -981.52271    2750.4579    204530.68    10.472245    850.37787 
   52500   -1161.4688    192.45543   -969.01336    2983.7675    206645.59    10.472245     854.2319 
   52600   -1171.0984    189.59955   -981.49883    2939.4909    200277.62    10.472245    854.71341 
   52700   -1180.3499    190.47503   -989.87485     2953.064    194671.46    10.472245    855.48311 
   52800   -1162.0037    189.90632   -972.09734    2944.2469    206381.85    10.472245      857.051 
   52900   -1157.3374    180.32549   -977.01186    2795.7088    205209.09    10.472245    858.27074 
   53000   -1171.4928    185.21004   -986.28272    2871.4373    196998.63    10.472245    864.72636 
   53100   -1168.7755     186.6861    -982.0894    2894.3217    200462.01    10.472245     867.8573 
   53200   -1159.0652    182.03812   -977.02708    2822.2609    206549.56    10.472245    866.04633 
   53300   -1168.9778    177.42894    -991.5489    2750.8016    197429.22    10.472245    869.90683 
   53400   -1168.9114    190.91548   -977.99588    2959.8926    202190.59    10.472245    869.07542 
   53500     -1166.11    184.10536   -982.00464    2854.3107    203739.63    10.472245    870.02477 
   53600   -1160.4859    173.05909   -987.42681    2683.0529    203421.64    10.472245    869.75568 
   53700   -1163.2615       190.61   -972.65152    2955.1565    202815.32    10.472245    867.23678 
   53800   -1174.5274    183.64489   -990.88251    2847.1718    195467.12    10.472245    866.37923 
   53900   -1176.4495    180.29697   -996.15258    2795.2666     194407.2    10.472245    870.25051 
   54000   -1163.8784    185.65473   -978.22369    2878.3316    202123.91    10.472245    873.07992 
   54100   -1176.6387    182.45412   -994.18462    2828.7105    195000.31    10.472245    876.91208 
   54200   -1170.9153    187.18207   -983.73322    2902.0111    199789.78    10.472245    880.10093 
   54300    -1167.255    190.70106   -976.55395    2956.5684    201160.88    10.472245    881.23514 
   54400    -1162.098    173.79903     -988.299    2694.5247     204124.5    10.472245    887.55406 
   54500   -1166.2368    202.44562   -963.79119    3138.6523    202956.08    10.472245    891.70028 
   54600   -1155.9605    172.97278   -982.98776    2681.7148    204437.24    10.472245    896.69874 
   54700   -1171.9728    189.52024   -982.45254    2938.2613     198747.9    10.472245    898.08187 
   54800   -1162.5372    186.98153   -975.55567    2898.9019    205210.09    10.472245    895.97683 
   54900   -1155.2964     198.0418   -957.25458    3070.3769    209757.48    10.472245    899.92306 
   55000    -1183.097    195.39022   -987.70681    3029.2676    191213.86    10.472245    903.67524 
   55100   -1175.4455    191.03633   -984.40914    2961.7662    196973.98    10.472245    906.90241 
   55200   -1163.2972    191.65502   -971.64219    2971.3583    204588.07    10.472245    907.45326 
   55300   -1176.2936    175.55906   -1000.7345    2721.8116    193693.81    10.472245    913.60594 
   55400   -1176.1554    194.79539   -981.35999    3020.0455    196716.58    10.472245    917.93137 
   55500     -1166.27    193.52417   -972.74578    3000.3369    202063.89    10.472245    918.65885 
   55600   -1177.5237    181.70268     -995.821    2817.0603    194478.39    10.472245    919.30332 
   55700   -1167.8403    181.90041   -985.93994    2820.1258    202307.42    10.472245    919.81638 
   55800   -1168.4309    192.49094   -975.93994     2984.318    200678.18    10.472245    924.35482 
   55900   -1176.2236    187.39482   -988.82879    2905.3094    195446.76    10.472245    927.11676 
   56000   -1179.7259     186.8513   -992.87457    2896.8829    194059.47    10.472245     928.8044 
   56100    -1167.157    194.67727    -972.4797    3018.2143    201639.69    10.472245    929.72152 
   56200   -1166.0898    180.42617   -985.66359    2797.2698    200467.03    10.472245    932.09963 
   56300   -1176.1048    184.88166   -991.22317    2866.3463    195831.01    10.472245     933.4991 
   56400   -1165.5845    189.68804   -975.89644    2940.8628    202877.33    10.472245    936.00588 
   56500   -1183.0513    194.24769   -988.80365    3011.5542    192956.42    10.472245    939.21539 
   56600   -1174.7811    179.70426   -995.07682    2786.0774    196057.23    10.472245    943.47342 
   56700    -1178.568    196.96707   -981.60091    3053.7146    194038.58    10.472245    946.67428 
   56800   -1173.8522    189.22578   -984.62641     2933.696    197547.99    10.472245    946.76278 
   56900   -1171.6717    184.82616    -986.8455    2865.4858    199020.31    10.472245    945.79778 
   57000   -1161.9031    192.41393   -969.48916    2983.1241    204378.21    10.472245    948.76369 
   57100   -1181.9176    190.97595   -990.94161    2960.8302    193043.91    10.472245    952.76851 
   57200   -1171.3724    184.13439   -987.23806    2854.7608    197989.14    10.472245    952.17816 
   57300   -1162.3401    189.10424   -973.23581    2931.8118    204439.66    10.472245    953.97521 
   57400   -1180.4081    187.59456   -992.81352    2908.4061    192444.18    10.472245    954.66089 
   57500   -1169.6199    184.21645   -985.40347     2856.033     200521.4    10.472245    953.71115 
   57600   -1162.6643    188.79361   -973.87069    2926.9959    205218.07    10.472245    957.73222 
   57700   -1187.7602    187.68401   -1000.0761     2909.793    189667.51    10.472245    956.62529 
   57800   -1177.0468    190.62123    -986.4256    2955.3307    194148.67    10.472245    957.80289 
   57900   -1174.6436    191.54798   -983.09563    2969.6988    195564.57    10.472245    961.93793 
   58000   -1169.4151    172.59386    -996.8212    2675.8401    199308.92    10.472245    961.84143 
   58100   -1165.6299    190.07524   -975.55467    2946.8658    203614.13    10.472245     964.6632 
   58200   -1170.4173    191.58357   -978.83376    2970.2505    199845.96    10.472245    967.24214 
   58300   -1175.5619     175.1085   -1000.4534    2714.8262    196253.81    10.472245    968.43907 
   58400   -1169.8198    187.24954   -982.57024    2903.0572    197202.09    10.472245    968.15935 
   58500   -1169.5329    190.73055   -978.80234    2957.0256    200616.34    10.472245    967.53943 
   58600   -1175.0381    172.42145   -1002.6166    2673.1671    193801.44    10.472245    970.11782 
   58700   -1165.5483    180.64229     -984.906    2800.6204    203201.95    10.472245    972.68147 
   58800   -1163.4883     189.5731   -973.91521    2939.0809    204233.46    10.472245    974.76742 
   58900   -1177.2076    181.32025   -995.88733    2811.1313    192501.62    10.472245    975.33489 
   59000   -1176.8579    194.34532    -982.5126    3013.0679    195345.99    10.472245    981.78726 
   59100   -1158.9617    184.43835   -974.52332    2859.4733    206067.79    10.472245    984.27306 
   59200   -1180.5161    188.91845   -991.59765    2928.9313    193012.54    10.472245    987.08676 
   59300   -1170.3544    200.35419   -970.00019    3106.2274    200304.15    10.472245    989.55386 
   59400   -1157.0716    178.29283   -978.77872    2764.1952    207734.92    10.472245    986.32195 
   59500   -1169.3342    178.99295   -990.34123    2775.0496    199518.55    10.472245    987.41263 
   59600   -1163.9073    183.21316   -980.69417    2840.4784    203051.21    10.472245    991.67245 
   59700   -1164.9376    178.66465   -986.27295    2769.9597    203774.92    10.472245    990.56774 
   59800   -1171.7181    207.47789   -964.24024     3216.671    201161.63    10.472245    992.23917 
   59900   -1176.0176    192.20206   -983.81549    2979.8394     198714.7    10.472245    993.41592 
   60000   -1160.1301    177.75656    -982.3735    2755.8809    202859.77    10.472245    994.46722 
   60100   -1163.9903    191.95606   -972.03421    2976.0255    203316.12    10.472245    996.94645 
   60200   -1168.0251    171.82169   -996.20339    2663.8686    199325.89    10.472245    997.25953 
   60300   -1152.4248    174.96321   -977.46156    2712.5738    208195.24    10.472245    994.79624 
   60400    -1165.661    192.50839   -973.15259    2984.5886    202758.08    10.472245    998.45922 
   60500   -1181.6809    191.04093      -990.64    2961.8375    191910.64    10.472245    1000.4374 
   60600   -1170.9687    182.22817   -988.74056    2825.2074    198059.44    10.472245     1003.291 
   60700   -1159.9181     191.9724   -967.94567    2976.2788    205202.58    10.472245    1005.4514 
   60800   -1168.6989    183.83698   -984.86196    2850.1499    202199.33    10.472245    1008.6875 
   60900   -1186.6457    177.46197   -1009.1837    2751.3138    186767.83    10.472245    1008.6701 
   61000   -1171.4313    180.32568   -991.10564    2795.7117    195493.73    10.472245    1005.6073 
   61100   -1167.8434    192.93492   -974.90849    2991.2013    201825.09    10.472245    1009.6829 
   61200   -1159.2169    174.83373   -984.38313    2710.5664    203284.14    10.472245    1013.3561 
   61300   -1171.1678     180.8881   -990.27965    2804.4314    197808.89    10.472245     1015.621 
   61400   -1179.3549      202.878   -976.47688    3145.3557    196331.14    10.472245    1019.4233 
   61500   -1167.3421    179.66846   -987.67361    2785.5224    200786.28    10.472245    1019.1073 
   61600   -1158.4914    196.99731   -961.49409    3054.1835    205884.45    10.472245    1023.0279 
   61700   -1168.1882    186.75038   -981.43781    2895.3183    201877.88    10.472245    1025.7391 
   61800   -1173.6473     189.8906   -983.75673    2944.0032    198128.79    10.472245    1026.7334 
   61900   -1164.3291     197.7141   -966.61496    3065.2963     204146.3    10.472245    1028.3105 
   62000    -1172.504    192.57885   -979.92511     2985.681    198213.28    10.472245    1028.9431 
   62100   -1177.4191    188.29015   -989.12896    2919.1904    194503.75    10.472245    1028.5495 
   62200   -1154.3466     186.0368   -968.30983    2884.2551    209376.68    10.472245    1031.2287 
   62300   -1175.1963    196.46039   -978.73596    3045.8591    198275.77    10.472245     1039.168 
   62400   -1170.8184      183.804   -987.01438    2849.6385     200578.9    10.472245    1041.0811 
   62500   -1170.5924    198.34759   -972.24484    3075.1177    200582.59    10.472245    1038.8237 
   62600   -1167.8081    189.46377    -978.3443    2937.3858    200071.45    10.472245    1039.8831 
   62700   -1170.4334    183.26471   -987.16867    2841.2775    197908.11    10.472245    1046.4713 
   62800    -1164.299    186.50872   -977.79029    2891.5716    202635.44    10.472245    1050.3302 
   62900   -1168.3267    179.76535    -988.5614    2787.0246    200083.59    10.472245    1049.5462 
   63000   -1167.4903    179.60166   -987.88868    2784.4868    200227.53    10.472245    1052.6823 
   63100   -1163.7371    191.59315   -972.14395     2970.399    206399.43    10.472245    1052.6516 
   63200   -1170.4987    178.45098   -992.04772     2766.647    197218.04    10.472245    1052.4045 
   63300   -1187.5532    188.53818   -999.01497    2923.0358    189965.35    10.472245     1054.274 
   63400   -1169.4113    184.25521   -985.15604     2856.634    199805.09    10.472245    1057.6949 
   63500   -1168.5133    196.47583   -972.03747    3046.0985    202248.73    10.472245    1061.4127 
   63600   -1160.0928    198.17657   -961.91619    3072.4663    205710.99    10.472245    1061.2457 
   63700   -1174.8902    186.92746   -987.96279    2898.0636    197527.96    10.472245    1063.3192 
   63800   -1167.7235     186.6966   -981.02694    2894.4845     199480.8    10.472245    1063.7061 
   63900   -1158.6805    187.86061   -970.81993    2912.5308    208024.22    10.472245    1066.5803 
   64000   -1175.1916    182.17192   -993.01964    2824.3353    195760.72    10.472245    1068.4315 
   64100   -1164.3273    179.02995    -985.2973    2775.6232    201405.04    10.472245    1071.4103 
   64200   -1167.0313    192.41476   -974.61659    2983.1369     200943.9    10.472245    1073.9755 
   64300   -1172.3727    177.13638   -995.23628    2746.2659    196656.79    10.472245    1077.6672 
   64400    -1163.042    185.96325   -977.07875    2883.1148    203290.43    10.472245    1076.3866 
   64500   -1170.8399    194.06271   -976.77718    3008.6863    199272.24    10.472245    1081.1883 
   64600   -1180.6675    187.20144   -993.46601    2902.3114       193466    10.472245    1084.3679 
   64700   -1173.7207    178.97836   -994.74234    2774.8233    195369.36    10.472245    1082.2447 
   64800   -1174.1892    192.39037    -981.7988    2982.7588    198082.07    10.472245    1083.5894 
   64900   -1155.7347    183.84866     -971.886    2850.3309    206343.88    10.472245     1083.521 
   65000   -1173.6605    187.40093   -986.25958    2905.4041    196996.96    10.472245    1087.5139 
   65100   -1184.4988    192.13618   -992.36266     2978.818    191583.77    10.472245    1087.5012 
   65200   -1158.4699    187.65463   -970.81524    2909.3374       207647    10.472245    1089.2391 
   65300   -1157.2941    189.98466   -967.30945    2945.4615     208239.2    10.472245    1090.2428 
   65400   -1170.5108    190.94281   -979.56801    2960.3164     200073.2    10.472245    1094.2341 
   65500   -1174.4563    179.35934   -995.09691      2780.73     196103.4    10.472245     1096.284 
   65600   -1162.0124    184.76744   -977.24497    2864.5755    206006.94    10.472245    1097.9657 
   65700    -1167.167    188.88872   -978.27831    2928.4704    200171.23    10.472245    1098.3668 
   65800   -1175.9609    184.57659   -991.38428    2861.6165    195667.38    10.472245    1106.4977 
   65900    -1166.693     184.0649   -982.62811    2853.6834    200896.24    10.472245    1108.5423 
   66000   -1161.0723    200.86856   -960.20375    3114.2021    207666.52    10.472245     1108.622 
   66100   -1160.7226    190.01384   -970.70877    2945.9139    208224.29    10.472245    1109.4789 
   66200   -1166.8898    181.46419   -985.42561    2813.3628    201621.92    10.472245    1107.9581 
   66300   -1161.0776    184.47089   -976.60669    2859.9777    206654.21    10.472245    1108.4876 
   66400   -1169.0297    196.22165   -972.80802    3042.1577    200550.25    10.472245    1111.8104 
   66500   -1162.2521    176.28667    -985.9654    2733.0922    203259.54    10.472245    1117.5679 
   66600   -1161.3291    182.83854   -978.49053    2834.6704    205430.99    10.472245    1116.4266 
   66700   -1182.1043    177.44895   -1004.6553    2751.1118    193010.52    10.472245    1114.0997 
   66800    -1168.241    170.94894   -997.29203    2650.3378    197566.08    10.472245    1113.2232 
   66900   -1179.6252    201.65938    -977.9658    3126.4626    194307.58    10.472245    1111.8543 
   67000   -1178.7833    189.47101   -989.31227    2937.4981    193995.86    10.472245    1110.8183 
   67100   -1173.2352    174.60476    -998.6304    2707.0164     196538.8    10.472245    1109.0524 
   67200   -1160.1999     184.8608   -975.33909    2866.0229    206427.23    10.472245     1110.404 
   67300     -1160.41    178.38105   -982.02898    2765.5628    205054.06    10.472245     1111.047 
   67400   -1168.6014    183.10873   -985.49269    2838.8592    199575.36    10.472245    1110.4285 
   67500   -1160.5429    192.33551   -968.20743    2981.9083    205437.04    10.472245    1111.0278 
   67600   -1166.5101    180.60968   -985.90039    2800.1148    200107.23    10.472245    1111.4326 
   67700   -1168.3051     181.5579   -986.74724    2814.8157    201390.12    10.472245    1115.6668 
   67800   -1177.8104    187.82466    -989.9857    2911.9735    195714.01    10.472245    1116.7084 
   67900    -1180.978     190.9759   -990.00214    2960.8293    193317.79    10.472245    1118.1816 
   68000   -1165.4238    193.55711   -971.86672    3000.8476    201952.07    10.472245    1117.3689 
   68100   -1178.3322    181.72688   -996.60531    2817.4356    196541.79    10.472245    1119.3046 
   68200     -1165.28    180.01558   -985.26442    2790.9041     201283.2    10.472245     1118.048 
   68300     -1168.12     186.9348    -981.1852    2898.1775    203537.76    10.472245    1121.7784 
   68400   -1163.2317    177.43264   -985.79905    2750.8589    201699.58    10.472245    1127.8144 
   68500   -1176.3716    197.22548   -979.14607    3057.7209    197442.19    10.472245    1130.6349 
   68600   -1181.0769    178.88967   -1002.1872    2773.4483    192178.86    10.472245    1131.9529 
   68700   -1170.9087    178.97069     -991.938    2774.7045    197929.91    10.472245    1134.6163 
   68800   -1175.8962    194.41627    -981.4799    3014.1678    195538.21    10.472245    1137.0335 
   68900   -1178.3978     184.4076   -993.99019    2858.9966    194207.56    10.472245     1140.478 
   69000   -1175.2654    179.15155    -996.1139    2777.5084    194378.91    10.472245    1140.3785 
   69100   -1171.1106    196.55804   -974.55256    3047.3731    201128.54    10.472245    1142.4101 
   69200   -1177.8073    195.82332   -981.98396    3035.9823    197331.43    10.472245    1149.0514 
   69300   -1182.1388    191.04192   -991.09686    2961.8529    193607.25    10.472245    1152.2143 
   69400   -1171.4327    193.61551   -977.81718     3001.753    201662.49    10.472245     1151.662 
   69500   -1181.9967    181.41734   -1000.5793    2812.6365    192268.59    10.472245     1152.305 
   69600   -1165.7823    183.43131   -982.35096    2843.8605    200936.66    10.472245    1151.7772 
   69700   -1159.5918    181.07927    -978.5125    2807.3952    207656.38    10.472245    1157.7983 
   69800   -1172.3118    174.39928   -997.91248    2703.8308    196381.45    10.472245    1159.1796 
   69900   -1169.2721    189.66761   -979.60454     2940.546    200597.19    10.472245    1161.4646 
   70000   -1171.6646    194.62569   -977.03889    3017.4146    200886.95    10.472245    1159.7794 
   70100   -1181.6436    183.09882   -998.54475    2838.7056    191741.14    10.472245    1158.0204 
   70200   -1179.1116    191.09988   -988.01174    2962.7515    194926.75    10.472245    1159.9533 
   70300   -1169.0017    188.10082   -980.90084    2916.2551    200292.22    10.472245    1164.1118 
   70400    -1156.463    200.89497   -955.56807    3114.6114    210920.34    10.472245    1165.2273 
   70500   -1165.2881    185.21943   -980.06868     2871.583    200731.59    10.472245    1168.1782 
   70600   -1182.4167    194.33177   -988.08494    3012.8576    191688.63    10.472245    1170.1076 
   70700   -1176.8914    185.31095   -991.58048    2873.0018    193678.56    10.472245    1170.1394 
   70800   -1166.2685    192.67916   -973.58931    2987.2362    203137.24    10.472245     1177.421 
   70900   -1173.0907    193.52675   -979.56396     3000.377    199063.64    10.472245    1177.3218 
   71000   -1174.8735    179.95535    -994.9182    2789.9703     195194.1    10.472245    1182.3249 
   71100   -1177.0075    196.98536   -980.02209    3053.9981    196355.83    10.472245    1184.9586 
   71200   -1177.3845    179.26458   -998.11996    2779.2608    194815.31    10.472245    1188.6818 
   71300   -1165.1183    181.04292   -984.07542    2806.8316    202923.67    10.472245     1191.915 
   71400    -1172.009    192.42119   -979.58782    2983.2367    199720.43    10.472245    1192.7747 
   71500   -1178.2357    191.80956   -986.42613    2973.7541    194638.25    10.472245    1191.4281 
   71600    -1167.734    171.84976   -995.88422    2664.3038    200080.01    10.472245    1191.8028 
   71700   -1172.5254    195.69915   -976.82628    3034.0572    199022.17    10.472245    1191.2569 
   71800   -1165.2696    175.87967   -989.38993    2726.7822    200892.87    10.472245    1189.1987 
   71900    -1176.135    179.11446   -997.02052    2776.9334    193468.23    10.472245    1188.0488 
   72000   -1176.0344    187.60056   -988.43384    2908.4991    195021.53    10.472245    1192.5104 
   72100   -1166.4419    193.85716    -972.5847    3005.4995    200052.97    10.472245    1195.7619 
   72200   -1180.1468    185.54212   -994.60464    2876.5857    193561.73    10.472245    1198.9471 
   72300   -1174.1811     188.3409   -985.84021    2919.9771    198547.56    10.472245    1202.4192 
   72400   -1159.6715    178.85927   -980.81222     2772.977    204347.86    10.472245    1209.1803 
   72500   -1168.0439    175.48837   -992.55551    2720.7156    200281.25    10.472245    1209.3707 
   72600   -1160.9702    188.35557   -972.61463    2920.2047    206198.85    10.472245    1206.2859 
   72700   -1169.1501    188.43203   -980.71807      2921.39    200558.33    10.472245    1207.5109 
   72800   -1165.6849    176.56224   -989.12265    2737.3645    200283.17    10.472245    1208.4077 
   72900   -1166.2318    189.83263   -976.39918    2943.1045    203742.95    10.472245    1209.4864 
   73000   -1160.2637    172.14493    -988.1188      2668.88    203628.78    10.472245    1210.6325 
   73100   -1184.0846    178.19421   -1005.8904    2762.6661    189806.31    10.472245    1209.1421 
   73200   -1187.2408    201.33952   -985.90132    3121.5036    193330.35    10.472245    1213.2993 
   73300   -1171.8452    187.43166   -984.41357    2905.8806     198350.6    10.472245    1213.2439 
   73400   -1164.6922    168.81553    -995.8767    2617.2621     199291.2    10.472245    1216.0077 
   73500    -1173.429    198.07519   -975.35381    3070.8944    198896.35    10.472245    1220.4184 
   73600   -1163.2626    181.67984   -981.58276    2816.7063    204495.22    10.472245    1224.0463 
   73700   -1171.8931    182.78024   -989.11285    2833.7665    196701.31    10.472245    1224.7501 
   73800   -1160.9662    187.49923     -973.467    2906.9282    204987.56    10.472245    1228.3449 
   73900   -1171.5762    189.21393    -982.3623    2933.5124    196746.51    10.472245     1229.445 
   74000   -1170.5193    178.94974   -991.56955    2774.3796    196542.11    10.472245    1224.9074 
   74100   -1176.2744    200.03784   -976.23657    3101.3227    196995.67    10.472245    1226.3444 
   74200   -1183.3751     184.7131   -998.66199    2863.7329    193301.45    10.472245    1229.3769 
   74300   -1176.9452     189.0835   -987.86173    2931.4902    196059.83    10.472245    1229.7643 
   74400    -1166.212    186.12624   -980.08579    2885.6419    199538.18    10.472245     1226.628 
   74500   -1172.4881    169.62925   -1002.8588    2629.8777    196375.38    10.472245    1227.5253 
   74600    -1170.619    185.68468   -984.93436     2878.796    198251.06    10.472245    1229.9238 
   74700   -1170.7627    191.38171   -979.38101     2967.121    200370.45    10.472245    1235.1709 
   74800   -1178.1386    191.82561   -986.31295     2974.003    193564.31    10.472245    1236.0884 
   74900   -1175.6136     177.1095   -998.50412    2745.8491    194997.53    10.472245    1236.7767 
   75000   -1173.7581    198.79903   -974.95909    3082.1167    197618.93    10.472245    1236.1484 
   75100   -1172.8443    189.71848   -983.12582    2941.3348    198453.95    10.472245    1235.1774 
   75200   -1179.9538     179.3837   -1000.5701    2781.1076    191571.12    10.472245    1233.7979 
   75300   -1171.1486    187.81415    -983.3345    2911.8106    198437.93    10.472245    1235.1104 
   75400   -1165.4301     183.3396   -982.09048    2842.4385    201759.67    10.472245    1234.9584 
   75500   -1179.4582    181.95033   -997.50784    2820.8999    195057.87    10.472245    1236.4029 
   75600    -1174.662    188.67957    -985.9824    2925.2278    196620.02    10.472245    1240.2324 
   75700    -1169.088    188.15683   -980.93118    2917.1234    201635.57    10.472245    1241.3606 
   75800   -1181.3655    180.97574   -1000.3897    2805.7901     190787.6    10.472245    1243.9402 
   75900   -1167.7884    181.48951   -986.29885    2813.7554    201876.63    10.472245    1243.9302 
   76000    -1167.981    192.19632   -975.78463    2979.7504    200403.89    10.472245    1245.7905 
   76100   -1169.4734     177.2605   -992.21292    2748.1902    198959.45    10.472245    1246.9597 
   76200   -1161.0033    193.55024   -967.45303    3000.7411    203598.05    10.472245     1245.307 
   76300   -1173.1897    189.65809    -983.5316    2940.3985    198132.08    10.472245     1247.389 
   76400   -1176.3717    187.07938   -989.29232     2900.419    196726.56    10.472245    1248.5717 
   76500   -1179.9238    195.97811   -983.94568     3038.382    194254.47    10.472245    1248.7925 
   76600   -1168.0813    196.14112    -971.9402    3040.9092     202113.9    10.472245    1250.0637 
   76700   -1167.3386    181.39837   -985.94023    2812.3424       202268    10.472245    1250.8671 
   76800   -1181.7556    178.76792   -1002.9877    2771.5607    191589.86    10.472245     1250.289 
   76900   -1169.4623    195.16406   -974.29824    3025.7613    202273.83    10.472245    1250.8634 
   77000   -1163.7649    182.96892   -980.79593    2836.6918    203391.05    10.472245    1256.8638 
   77100   -1167.9366    174.11194   -993.82461    2699.3759    199062.49    10.472245    1261.5378 
   77200   -1161.6682    192.27015   -969.39806    2980.8951    203755.09    10.472245    1259.9953 
   77300   -1179.4462    190.25984   -989.18638    2949.7278     194267.5    10.472245    1261.2839 
   77400   -1181.7216    190.66329    -991.0583    2955.9827    193044.54    10.472245    1264.4741 
   77500   -1168.3962    184.26972   -984.12647    2856.8589    198835.36    10.472245    1264.2581 
   77600   -1174.9629    190.75918   -984.20367    2957.4695    199647.75    10.472245    1264.9839 
   77700   -1182.3217     180.4341   -1001.8876    2797.3927    190701.49    10.472245     1268.389 
   77800   -1179.2293    199.19786   -980.03146       3088.3    195519.78    10.472245    1267.6264 
   77900    -1170.004    180.86786   -989.13619    2804.1175    198113.33    10.472245    1264.0192 
   78000   -1170.9201    189.67376   -981.24631    2940.6415    198593.29    10.472245    1269.8309 
[...]
   81400   -1163.5334    182.32092   -981.21249    2826.6454     203581.5    10.472245    1331.3448 
   81500   -1167.9638    183.55636   -984.40747    2845.7993    202133.73    10.472245    1330.1665 
   81600   -1183.1037    176.49858   -1006.6051    2736.3776    189885.98    10.472245     1331.834 
   81700    -1168.417    183.43013   -984.98688    2843.8422    198531.32    10.472245    1334.6844 
   81800   -1173.2967    188.27439   -985.02234     2918.946    196710.67    10.472245    1340.6671 
   81900    -1175.399    184.44296   -990.95604    2859.5448    195814.61    10.472245    1339.4861 
   82000   -1168.1694    192.27016   -975.89924    2980.8952    203115.66    10.472245    1347.9857 
   82100   -1159.7011    192.20521   -967.49587    2979.8882    205821.27    10.472245    1348.4576 
   82200    -1172.163     179.3216   -992.84142    2780.1448    195864.84    10.472245    1351.4082 
   82300   -1168.1677     191.2241   -976.94362    2964.6774    202046.51    10.472245    1352.4611 
   82400   -1171.3163     198.4569   -972.85945    3076.8124    200260.78    10.472245    1355.0399 
   82500   -1169.3079    182.76333   -986.54456    2833.5042    200118.57    10.472245     1357.662 
   82600   -1167.8324     183.2432   -984.58917     2840.944    200492.82    10.472245    1356.0707 
   82700   -1158.8039     191.2986   -967.50527    2965.8325    206517.83    10.472245    1356.0383 
   82800   -1171.5215    182.27837   -989.24308    2825.9857    198482.75    10.472245    1359.2041 
   82900   -1168.5129    185.49688     -983.016    2875.8843     199899.9    10.472245    1363.2376 
   83000   -1162.6687    199.47927    -963.1894    3092.6629    206141.52    10.472245    1364.0545 
   83100   -1169.5391      192.073   -977.46614    2977.8384    199708.78    10.472245    1366.7061 
   83200   -1172.9374    188.00376   -984.93361    2914.7502    199979.43    10.472245    1367.4478 
   83300    -1174.741    187.28421   -987.45674    2903.5946    196854.89    10.472245    1371.6399 
   83400   -1152.0069    181.77795   -970.22899    2818.2273    210078.56    10.472245    1375.7913 
   83500   -1171.8656    180.24966   -991.61595    2794.5332    198582.94    10.472245    1376.2976 
   83600   -1163.7164    179.81898   -983.89738     2787.856    200325.45    10.472245    1374.7652 
   83700   -1168.0478    191.66547   -976.38233    2971.5203    200863.13    10.472245    1372.9311 
   83800   -1164.4295    199.13982   -965.28966    3087.4001    206277.45    10.472245    1377.7955 
   83900    -1169.945    185.12767   -984.81729    2870.1603    201717.11    10.472245    1379.0341 
   84000    -1174.152    186.18555   -987.96645    2886.5613    196547.58    10.472245    1380.4241 
   84100    -1181.067    177.95617   -1003.1108    2758.9757    191375.89    10.472245    1384.5132 
   84200   -1169.7384    190.50881    -979.2296    2953.5878    199851.08    10.472245     1385.792 
   84300   -1173.7363    187.97226   -985.76403     2914.262    197032.72    10.472245     1387.788 
   84400   -1180.4488    177.24014   -1003.2087    2747.8746    192312.89    10.472245    1386.1415 
   84500   -1170.6291    192.03007   -978.59907    2977.1728    198974.98    10.472245    1389.3623 
   84600     -1165.49    178.43806   -987.05193    2766.4467    200786.78    10.472245    1394.0469 
   84700   -1176.3596    188.88859   -987.47102    2928.4684    196274.94    10.472245    1395.8527 
   84800   -1170.5184    193.68281   -976.83563    3002.7964    199679.08    10.472245    1400.2911 
   84900   -1173.7232    182.38544   -991.33777    2827.6456    197407.67    10.472245    1402.1611 
   85000   -1181.5097    188.27995   -993.22973    2919.0322    193921.72    10.472245    1399.3996 
   85100   -1160.6638    187.94991   -972.71387    2913.9154    204235.54    10.472245    1400.8098 
   85200   -1171.0588    180.24479   -990.81399    2794.4577    200347.77    10.472245    1403.8402 
   85300   -1170.8374    189.58361   -981.25382    2939.2438    200940.05    10.472245    1411.0716 
   85400     -1161.12    190.88413   -970.23589    2959.4066     204060.5    10.472245    1413.1124 
   85500   -1169.5771    181.34938    -988.2277    2811.5828     199756.4    10.472245    1413.1334 
   85600   -1152.9452    191.93849   -961.00666    2975.7531    212284.89    10.472245    1413.5836 
   85700   -1168.3872    189.90562   -978.48162    2944.2361    201267.24    10.472245    1414.5939 
   85800    -1169.633    184.98538   -984.64765    2867.9543    199842.17    10.472245    1411.7764 
   85900   -1159.5561     201.4943   -958.06184    3123.9033    208815.09    10.472245    1412.8621 
   86000   -1173.1416    198.98618   -974.15538    3085.0182    198040.45    10.472245    1413.4343 
   86100   -1174.4354    190.94681   -983.48857    2960.3785    196697.92    10.472245    1413.9317 
   86200   -1182.5511    181.08163   -1001.4695    2807.4318    189910.59    10.472245    1419.6431 
   86300   -1180.8041    175.86847   -1004.9356    2726.6085    190912.88    10.472245    1423.1809 
   86400   -1170.3169    188.93896   -981.37792    2929.2492    198815.73    10.472245    1425.3852 
   86500    -1175.648     191.8702   -983.77783    2974.6944    198674.97    10.472245    1425.4914 
   86600   -1179.2389    184.05343   -995.18543    2853.5057    193914.07    10.472245    1425.3958 
   86700   -1174.3415    195.56275   -978.77877    3031.9424     197728.1    10.472245    1428.8073 
   86800   -1166.0315    186.55279   -979.47874    2892.2549    203136.31    10.472245    1427.8164 
   86900   -1172.3441    167.14918   -1005.1949    2591.4275    196988.28    10.472245    1427.0045 
   87000   -1170.1807    186.01883   -984.16189    2883.9765    198874.97    10.472245    1427.2157 
   87100   -1171.2447    194.75434   -976.49038    3019.4091    198975.23    10.472245    1429.9464 
   87200   -1173.2271    184.15833   -989.06873    2855.1319    195784.52    10.472245    1431.9896 
   87300   -1182.1977    189.96674   -992.23094    2945.1837     192508.7    10.472245    1433.7522 
   87400   -1155.3843     189.2627   -966.12164    2934.2684    207553.95    10.472245    1437.0984 
   87500   -1162.0589    181.13355   -980.92534    2808.2367    203796.08    10.472245    1443.0649 
   87600   -1178.4689    186.79568   -991.67323    2896.0206    193437.44    10.472245    1443.2725 
   87700   -1161.2078    184.12596   -977.08184    2854.6302    203573.64    10.472245    1444.1726 
   87800   -1162.1151    191.76028   -970.35484    2972.9902    202956.37    10.472245    1447.4611 
   87900   -1180.3053    191.60637   -988.69889    2970.6039    193012.85    10.472245     1449.435 
   88000   -1161.9117    186.22437   -975.68735    2887.1632    205408.96    10.472245    1452.7193 
   88100   -1165.4999    198.86347   -966.63646    3083.1157     205108.5    10.472245    1460.6377 
   88200   -1167.7106    171.21364   -996.49698    2654.4416    198685.92    10.472245    1464.5427 
   88300   -1159.8266    181.44269   -978.38389    2813.0296    203824.28    10.472245    1468.1179 
   88400   -1168.7928     186.8807   -981.91206    2897.3387    200952.43    10.472245    1469.4688 
   88500     -1180.67    189.47596   -991.19399    2937.5749     193448.2    10.472245    1468.8724 
   88600   -1175.3923     188.7823   -986.60996    2926.8205    195294.79    10.472245    1469.6658 
   88700   -1168.5652    189.07353    -979.4917    2931.3356    201279.68    10.472245    1469.3992 
   88800   -1167.1051    175.16625   -991.93883    2715.7217    199336.67    10.472245     1470.606 
   88900   -1183.9689    201.87635   -982.09254    3129.8265    190757.23    10.472245    1476.2015 
   89000   -1152.1036    186.56351   -965.54014    2892.4211     210106.5    10.472245    1479.5835 
   89100   -1180.6572    185.65663   -995.00059    2878.3611    191582.54    10.472245    1477.8474 
   89200   -1168.5487    182.63192   -985.91677     2831.467    199609.67    10.472245    1477.1852 
   89300   -1167.7818    198.70188    -969.0799    3080.6104    201573.35    10.472245    1480.9007 
   89400   -1171.3262    189.94879   -981.37744    2944.9053    198187.32    10.472245    1480.1906 
   89500   -1160.0027    181.81694   -978.18574    2818.8317    205909.39    10.472245     1486.801 
   89600   -1160.8621    190.65141   -970.21071    2955.7986    204804.82    10.472245     1484.664 
   89700   -1171.5769    182.98023   -988.59665    2836.8671    198415.21    10.472245    1490.7539 
   89800   -1156.4883    175.22063    -981.2677    2716.5647    207125.03    10.472245    1493.8154 
   89900   -1163.0009    191.44534   -971.55556    2968.1075    204563.91    10.472245    1494.3504 
   90000    -1173.765    183.39559   -990.36939    2843.3067    196385.06    10.472245    1501.3846 
   90100   -1160.7376    178.68151   -982.05605    2770.2211    203262.26    10.472245    1506.8846 
   90200   -1176.3069    197.35993   -978.94702    3059.8053    197364.15    10.472245    1503.5174 
   90300   -1170.8267    179.97743   -990.84928    2790.3125    201391.51    10.472245    1510.1044 
   90400   -1168.9363    192.86415   -976.07219    2990.1042    200196.54    10.472245     1512.165 
   90500   -1175.3772    191.07319   -984.30403    2962.3378    196584.88    10.472245    1512.1954 
   90600   -1175.5964    192.42416   -983.17223    2983.2828    193223.84    10.472245    1514.6064 
   90700   -1160.0981    181.63456   -978.46357    2816.0042    205737.73    10.472245    1515.4889 
   90800   -1160.3734    197.92353   -962.44988    3068.5432    207109.07    10.472245    1520.1167 
   90900   -1176.6858    193.17359   -983.51223    2994.9016    194261.69    10.472245    1520.0226 
   91000   -1163.9554    176.15392   -987.80148    2731.0341    203701.64    10.472245    1524.0997 
   91100   -1155.5537    186.18825   -969.36542    2886.6031    207993.83    10.472245    1520.6542 
   91200   -1169.3809    186.34315   -983.03774    2889.0047    200062.45    10.472245    1526.6848 
   91300   -1177.0259    188.89285   -988.13302    2928.5344    197409.37    10.472245    1529.0108 
   91400   -1177.6564    185.94316   -991.71327    2882.8034    195483.03    10.472245    1529.8523 
   91500   -1151.6503    176.69491   -974.95534    2739.4215    208949.82    10.472245    1531.5402 
   91600   -1170.8008    178.94696   -991.85385    2774.3366    198358.25    10.472245    1532.1209 
   91700   -1179.2263    179.80806   -999.41824    2787.6867    191582.36    10.472245    1537.0012 
   91800    -1171.535    186.34992   -985.18504    2889.1096    197750.43    10.472245    1537.2815 
   91900     -1168.22    187.44824   -980.77173    2906.1376    203000.67    10.472245    1545.2895 
   92000   -1182.6238    183.22468    -999.3991    2840.6569    188952.79    10.472245    1545.3412 
   92100   -1177.6034    189.24607   -988.35738    2934.0106     194234.1    10.472245    1546.2597 
   92200   -1163.3877     185.2984   -978.08934    2872.8072    204877.82    10.472245     1545.286 
   92300   -1159.6252    190.66193   -968.96325    2955.9617    204985.46    10.472245    1543.9912 
   92400   -1175.0071    185.40511   -989.60197    2874.4617    196486.08    10.472245    1544.0359 
   92500     -1163.78    176.60954   -987.17048    2738.0979    201962.35    10.472245    1544.3256 
   92600   -1160.8333    186.10161   -974.73169    2885.2599    204333.88    10.472245    1544.7965 
   92700   -1172.4959    192.00659   -980.48931    2976.8088    201990.73    10.472245    1549.9939 
   92800    -1171.262    182.83931   -988.42264    2834.6823    197389.46    10.472245    1549.8121 
   92900   -1175.0564     182.0618   -992.99458    2822.6281    193545.24    10.472245    1552.3011 
   93000   -1167.1114    193.74802   -973.36342    3003.8075    202823.72    10.472245    1559.6443 
   93100    -1171.581    184.16092   -987.42005    2855.1721    198838.95    10.472245    1564.3392 
   93200   -1181.0943    193.34324   -987.75101    2997.5319    194212.97    10.472245    1568.5487 
   93300   -1175.2595    192.74102   -982.51844    2988.1952     198118.1    10.472245    1569.7733 
   93400    -1157.867    188.26082   -969.60618    2918.7357    206592.43    10.472245    1572.2222 
   93500   -1166.5902    174.91943   -991.67076     2711.895    199787.02    10.472245    1574.7082 
   93600   -1157.7626    180.51506   -977.24754    2798.6478     206152.2    10.472245    1574.8784 
   93700   -1164.4785    186.68562   -977.79285    2894.3142    203723.64    10.472245    1579.2819 
   93800   -1174.8912    179.43395   -995.45726    2781.8867    195860.22    10.472245    1579.4029 
   93900   -1168.3442    186.49712   -981.84704    2891.3917    201579.67    10.472245    1580.2848 
   94000   -1168.2557    196.63606    -971.6196    3048.5826    202535.52    10.472245    1580.1298 
   94100    -1169.286    191.80253   -977.48344    2973.6452    201295.28    10.472245    1583.1497 
   94200   -1169.8891    179.45497    -990.4341    2782.2125    197752.34    10.472245    1589.6837 
   94300   -1164.9556    191.18784   -973.76774    2964.1152    203135.09    10.472245    1588.7932 
   94400   -1161.6191    183.75463   -977.86448    2848.8731    205045.88    10.472245    1590.1229 
   94500   -1173.5661    178.52324   -995.04285    2767.7672    195276.21    10.472245     1593.049 
   94600    -1164.938     193.2134   -971.72464    2995.5188    204245.36    10.472245    1597.6555 
   94700   -1167.2949    191.82286   -975.47203    2973.9603       202064    10.472245    1599.6967 
   94800   -1169.2715    185.43077    -983.8407    2874.8595     200238.1    10.472245     1601.374 
   94900   -1171.3815    188.71818   -982.66329    2925.8265    199699.26    10.472245    1599.1576 
   95000   -1172.8433    178.85006   -993.99328    2772.8342    198243.24    10.472245    1600.6722 
   95100   -1172.9744    179.25149   -993.72288    2779.0579    196718.45    10.472245    1604.8124 
   95200   -1160.1694    184.85322   -975.31618    2865.9053    205364.64    10.472245     1604.191 
   95300   -1179.0059    194.71146    -984.2944    3018.7442    194277.25    10.472245    1609.1908 
   95400    -1180.916    187.28339   -993.63261    2903.5818    191407.26    10.472245    1610.8589 
   95500   -1165.6645    182.67353   -982.99095    2832.1121     202294.2    10.472245    1613.3505 
   95600   -1168.6116    184.65643   -983.95513    2862.8543    199617.68    10.472245    1615.6177 
   95700   -1166.3868    177.90753   -988.47925    2758.2216    201248.11    10.472245    1616.6082 
   95800    -1161.866    198.48849   -963.37747    3077.3021     205917.3    10.472245    1615.4779 
   95900   -1172.7358    183.67168   -989.06413     2847.587    199079.52    10.472245    1615.6602 
   96000   -1165.8647    183.57458   -982.29014    2846.0816     200159.9    10.472245    1615.5298 
   96100   -1164.6247     190.1469   -974.47783    2947.9768    203403.98    10.472245    1616.3245 
   96200   -1177.4833    180.57215   -996.91111    2799.5329    195216.02    10.472245     1618.853 
   96300   -1161.5427    181.21242   -980.33025    2809.4595    202506.54    10.472245    1617.5153 
   96400   -1154.0982    177.73762   -976.36061    2755.5874    206930.37    10.472245    1621.7978 
   96500   -1178.7771     198.1432   -980.63395    3071.9489    195383.88    10.472245    1618.9824 
   96600   -1183.8234    186.93494   -996.88843    2898.1796    191295.45    10.472245    1622.2382 
   96700   -1179.1253    192.71268   -986.41258    2987.7558    194718.95    10.472245    1625.2666 
   96800   -1161.2609    184.58518   -976.67573    2861.7498    204778.79    10.472245    1626.2641 
   96900   -1169.4739    191.36085   -978.11304    2966.7976    200005.57    10.472245    1626.8379 
   97000   -1173.9549    198.82259   -975.13228    3082.4819    197190.18    10.472245    1627.9698 
   97100   -1176.7474    179.94753   -996.79986    2789.8491    195045.48    10.472245    1627.2537 
   97200   -1173.8303    186.49226   -987.33808    2891.3164    195821.34    10.472245    1632.2418 
   97300   -1168.7999    187.84088   -980.95906     2912.225    199932.52    10.472245     1634.163 
   97400   -1176.6828    187.63174   -989.05109    2908.9826    195434.42    10.472245    1635.7499 
   97500   -1172.2879    171.80693   -1000.4809    2663.6398    197400.06    10.472245    1638.0776 
   97600   -1170.2252    189.03624   -981.18893    2930.7576    199954.46    10.472245    1640.9325 
   97700   -1173.7262    186.35342   -987.37283    2889.1639    196954.47    10.472245    1644.7723 
   97800    -1172.504    180.62042   -991.88363    2800.2814    196944.32    10.472245     1646.669 
   97900   -1166.4091    191.61218   -974.79696     2970.694    201735.87    10.472245    1645.8819 
   98000   -1173.7484    179.84891   -993.89954      2788.32    194065.64    10.472245    1643.2014 
   98100   -1171.6779    183.33471   -988.34315    2842.3628     198748.5    10.472245    1648.0539 
   98200   -1167.3644    192.73772   -974.62664     2988.144    202584.62    10.472245    1647.4815 
   98300   -1173.0799    190.57522   -982.50471    2954.6173    198496.97    10.472245    1649.2083 
   98400   -1171.8651    187.23344   -984.63164    2902.8075    198815.34    10.472245    1647.0311 
   98500   -1173.6374    185.37519   -988.26222    2873.9977    197011.73    10.472245    1644.6497 
   98600   -1176.9898     189.0656   -987.92425    2931.2127    194746.83    10.472245    1642.4593 
   98700   -1168.6767    197.57907    -971.0976    3063.2028    200459.63    10.472245    1643.1595 
   98800   -1170.9424    172.85522   -998.08715    2679.8922    197103.24    10.472245    1644.1481 
   98900    -1174.082    193.32721   -980.75478    2997.2833    195972.78    10.472245    1649.8556 
   99000   -1164.7605    188.68621   -976.07427    2925.3307     203343.8    10.472245      1648.67 
   99100   -1173.1264    180.54482   -992.58159    2799.1092     195271.6    10.472245    1649.6878 
   99200   -1176.7796    185.91743   -990.86213    2882.4044    192701.05    10.472245     1648.408 
   99300   -1163.6113     186.8236   -976.78775    2896.4535    204274.83    10.472245    1654.1988 
   99400    -1165.311    186.02554   -979.28548    2884.0805     201231.6    10.472245     1653.147 
   99500   -1178.7718    172.72231   -1006.0495    2677.8315     192062.7    10.472245    1655.5367 
   99600   -1175.6508    183.75214   -991.89868    2848.8346    194603.53    10.472245    1655.4734 
   99700   -1181.3154    198.32382   -982.99156    3074.7492    193189.42    10.472245    1660.4919 
   99800   -1165.7418    195.78626   -969.95558    3035.4076    199551.24    10.472245    1664.5276 
   99900   -1158.0091    179.88315   -978.12595     2788.851    206747.72    10.472245    1667.4309 
  100000   -1180.4257    190.54045   -989.88526    2954.0783    192701.17    10.472245     1670.982 
Loop time of 150.642 on 1 procs for 100000 steps with 500 atoms

Performance: 286.773 ns/day, 0.084 hours/ns, 663.827 timesteps/s
100.0% CPU use with 1 MPI tasks x no OpenMP threads

MPI task timing breakdown:
Section |  min time  |  avg time  |  max time  |%varavg| %total
---------------------------------------------------------------
Pair    | 87.143     | 87.143     | 87.143     |   0.0 | 57.85
Neigh   | 8.8891     | 8.8891     | 8.8891     |   0.0 |  5.90
Comm    | 1.4115     | 1.4115     | 1.4115     |   0.0 |  0.94
Output  | 0.037733   | 0.037733   | 0.037733   |   0.0 |  0.03
Modify  | 52.897     | 52.897     | 52.897     |   0.0 | 35.11
Other   |            | 0.2635     |            |       |  0.17

Nlocal:    500 ave 500 max 500 min
Histogram: 1 0 0 0 0 0 0 0 0 0
Nghost:    2116 ave 2116 max 2116 min
Histogram: 1 0 0 0 0 0 0 0 0 0
Neighs:    26194 ave 26194 max 26194 min
Histogram: 1 0 0 0 0 0 0 0 0 0

Total # of neighbors = 26194
Ave neighs/atom = 52.388
Neighbor list builds = 8061
Dangerous builds = 460
Total wall time: 0:02:30
