LAMMPS (3 Mar 2020)
Reading data file ...
  orthogonal box = (0 0 0) to (17.469 17.469 17.469)
  1 by 1 by 1 MPI processor grid
  reading atoms ...
  217 atoms
  read_data CPU = 0.00108357 secs
Reading potential file library.meam with DATE: 2012-06-29
Reading potential file LiSi.meam with DATE: 2020-11-07
1 atoms in group Li
Neighbor list info ...
  update every 1 steps, delay 10 steps, check yes
  max neighbors/atom: 2000, page size: 100000
  master list distance cutoff = 6
  ghost atom cutoff = 6
  binsize = 3, bins = 6 6 6
  2 neighbor lists, perpetual/occasional/extra = 2 0 0
  (1) pair meam/c, perpetual
      attributes: full, newton on
      pair build: full/bin/atomonly
      stencil: full/bin/3d
      bin: standard
  (2) pair meam/c, perpetual, half/full from (1)
      attributes: half, newton on
      pair build: halffull/newton
      stencil: none
      bin: none
Setting up Verlet run ...
  Unit style    : metal
  Current step  : 0
  Time step     : 0.0005
Per MPI rank memory allocation (min/avg/max) = 9.266 | 9.266 | 9.266 Mbytes
Step PotEng KinEng TotEng Temp Press Density c_msdli[4] 
       0   -951.06911    50.256344   -900.81276         1800    -114182.3    1.8918427            0 
     100    -914.4565    27.022325   -887.43417    967.84168   -82423.869    1.8918427   0.13684878 
     200   -912.77345    51.286623   -861.48683    1836.9008   -70394.684    1.8918427  0.089895256 
     300   -897.64358    50.415956   -847.22762    1805.7167   -58782.012    1.8918427   0.50375986 
     400   -904.23226    52.534384   -851.69787    1881.5911   -64744.447    1.8918427   0.45521412 
     500   -909.62932    51.581329   -858.04799    1847.4561   -70309.466    1.8918427   0.19197894 
     600   -903.04318    48.772259   -854.27092    1746.8454   -62598.712    1.8918427   0.50812641 
     700   -902.46963    47.733942   -854.73569    1709.6567   -61852.385    1.8918427   0.33980304 
     800   -901.00606    54.495487   -846.51057    1951.8307   -60684.075    1.8918427   0.23603783 
     900   -906.13462    47.896979   -858.23764    1715.4961   -64933.843    1.8918427   0.11248362 
    1000   -902.99054    50.365312   -852.62523    1803.9028   -63719.258    1.8918427   0.24530573 
    1100   -904.42976    52.447646   -851.98211    1878.4845   -61837.131    1.8918427   0.26959801 
    1200   -907.33973    49.614092   -857.72564    1776.9968    -66344.21    1.8918427  0.016642311 
    1300   -904.58557    53.750973   -850.83459    1925.1649   -65320.717    1.8918427   0.32340406 
    1400   -901.18257    48.299658   -852.88291    1729.9186   -60076.692    1.8918427   0.32592256 
    1500   -904.97261    43.619538   -861.35307    1562.2937   -67499.903    1.8918427  0.069174222 
    1600   -913.50516    52.747062   -860.75809    1889.2085   -72913.921    1.8918427   0.19142934 
    1700   -902.45533    50.193201   -852.26212    1797.7384   -65238.808    1.8918427   0.13929836 
    1800   -906.19843     53.08127   -853.11715    1901.1786   -64913.306    1.8918427   0.13708288 
    1900   -904.72632    51.511024   -853.21529    1844.9381   -65356.601    1.8918427   0.44675551 
    2000   -903.85066    48.340785   -855.50987    1731.3916   -63408.817    1.8918427   0.30432895 
    2100   -907.08464     49.48577   -857.59886    1772.4008   -66512.819    1.8918427   0.21999238 
    2200   -903.03722    49.329076   -853.70814    1766.7886   -63945.307    1.8918427      0.20679 
    2300   -904.11761    52.339534   -851.77808    1874.6123   -64408.951    1.8918427   0.14232812 
    2400   -904.66348    46.951757   -857.71173    1681.6417    -64637.98    1.8918427   0.23760511 
    2500   -904.04708    49.014192   -855.03288    1755.5106   -64148.595    1.8918427   0.38207457 
    2600   -902.18369    51.964079   -850.21961    1861.1648   -61524.501    1.8918427   0.21289385 
    2700   -904.61167    47.213815   -857.39785    1691.0276   -66095.704    1.8918427  0.028839166 
    2800   -907.29084    51.080911   -856.20993     1829.533   -67474.449    1.8918427  0.083500108 
    2900   -898.60839    47.000526   -851.60787    1683.3884   -60540.434    1.8918427  0.021428921 
    3000   -902.66606    45.603164    -857.0629      1633.34   -65969.968    1.8918427   0.23832636 
    3100   -905.22413     54.61703    -850.6071    1956.1839   -65071.331    1.8918427   0.08471408 
    3200   -903.49633    46.011217   -857.48511    1647.9549   -67368.611    1.8918427   0.20010952 
    3300   -901.63138    52.382887   -849.24849    1876.1651   -63115.499    1.8918427   0.25145511 
    3400   -903.67617    53.414118   -850.26205       1913.1   -65235.791    1.8918427   0.14693812 
    3500   -905.64506    49.803592   -855.84147     1783.784   -66534.558    1.8918427  0.059651665 
    3600   -903.30557    49.673326   -853.63224    1779.1184   -65464.892    1.8918427   0.23848087 
    3700   -901.13683    51.533941   -849.60289    1845.7589   -61743.283    1.8918427  0.037154108 
    3800   -904.80816    48.761998   -856.04616    1746.4779   -69249.041    1.8918427  0.039589286 
    3900   -905.56892    50.627701   -854.94122    1813.3006   -68406.267    1.8918427  0.083918246 
    4000   -903.54964    51.467205   -852.08243    1843.3687   -67195.851    1.8918427   0.17795423 
    4100   -902.72499    51.706645   -851.01835    1851.9445   -67144.077    1.8918427  0.082429277 
    4200    -905.7862    57.129281   -848.65692    2046.1637   -64367.358    1.8918427  0.043616093 
    4300   -901.81435    42.998889   -858.81546    1540.0643   -66503.005    1.8918427   0.21865103 
    4400   -902.90066    50.243117   -852.65754    1799.5263   -64227.855    1.8918427   0.16206224 
    4500   -901.63974    48.636858   -853.00289    1741.9959   -63088.224    1.8918427  0.028578798 
    4600   -905.83906    52.097165    -853.7419    1865.9315   -69336.267    1.8918427  0.040607487 
    4700   -903.48575    50.135586   -853.35016    1795.6749   -64788.399    1.8918427   0.10616799 
    4800   -903.17678     47.39006   -855.78672    1697.3401   -67120.435    1.8918427   0.15538303 
    4900    -907.8479    51.146544   -856.70136    1831.8837   -69481.902    1.8918427  0.037361456 
    5000   -900.33904    53.883334   -846.45571    1929.9056   -64759.264    1.8918427   0.20325918 
    5100   -902.20012    49.894379   -852.30574    1787.0357   -63366.971    1.8918427  0.079693655 
    5200   -905.70895     50.58233   -855.12662    1811.6756    -66242.88    1.8918427  0.079544217 
    5300   -902.95095     47.76436   -855.18659    1710.7462   -67643.932    1.8918427   0.10305667 
    5400   -902.35959    51.841725   -850.51786    1856.7826   -60812.785    1.8918427   0.26215104 
    5500   -903.57271    48.811661   -854.76105    1748.2567   -66258.794    1.8918427   0.27263642 
    5600   -903.42401    57.068268   -846.35575    2043.9784   -63242.493    1.8918427   0.14489586 
    5700   -900.90706     46.16602   -854.74104    1653.4994   -63736.829    1.8918427  0.045710149 
    5800   -905.16087    47.963911   -857.19696    1717.8934   -65458.797    1.8918427   0.32332618 
    5900   -901.04928    51.669495   -849.37979    1850.6139   -64656.601    1.8918427  0.055307424 
    6000   -902.79679    50.060888    -852.7359    1792.9995   -63926.379    1.8918427   0.02917181 
    6100    -902.7953    47.008601   -855.78669    1683.6776   -66401.248    1.8918427  0.055333078 
    6200   -900.65607    49.000004   -851.65607    1755.0024   -62543.946    1.8918427  0.021678326 
    6300   -902.57906    46.751792   -855.82727    1674.4796   -66639.385    1.8918427   0.36080634 
    6400   -898.11156    50.705334   -847.40623    1816.0812   -57544.462    1.8918427   0.28876182 
    6500   -906.70605    54.868398   -851.83765     1965.187   -70512.526    1.8918427  0.076667172 
    6600   -904.86514    51.797087   -853.06806    1855.1838   -65411.544    1.8918427  0.080511498 
    6700   -905.64287    44.837306   -860.80556    1605.9097   -68469.795    1.8918427  0.029162698 
    6800   -903.86086     51.29278   -852.56808    1837.1213   -62416.262    1.8918427  0.092558621 
    6900   -903.46334    49.353972   -854.10937    1767.6803   -67933.851    1.8918427   0.17867632 
    7000   -904.87677    56.714608   -848.16216    2031.3116   -63182.501    1.8918427   0.08672726 
    7100   -904.43825     49.52184   -854.91641    1773.6927   -66284.208    1.8918427    0.1280467 
    7200   -906.82181    52.481433   -854.34038    1879.6946   -67156.629    1.8918427   0.15297726 
    7300   -900.59174    53.782824   -846.80892    1926.3057    -63575.01    1.8918427   0.36999863 
    7400   -905.68364    48.641627   -857.04201    1742.1667   -67047.605    1.8918427   0.21012559 
    7500    -902.4331    45.501219   -856.93188    1629.6887   -65606.692    1.8918427    0.6614792 
    7600   -900.49253    50.908034   -849.58449    1823.3411   -61748.633    1.8918427   0.78032538 
    7700    -901.6017    44.324808   -857.27689    1587.5539   -66703.373    1.8918427   0.14565802 
    7800   -904.53012    55.239619    -849.2905    1978.4828   -66395.593    1.8918427  0.054057194 
    7900   -903.46395    52.380328   -851.08362    1876.0734   -65226.618    1.8918427    1.0238968 
    8000    -903.5423    49.271753   -854.27055    1764.7355   -65992.797    1.8918427    1.2778876 
    8100   -899.57545     50.42278   -849.15267    1805.9611   -62270.606    1.8918427    1.0425659 
    8200   -901.21413    48.938212   -852.27591    1752.7893    -62903.08    1.8918427   0.53072805 
    8300   -904.19084    45.035608   -859.15523    1613.0122   -67445.554    1.8918427    2.4168466 
    8400   -906.36527     54.24942   -852.11585    1943.0175   -68449.203    1.8918427    5.2164668 
    8500   -900.93478    48.806848   -852.12793    1748.0843    -68327.19    1.8918427     7.788833 
    8600   -899.96263    53.736912   -846.22572    1924.6613   -61997.051    1.8918427    6.5388161 
    8700   -903.90865    49.718769   -854.18988     1780.746   -68220.607    1.8918427    4.8883679 
    8800   -902.41097    49.620653   -852.79031    1777.2318   -66717.128    1.8918427    4.9537754 
    8900   -899.01161    55.364883   -843.64673    1982.9693   -60894.096    1.8918427     4.417222 
    9000   -901.83189    49.426769   -852.40512    1770.2876    -65843.96    1.8918427     4.192428 
    9100   -899.23624    49.409554   -849.82668    1769.6711   -62257.706    1.8918427     4.159046 
    9200   -900.26472    52.817368   -847.44735    1891.7266   -63781.937    1.8918427    2.4752343 
    9300   -905.30492    53.968818    -851.3361    1932.9673   -69451.734    1.8918427     4.606069 
    9400   -900.27078    45.936852   -854.33393    1645.2914   -65607.528    1.8918427    7.2974047 
    9500   -901.92344    54.485589   -847.43785    1951.4762   -64676.878    1.8918427    5.1145471 
    9600   -903.11473    48.120677   -854.99405    1723.5082   -67726.438    1.8918427    10.966206 
    9700    -903.1585    51.119063   -852.03944    1830.8995   -68295.035    1.8918427    9.4605157 
    9800   -896.10934    44.216641    -851.8927    1583.6797   -59939.126    1.8918427    7.9623439 
    9900   -900.50608    49.689348   -850.81673    1779.6922   -62445.315    1.8918427    7.3666262 
   10000   -903.19659     48.49801   -854.69858    1737.0228    -66886.28    1.8918427    5.1349353 
Loop time of 5.42045 on 1 procs for 10000 steps with 217 atoms

Performance: 79.698 ns/day, 0.301 hours/ns, 1844.865 timesteps/s
100.0% CPU use with 1 MPI tasks x no OpenMP threads

MPI task timing breakdown:
Section |  min time  |  avg time  |  max time  |%varavg| %total
---------------------------------------------------------------
Pair    | 5.2811     | 5.2811     | 5.2811     |   0.0 | 97.43
Neigh   | 0.040328   | 0.040328   | 0.040328   |   0.0 |  0.74
Comm    | 0.041535   | 0.041535   | 0.041535   |   0.0 |  0.77
Output  | 0.0030814  | 0.0030814  | 0.0030814  |   0.0 |  0.06
Modify  | 0.041665   | 0.041665   | 0.041665   |   0.0 |  0.77
Other   |            | 0.01277    |            |       |  0.24

Nlocal:    217 ave 217 max 217 min
Histogram: 1 0 0 0 0 0 0 0 0 0
Nghost:    914 ave 914 max 914 min
Histogram: 1 0 0 0 0 0 0 0 0 0
Neighs:    3610 ave 3610 max 3610 min
Histogram: 1 0 0 0 0 0 0 0 0 0
FullNghs:  7220 ave 7220 max 7220 min
Histogram: 1 0 0 0 0 0 0 0 0 0

Total # of neighbors = 7220
Ave neighs/atom = 33.2719
Neighbor list builds = 73
Dangerous builds = 0
Total wall time: 0:00:05
