LAMMPS (3 Mar 2020)

    # ---------- Initialize simulation ---------------------
    units metal
    atom_style atomic
    dimension  3
    boundary   p p p
    read_data /home/modeler/RemLabs/Lab4/Problem2A_size_4/temp_1080/lammps.data
  orthogonal box = (0 0 0) to (16.36 16.36 16.36)
  1 by 1 by 1 MPI processor grid
  reading atoms ...
  256 atoms
  read_data CPU = 0.00182341 secs

    pair_style eam
    pair_coeff * * /usr/share/lammps-stable/potentials/Ag_u3.eam
Reading potential file /usr/share/lammps-stable/potentials/Ag_u3.eam with DATE: 2007-06-11

    velocity  all create 1080 87287 dist gaussian

    # ---------- Describe computed properties------------------
    compute msdall all msd
    thermo_style custom step pe ke etotal temp press density c_msdall[4]
    thermo 100

    # ---------- Specify ensemble  ---------------------
    #fix  1 all nve
    fix  1 all nvt temp 1080 1080 0.05

    # --------- Compute RDF ---------------
    compute rdfall all rdf 100 1 1
    fix 2 all ave/time 1 2500 2500 c_rdfall[*] file /home/modeler/RemLabs/Lab4/Problem2A_size_4/temp_1080/lammps.rdf mode vector

    # --------- Run -------------
    timestep 0.001
    run 10000
Neighbor list info ...
  update every 1 steps, delay 10 steps, check yes
  max neighbors/atom: 2000, page size: 100000
  master list distance cutoff = 7.55
  ghost atom cutoff = 7.55
  binsize = 3.775, bins = 5 5 5
  2 neighbor lists, perpetual/occasional/extra = 1 1 0
  (1) pair eam, perpetual
      attributes: half, newton on
      pair build: half/bin/atomonly/newton
      stencil: half/bin/3d/newton
      bin: standard
  (2) compute rdf, occasional, copy from (1)
      attributes: half, newton on
      pair build: copy
      stencil: none
      bin: none
Per MPI rank memory allocation (min/avg/max) = 3.744 | 3.744 | 3.744 Mbytes
Step PotEng KinEng TotEng Temp Press Density c_msdall[4] 
       0       -729.6    35.598244   -694.00176         1080    8683.5012    10.472245            0 
     100   -708.27393    21.995812   -686.27812    667.32159    36020.701    10.472245  0.061943595 
     200   -700.70572    32.755921    -667.9498    993.76797     50160.16    10.472245  0.078293766 
     300   -690.50158    37.911806   -652.58978    1150.1902    64031.253    10.472245   0.10331727 
     400   -689.63743    37.248638   -652.38879    1130.0706    66153.983    10.472245  0.097463096 
     500   -697.98392    34.467012   -663.51691      1045.68     53770.66    10.472245  0.071873579 
     600   -696.98322    33.821457   -663.16176    1026.0948    55369.607    10.472245  0.071053574 
     700   -694.42289     39.11888   -655.30401    1186.8111    60396.001    10.472245  0.080516387 
     800   -693.87513    35.101081   -658.77405    1064.9168    59748.143    10.472245  0.096772775 
     900   -694.31107    37.199386   -657.11169    1128.5764     59306.61    10.472245   0.09882261 
    1000   -693.28953    38.351045   -654.93849    1163.5161    62430.231    10.472245   0.09034702 
    1100     -697.234    36.740939   -660.49306    1114.6678    55747.957    10.472245  0.072518918 
    1200   -695.51482    33.903468   -661.61135    1028.5829    57452.987    10.472245  0.081842918 
    1300   -692.49642    35.374686   -657.12174    1073.2176    62221.664    10.472245  0.091110711 
    1400   -693.96481    36.074068   -657.89074    1094.4358    60151.665    10.472245  0.089133515 
    1500   -697.77516    35.995421   -661.77973    1092.0498    54800.088    10.472245  0.072930922 
    1600   -696.86511    36.375982   -660.48913    1103.5955    56193.188    10.472245   0.07298798 
    1700   -692.92238    38.009328   -654.91305    1153.1489    62134.053    10.472245  0.089914916 
    1800   -694.44766    34.124909   -660.32276    1035.3011    59469.534    10.472245  0.092917568 
    1900   -697.44041    36.498916   -660.94149    1107.3251    55373.213    10.472245  0.076438776 
    2000    -694.2166    35.032458   -659.18414    1062.8349    60103.998    10.472245  0.078904654 
    2100   -693.60727    35.466798   -658.14047    1076.0121    61055.128    10.472245  0.082305956 
    2200   -694.58932    33.695276   -660.89405    1022.2667    58561.757    10.472245  0.090811482 
    2300   -692.71267    36.731447   -655.98122    1114.3798    62200.309    10.472245  0.093147653 
    2400   -692.51935      34.6196   -657.89975    1050.3093    61886.071    10.472245   0.08874993 
    2500    -695.2684    35.078432   -660.18997    1064.2297    58608.685    10.472245  0.078823071 
    2600   -692.80004     35.90408   -656.89596    1089.2786    61713.697    10.472245  0.085666321 
    2700   -692.82711    36.199232   -656.62788    1098.2331    61448.924    10.472245  0.092707976 
    2800   -694.20201    33.953658   -660.24835    1030.1056    59240.934    10.472245   0.08415713 
    2900   -695.35539    33.133379   -662.22201    1005.2195    58373.762    10.472245    0.0746376 
    3000   -694.80795    34.983205   -659.82475    1061.3406    59301.951    10.472245  0.079181353 
    3100   -692.36787     36.85691   -655.51097    1118.1861    63707.243    10.472245  0.093654433 
    3200   -693.30347    33.822759   -659.48071    1026.1343    61496.418    10.472245  0.095203665 
    3300   -695.51534    34.256922   -661.25841    1039.3062    57670.508    10.472245  0.086240427 
    3400   -693.76168    36.540668   -657.22102    1108.5918    60912.261    10.472245  0.077319461 
    3500   -697.56793    39.438668   -658.12926     1196.513    56662.808    10.472245  0.067610877 
    3600   -697.40923    35.108921   -662.30031    1065.1546    55512.373    10.472245  0.078556784 
    3700   -692.77286    36.402033   -656.37083    1104.3858    62587.204    10.472245  0.088115809 
    3800   -694.97129    36.909389    -658.0619    1119.7783    59377.732    10.472245  0.080453666 
    3900   -694.21017    34.627888   -659.58228    1050.5608    59470.419    10.472245   0.07640548 
    4000   -694.85568    32.946956   -661.90872    999.56371    58592.388    10.472245  0.079419628 
    4100   -695.82034    34.932652   -660.88768    1059.8069     57869.79    10.472245  0.077568353 
    4200   -694.04614    35.597027   -658.44911    1079.9631    59956.189    10.472245   0.08496146 
    4300   -692.19247     37.34766   -654.84481    1133.0748    63125.698    10.472245   0.08438327 
    4400   -694.61696    34.956662    -659.6603    1060.5353    59247.622    10.472245   0.08069346 
    4500   -694.56676    34.920883   -659.64587    1059.4498    58472.889    10.472245  0.078603283 
    4600   -694.07007    37.639196   -656.43087    1141.9196    60481.936    10.472245  0.083633017 
    4700   -694.40759    33.276541   -661.13105    1009.5628    58991.726    10.472245   0.09495337 
    4800   -692.51855    36.318768   -656.19978    1101.8597     62549.46    10.472245  0.091273632 
    4900   -691.37248    34.879285    -656.4932    1058.1878    64888.322    10.472245  0.085048192 
    5000   -694.30698    34.787041   -659.51994    1055.3893    59986.956    10.472245  0.076370916 
    5100   -694.21377    32.535071    -661.6787    987.06769    59246.182    10.472245  0.080187138 
    5200   -691.72577    36.778596   -654.94717    1115.8102    63743.107    10.472245   0.08226998 
    5300   -694.88647     34.85331   -660.03316    1057.3998    59295.327    10.472245  0.081700337 
    5400   -694.35932    36.143613   -658.21571    1096.5457    59926.768    10.472245  0.083279494 
    5500   -694.83016     37.42857   -657.40159    1135.5295    60270.114    10.472245  0.079277426 
    5600   -695.85483    37.895856   -657.95898    1149.7063    57880.349    10.472245  0.076938806 
    5700   -694.81259    35.324329   -659.48827    1071.6898    58753.145    10.472245  0.080893644 
    5800   -693.58823    34.538478   -659.04975    1047.8482    60283.561    10.472245  0.082620364 
    5900   -693.83207    39.346563   -654.48551    1193.7187    61746.239    10.472245  0.076283139 
    6000   -695.06558    33.461371    -661.6042    1015.1703     58157.66    10.472245  0.085270867 
    6100   -693.53371     36.83894   -656.69477     1117.641    61731.638    10.472245   0.08714308 
    6200   -692.26239    34.006765   -658.25563    1031.7168    62987.863    10.472245  0.086595462 
    6300   -697.55438    35.666179    -661.8882    1082.0611     55641.78    10.472245  0.067305297 
    6400   -695.20081    33.144782   -662.05603    1005.5655    58070.495    10.472245   0.07312359 
    6500   -694.13095    36.300654   -657.83029    1101.3101    60397.882    10.472245  0.075531951 
    6600   -695.31812    35.291061   -660.02706    1070.6805    58110.527    10.472245  0.078673224 
    6700   -697.14456    34.126627   -663.01793    1035.3532    55693.171    10.472245  0.075544738 
    6800   -693.78613    36.678323   -657.10781    1112.7681    60799.858    10.472245  0.084284142 
    6900    -692.0668    39.352711   -652.71409    1193.9052     64057.31    10.472245  0.093138669 
    7000   -691.00002    35.597278   -655.40274    1079.9707    64334.573    10.472245  0.099662901 
    7100   -695.11296    36.010748   -659.10221    1092.5148     58978.07    10.472245  0.082249692 
    7200   -697.25313    34.385177   -662.86796    1043.1973    55263.425    10.472245  0.074946334 
    7300   -697.47981    33.719336   -663.76047    1022.9966    55527.389    10.472245  0.076519431 
    7400   -694.23084    36.202619   -658.02822    1098.3359    60074.083    10.472245  0.085941828 
    7500   -692.89674    38.924789   -653.97195    1180.9226    62186.989    10.472245  0.091241522 
    7600   -693.32229    33.443392    -659.8789    1014.6249     61232.71    10.472245   0.09566443 
    7700   -695.21206    38.767334   -656.44472    1176.1457    59569.795    10.472245   0.08251854 
    7800   -694.86443    34.271023   -660.59341     1039.734    59339.357    10.472245  0.081513375 
    7900   -691.25086    37.775895   -653.47496    1146.0668    64968.828    10.472245  0.085840671 
    8000   -692.73804    34.922574   -657.81547    1059.5011    62458.356    10.472245  0.099578263 
    8100   -691.44996    33.809374   -657.64058    1025.7282    63160.997    10.472245   0.10571634 
    8200   -694.94648    39.335701   -655.61078    1193.3891    59693.202    10.472245  0.082215647 
    8300   -695.33157    36.450774   -658.88079    1105.8645     58624.14    10.472245  0.078769553 
    8400   -693.85624    31.654437    -662.2018    960.35051    59754.307    10.472245  0.082733788 
    8500   -695.28708    37.534355   -657.75272    1138.7388    59068.007    10.472245  0.082703219 
    8600   -691.07384    39.175781   -651.89806    1188.5374    65019.954    10.472245  0.090115175 
    8700   -694.51413    37.580647   -656.93348    1140.1433    59494.243    10.472245  0.080446382 
    8800   -696.29811    38.598099   -657.70001    1171.0113    58208.886    10.472245  0.075403922 
    8900   -695.01469    33.643076   -661.37162     1020.683    58380.066    10.472245  0.082131864 
    9000   -694.73799    39.430525   -655.30747    1196.2659    60542.948    10.472245  0.072974831 
    9100   -696.10684     35.54313   -660.56371    1078.3279    57364.762    10.472245  0.072150445 
    9200   -695.92994      37.0795   -658.85044    1124.9392    58292.688    10.472245  0.072116064 
    9300   -690.20298    37.617239   -652.58574    1141.2534    65580.366    10.472245  0.084531587 
    9400    -690.7854     35.03472   -655.75067    1062.9035    64061.741    10.472245  0.092036814 
    9500   -694.80084    34.833887   -659.96695    1056.8105    59117.717    10.472245  0.080768979 
    9600    -695.3647     35.67346   -659.69124    1082.2819     58638.67    10.472245  0.076783693 
    9700   -693.69266    38.301505   -655.39115    1162.0131    61130.622    10.472245  0.074109484 
    9800   -696.56158    36.296521   -660.26506    1101.1847    57119.933    10.472245  0.076289099 
    9900   -697.31746    40.617816   -656.69965    1232.2867    57198.039    10.472245  0.072629632 
   10000   -692.90933    34.440481   -658.46885    1044.8751    61015.669    10.472245  0.085700994 
Loop time of 4.86681 on 1 procs for 10000 steps with 256 atoms

Performance: 177.529 ns/day, 0.135 hours/ns, 2054.735 timesteps/s
100.0% CPU use with 1 MPI tasks x no OpenMP threads

MPI task timing breakdown:
Section |  min time  |  avg time  |  max time  |%varavg| %total
---------------------------------------------------------------
Pair    | 3.269      | 3.269      | 3.269      |   0.0 | 67.17
Neigh   | 0          | 0          | 0          |   0.0 |  0.00
Comm    | 0.061509   | 0.061509   | 0.061509   |   0.0 |  1.26
Output  | 0.0026177  | 0.0026177  | 0.0026177  |   0.0 |  0.05
Modify  | 1.5178     | 1.5178     | 1.5178     |   0.0 | 31.19
Other   |            | 0.01597    |            |       |  0.33

Nlocal:    256 ave 256 max 256 min
Histogram: 1 0 0 0 0 0 0 0 0 0
Nghost:    1431 ave 1431 max 1431 min
Histogram: 1 0 0 0 0 0 0 0 0 0
Neighs:    11008 ave 11008 max 11008 min
Histogram: 1 0 0 0 0 0 0 0 0 0

Total # of neighbors = 11008
Ave neighs/atom = 43
Neighbor list builds = 0
Dangerous builds = 0
    
Total wall time: 0:00:04
