LAMMPS (3 Mar 2020)

    # ---------- Initialize simulation ---------------------
    units metal
    atom_style atomic
    dimension  3
    boundary   p p p
    read_data /home/modeler/RemLabs/Lab4/Problem2A_size_7/temp_1200/lammps.data
  orthogonal box = (0 0 0) to (28.63 28.63 28.63)
  1 by 1 by 1 MPI processor grid
  reading atoms ...
  1372 atoms
  read_data CPU = 0.00186672 secs

    pair_style eam
    pair_coeff * * /usr/share/lammps-stable/potentials/Ag_u3.eam
Reading potential file /usr/share/lammps-stable/potentials/Ag_u3.eam with DATE: 2007-06-11

    velocity  all create 1200 87287 dist gaussian

    # ---------- Describe computed properties------------------
    compute msdall all msd
    thermo_style custom step pe ke etotal temp press density c_msdall[4]
    thermo 100

    # ---------- Specify ensemble  ---------------------
    #fix  1 all nve
    fix  1 all nvt temp 1200 1200 0.05

    # --------- Compute RDF ---------------
    compute rdfall all rdf 100 1 1
    fix 2 all ave/time 1 2500 2500 c_rdfall[*] file /home/modeler/RemLabs/Lab4/Problem2A_size_7/temp_1200/lammps.rdf mode vector

    # --------- Run -------------
    timestep 0.001
    run 10000
Neighbor list info ...
  update every 1 steps, delay 10 steps, check yes
  max neighbors/atom: 2000, page size: 100000
  master list distance cutoff = 7.55
  ghost atom cutoff = 7.55
  binsize = 3.775, bins = 8 8 8
  2 neighbor lists, perpetual/occasional/extra = 1 1 0
  (1) pair eam, perpetual
      attributes: half, newton on
      pair build: half/bin/atomonly/newton
      stencil: half/bin/3d/newton
      bin: standard
  (2) compute rdf, occasional, copy from (1)
      attributes: half, newton on
      pair build: copy
      stencil: none
      bin: none
Per MPI rank memory allocation (min/avg/max) = 3.83 | 3.83 | 3.83 Mbytes
Step PotEng KinEng TotEng Temp Press Density c_msdall[4] 
       0      -3910.2    212.65879   -3697.5412         1200     9679.118    10.472245            0 
     100   -3782.2695    118.49646    -3663.773    668.65683     39669.03    10.472245  0.069105624 
     200   -3763.7468    179.00389   -3584.7429    1010.0907     47483.13    10.472245  0.080222638 
     300   -3714.7014    213.04685   -3501.6545    1202.1897    62127.791    10.472245     0.105494 
     400   -3684.0628    227.92969   -3456.1331    1286.1713    70854.858    10.472245   0.12290071 
     500    -3694.196    215.80934   -3478.3866    1217.7781    67712.326    10.472245   0.12191989 
     600   -3709.8822    208.78664   -3501.0956      1178.15     63383.71    10.472245   0.10911927 
     700   -3707.1353    220.33303   -3486.8022    1243.3045    64704.733    10.472245    0.1016845 
     800   -3698.0215    220.75558    -3477.266    1245.6889    67024.959    10.472245   0.10078973 
     900   -3702.5888    208.29917   -3494.2896    1175.3994    65360.841    10.472245   0.10321219 
    1000   -3696.0068    212.42055   -3483.5862    1198.6556    66798.913    10.472245   0.10332324 
    1100    -3692.744    215.28787   -3477.4561    1214.8355    68236.887    10.472245   0.10304103 
    1200   -3700.9239    204.89857   -3496.0253    1156.2103    65731.441    10.472245   0.10542542 
    1300   -3694.0862     206.4699   -3487.6163    1165.0771    67395.283    10.472245   0.11083667 
    1400   -3692.7381    216.41267   -3476.3254    1221.1826    68003.164    10.472245   0.11043687 
    1500   -3700.8468    207.40689   -3493.4399    1170.3643    65798.254    10.472245   0.10930536 
    1600   -3700.2212    217.81379   -3482.4074    1229.0888    66601.333    10.472245   0.10770207 
    1700   -3691.2691    210.29211    -3480.977    1186.6452    68212.714    10.472245   0.10942921 
    1800   -3694.1823    207.28569   -3486.8966    1169.6804    67788.545    10.472245    0.1010785 
    1900   -3703.2337    207.82289   -3495.4108    1172.7118     65478.27    10.472245  0.094352182 
    2000   -3698.8863    212.13777   -3486.7485      1197.06    66668.442    10.472245  0.098338393 
    2100   -3695.6925    213.77304   -3481.9194    1206.2875    67262.051    10.472245   0.10598097 
    2200   -3701.7462    213.62436   -3488.1219    1205.4486    65869.334    10.472245   0.11060476 
    2300    -3694.624    209.87401     -3484.75    1184.2859    67412.603    10.472245   0.11490169 
    2400   -3691.8223    213.01078   -3478.8115    1201.9862    68519.029    10.472245   0.11445812 
    2500   -3698.0459    208.05412   -3489.9918    1174.0166    66460.717    10.472245    0.1076255 
    2600   -3702.3543    206.52452   -3495.8297    1165.3853    65442.367    10.472245  0.095955586 
    2700   -3698.5647    207.09418   -3491.4706    1168.5998    66455.088    10.472245  0.096735795 
    2800   -3690.2334    212.92936   -3477.3041    1201.5268     68718.52    10.472245   0.10268044 
    2900   -3695.3145    207.15254   -3488.1619    1168.9291    67122.458    10.472245   0.10697957 
    3000    -3696.176    209.21265   -3486.9633     1180.554    67059.571    10.472245   0.11031243 
    3100    -3690.463    217.53951   -3472.9235    1227.5411    68825.079    10.472245   0.11132421 
    3200   -3696.1025    212.12124   -3483.9813    1196.9667     67319.63    10.472245    0.1065589 
    3300   -3704.8786    213.92497   -3490.9536    1207.1448    64722.043    10.472245  0.095316833 
    3400   -3704.8661    208.72067   -3496.1454    1177.7778    65113.629    10.472245  0.095008986 
    3500   -3696.4921    219.86428   -3476.6278    1240.6595    67788.869    10.472245    0.0993013 
    3600    -3698.094    208.54614   -3489.5478    1176.7929    66454.248    10.472245   0.10199014 
    3700   -3699.0847     213.3882   -3485.6965    1204.1159    66316.369    10.472245   0.10232018 
    3800   -3688.7219    212.45489    -3476.267    1198.8494    69336.274    10.472245   0.10865502 
    3900   -3694.1021    204.95994   -3489.1422    1156.5566    67363.027    10.472245   0.11060147 
    4000   -3704.2539     218.4856   -3485.7683    1232.8798    65258.783    10.472245   0.10209683 
    4100   -3699.6313    207.71756   -3491.9137    1172.1174    66232.661    10.472245   0.10311402 
    4200   -3685.7756    211.57691   -3474.1987    1193.8951    69939.605    10.472245   0.10655127 
    4300    -3682.314    226.72248   -3455.5915    1279.3592    71273.539    10.472245   0.10476914 
    4400   -3697.0586    214.73483   -3482.3238    1211.7148    67213.271    10.472245   0.10301405 
    4500   -3701.0263    208.53673   -3492.4896    1176.7399    66015.849    10.472245  0.099309996 
    4600   -3690.9077    206.69141   -3484.2163     1166.327    68333.841    10.472245    0.1013617 
    4700   -3690.6854     212.8017   -3477.8837    1200.8064    68781.391    10.472245   0.10017402 
    4800   -3703.1284    214.90688   -3488.2215    1212.6856    65249.885    10.472245  0.096674353 
    4900   -3698.8678    207.42448   -3491.4433    1170.4636    66407.477    10.472245   0.10185336 
    5000   -3701.1142    219.27209   -3481.8421    1237.3178    66304.738    10.472245   0.10135067 
    5100   -3701.9618    216.31827   -3485.6436    1220.6499    65946.929    10.472245  0.098888642 
    5200   -3703.3689    202.07259   -3501.2963    1140.2638    64794.114    10.472245  0.096977731 
    5300   -3704.5791    210.84524   -3493.7338    1189.7664    65177.101    10.472245  0.094094264 
    5400   -3696.2023     211.5421   -3484.6602    1193.6987     67046.19    10.472245   0.10062215 
    5500   -3693.7302    217.38132   -3476.3489    1226.6485    68193.588    10.472245   0.10382556 
    5600   -3694.6259    203.53919   -3491.0867    1148.5395    67273.828    10.472245   0.10399099 
    5700   -3702.0392    214.16104   -3487.8782     1208.477    66046.401    10.472245  0.095853201 
    5800   -3700.5363    213.43323   -3487.1031    1204.3701    66153.001    10.472245  0.099687814 
    5900   -3696.5231    214.95809    -3481.565    1212.9746    67126.076    10.472245  0.099823401 
    6000   -3699.6274    215.64543    -3483.982    1216.8532    66699.805    10.472245  0.098598946 
    6100    -3702.938    212.34432   -3490.5936    1198.2255    65415.653    10.472245   0.10136213 
    6200   -3695.6954    217.75599   -3477.9394    1228.7627    67427.021    10.472245   0.10645482 
    6300   -3693.4664    214.29244   -3479.1739    1209.2184    68050.704    10.472245   0.10845211 
    6400   -3701.0003    206.85194   -3494.1483    1167.2329    65775.275    10.472245   0.10170989 
    6500   -3699.9409    216.70104   -3483.2398    1222.8098    66556.645    10.472245   0.09618799 
    6600   -3682.0046    208.93654   -3473.0681    1178.9959    70554.932    10.472245   0.10307948 
    6700   -3701.3978    213.49315   -3487.9046    1204.7082     66329.28    10.472245   0.10015731 
    6800   -3697.0288    206.00168   -3491.0271     1162.435    66516.518    10.472245   0.10319277 
    6900   -3692.0218    209.69519   -3482.3266    1183.2768    68537.649    10.472245    0.1027496 
    7000   -3698.6657    206.28525   -3492.3805    1164.0351     66095.88    10.472245   0.10458576 
    7100   -3696.6339    211.40352   -3485.2304    1192.9167    67033.115    10.472245   0.10564065 
    7200   -3691.2402    213.96637   -3477.2739    1207.3785     68435.33    10.472245   0.10339571 
    7300   -3688.9802    204.66382   -3484.3163    1154.8857    68566.114    10.472245   0.10106099 
    7400   -3702.6647    207.77892   -3494.8858    1172.4637    65319.494    10.472245  0.098691707 
    7500   -3699.2767    212.77934   -3486.4974    1200.6802    66401.419    10.472245   0.10080794 
    7600   -3698.5684    208.77665   -3489.7917    1178.0937     66417.06    10.472245   0.10350051 
    7700   -3690.6195    216.95739   -3473.6621    1224.2563    69521.927    10.472245   0.10585502 
    7800   -3694.9303    214.60661   -3480.3237    1210.9912    67431.447    10.472245   0.10458018 
    7900    -3697.277    211.06588   -3486.2112    1191.0114    66855.343    10.472245   0.10461262 
    8000   -3696.1911    206.33794   -3489.8532    1164.3324    67111.385    10.472245    0.1063663 
    8100   -3701.0993    217.83963   -3483.2597    1229.2347    66364.612    10.472245   0.10473918 
    8200   -3695.8826    207.33687   -3488.5457    1169.9692    66888.265    10.472245   0.10829259 
    8300   -3692.4528    214.91778    -3477.535    1212.7471    68613.109    10.472245   0.10434818 
    8400     -3709.22    212.64979   -3496.5702    1199.9492     63694.08    10.472245   0.10013137 
    8500   -3701.3698    212.64548   -3488.7243    1199.9249    65783.619    10.472245   0.10403005 
    8600   -3695.4153    215.94957   -3479.4657    1218.5693    67682.914    10.472245   0.10502959 
    8700   -3699.9442    211.66864   -3488.2755    1194.4128    66160.377    10.472245   0.10135206 
    8800   -3703.2755    211.72521   -3491.5503     1194.732    65309.819    10.472245  0.097544119 
    8900   -3696.0551    218.58258   -3477.4725     1233.427    67375.408    10.472245   0.10023259 
    9000   -3703.7721    211.35932   -3492.4127    1192.6673    64856.429    10.472245   0.10056497 
    9100   -3710.3884    223.32014   -3487.0682    1260.1603    64175.898    10.472245   0.09548935 
    9200   -3699.0794    212.97299   -3486.1064     1201.773    66196.348    10.472245   0.10477268 
    9300   -3692.9831    215.66115   -3477.3219    1216.9418    68156.081    10.472245   0.10587135 
    9400   -3701.5877     207.4958   -3494.0919    1170.8661    65491.748    10.472245   0.10046893 
    9500   -3702.3454    209.41184   -3492.9336     1181.678    65524.752    10.472245  0.096579916 
    9600   -3695.2331    210.41239   -3484.8207    1187.3239    67700.785    10.472245   0.10131448 
    9700    -3690.222    211.25941   -3478.9626    1192.1035    68878.367    10.472245   0.10730927 
    9800   -3698.9913    212.56938   -3486.4219    1199.4954    66450.436    10.472245    0.1026566 
    9900   -3698.8167    211.26964   -3487.5471    1192.1613    66508.553    10.472245  0.098271346 
   10000   -3691.7257    202.36829   -3489.3574    1141.9323     68067.51    10.472245   0.10246772 
Loop time of 37.7425 on 1 procs for 10000 steps with 1372 atoms

Performance: 22.892 ns/day, 1.048 hours/ns, 264.953 timesteps/s
100.0% CPU use with 1 MPI tasks x no OpenMP threads

MPI task timing breakdown:
Section |  min time  |  avg time  |  max time  |%varavg| %total
---------------------------------------------------------------
Pair    | 23.691     | 23.691     | 23.691     |   0.0 | 62.77
Neigh   | 0.30066    | 0.30066    | 0.30066    |   0.0 |  0.80
Comm    | 0.18124    | 0.18124    | 0.18124    |   0.0 |  0.48
Output  | 0.0049707  | 0.0049707  | 0.0049707  |   0.0 |  0.01
Modify  | 13.489     | 13.489     | 13.489     |   0.0 | 35.74
Other   |            | 0.07626    |            |       |  0.20

Nlocal:    1372 ave 1372 max 1372 min
Histogram: 1 0 0 0 0 0 0 0 0 0
Nghost:    3258 ave 3258 max 3258 min
Histogram: 1 0 0 0 0 0 0 0 0 0
Neighs:    69694 ave 69694 max 69694 min
Histogram: 1 0 0 0 0 0 0 0 0 0

Total # of neighbors = 69694
Ave neighs/atom = 50.7974
Neighbor list builds = 98
Dangerous builds = 0
    
Total wall time: 0:00:37
