LAMMPS (3 Mar 2020)
Reading data file ...
  orthogonal box = (0 0 0) to (16.36 16.36 16.36)
  1 by 1 by 1 MPI processor grid
  reading atoms ...
  256 atoms
  read_data CPU = 0.000998058 secs
Reading potential file /usr/share/lammps-stable/potentials/Ag_u3.eam with DATE: 2007-06-11
Neighbor list info ...
  update every 1 steps, delay 10 steps, check yes
  max neighbors/atom: 2000, page size: 100000
  master list distance cutoff = 7.55
  ghost atom cutoff = 7.55
  binsize = 3.775, bins = 5 5 5
  2 neighbor lists, perpetual/occasional/extra = 1 1 0
  (1) pair eam, perpetual
      attributes: half, newton on
      pair build: half/bin/atomonly/newton
      stencil: half/bin/3d/newton
      bin: standard
  (2) compute rdf, occasional, copy from (1)
      attributes: half, newton on
      pair build: copy
      stencil: none
      bin: none
Setting up Verlet run ...
  Unit style    : metal
  Current step  : 0
  Time step     : 0.001
Per MPI rank memory allocation (min/avg/max) = 3.744 | 3.744 | 3.744 Mbytes
Step PotEng KinEng TotEng Temp Press Density c_msdall[4] 
       0       -729.6    46.805099    -682.7949         1420    11417.214    10.472245            0 
     100   -701.46259    29.044196   -672.41839    881.15953    47504.696    10.472245  0.082609267 
     200   -690.26407    41.755137   -648.50894    1266.7914     67134.18    10.472245    0.1103253 
     300   -677.54871    49.270601   -628.27811    1494.7998    84574.307    10.472245   0.14690434 
     400   -674.67726    47.405081   -627.27218    1438.2026    88691.168    10.472245    0.1429227 
     500   -687.00087     45.67098   -641.32989    1385.5925    71752.389    10.472245   0.10392139 
     600    -688.0361      44.6365    -643.3996    1354.2078    70423.469    10.472245  0.094386566 
     700   -684.02012    51.554434   -632.46569    1564.0881    77645.097    10.472245    0.1057682 
     800   -680.88119    44.483715   -636.39748    1349.5725    79835.619    10.472245   0.12895587 
     900   -685.28837    49.747157   -635.54122    1509.2579    74973.363    10.472245   0.13064463 
    1000   -681.59561    47.805504    -633.7901    1450.3509    80701.709    10.472245   0.13415826 
    1100   -682.35668    49.967886   -632.38879    1515.9545    79835.967    10.472245    0.1111997 
    1200   -682.83992    44.240818   -638.59911    1342.2034    77751.223    10.472245   0.11258058 
    1300    -680.8072     45.06331   -635.74389    1367.1566    80999.428    10.472245   0.12414363 
    1400   -679.36129     47.97405   -631.38724    1455.4643    83638.032    10.472245   0.13138208 
    1500   -685.95388    48.562216   -637.39167    1473.3084    74857.091    10.472245   0.11295509 
    1600   -684.23391    44.664327   -639.56958    1355.0521    76585.632    10.472245   0.10983214 
    1700   -680.12698    48.895303   -631.23168    1483.4138    82515.859    10.472245   0.12190078 
    1800   -682.50424    47.398589   -635.10565    1438.0057    78561.169    10.472245   0.12025212 
    1900   -687.09922    46.988242   -640.11098    1425.5563    72340.601    10.472245  0.097570441 
    2000   -683.19826    46.439112   -636.75915    1408.8965    78120.104    10.472245   0.10038537 
    2100   -679.80973    48.289644   -631.52009     1465.039    82719.779    10.472245   0.12069143 
    2200   -683.10131    44.332129   -638.76918    1344.9736    76659.732    10.472245   0.12623453 
    2300   -682.37721    46.003208     -636.374    1395.6718    78932.684    10.472245    0.1251663 
    2400   -681.68404    48.956732   -632.72731    1485.2775    79884.084    10.472245   0.12618996 
    2500   -685.29275    48.944103   -636.34865    1484.8944    75929.631    10.472245   0.11890593 
    2600   -683.83354    44.358418   -639.47513    1345.7712    76456.659    10.472245   0.11833413 
    2700   -680.98629     46.35444   -634.63185    1406.3277    80543.762    10.472245    0.1115336 
    2800     -683.046     43.40325   -639.64275    1316.7928    77752.131    10.472245   0.11745799 
    2900   -680.01126      48.1146   -631.89666    1459.7284    81562.013    10.472245   0.11462853 
    3000   -681.78916    44.609218   -637.17994    1353.3801    79222.956    10.472245   0.11504427 
    3100   -684.00733     47.44263    -636.5647    1439.3418    77438.226    10.472245   0.10786427 
    3200   -682.64879    49.440206   -633.20858    1499.9454    78634.076    10.472245   0.11169433 
    3300   -683.37563    45.299718   -638.07591    1374.3289    77898.607    10.472245   0.13176117 
    3400   -681.93605    49.418215   -632.51784    1499.2782    79217.288    10.472245    0.1273771 
    3500   -682.03725    46.281252     -635.756    1404.1072    80013.969    10.472245   0.12039487 
    3600    -684.1772    48.607391   -635.56981     1474.679    76932.103    10.472245   0.11589239 
    3700    -682.4871    42.047808   -640.43929    1275.6706    77472.174    10.472245   0.11787841 
    3800   -684.82229    49.049914   -635.77238    1488.1045    75743.528    10.472245   0.10453839 
    3900   -682.15105    46.267231   -635.88382    1403.6819    78096.744    10.472245   0.10724682 
    4000   -687.67172    46.092803   -641.57891      1398.39    71528.212    10.472245  0.098694239 
    4100   -681.64374    47.167472   -634.47627    1430.9939    80490.669    10.472245   0.10465081 
    4200   -682.44904    46.418098   -636.03094     1408.259    78612.024    10.472245    0.1090218 
    4300   -685.65983    48.435382   -637.22444    1469.4605    74707.153    10.472245     0.102644 
    4400   -681.87218    48.516296   -633.35589    1471.9153    79272.401    10.472245   0.10436466 
    4500   -684.15399     44.26902   -639.88497     1343.059    77201.516    10.472245    0.1135437 
    4600   -681.37529    47.215355   -634.15993    1432.4466    80022.334    10.472245   0.12023379 
    4700   -676.88257    51.198667    -625.6839    1553.2946    88033.707    10.472245   0.12508893 
    4800   -678.85578    44.451714   -634.40406    1348.6017    83028.522    10.472245   0.11771923 
    4900   -684.95236     46.09035   -638.86201    1398.3155    75631.537    10.472245  0.098712359 
    5000   -687.11025    45.526772   -641.58348    1381.2174    73207.108    10.472245   0.10146127 
    5100   -679.99268    47.512284    -632.4804     1441.455    81863.346    10.472245   0.12384732 
    5200   -684.26053    47.966925   -636.29361    1455.2481    75528.289    10.472245   0.12408985 
    5300   -685.38554    47.035302   -638.35024     1426.984    74673.304    10.472245   0.11563556 
    5400   -684.39866    49.739631   -634.65903    1509.0295    76918.863    10.472245   0.10728481 
    5500   -684.38387     48.44896   -635.93491    1469.8724    76146.257    10.472245   0.11233643 
    5600   -683.99136    45.146033   -638.84533    1369.6663    75864.797    10.472245   0.12009533 
    5700   -682.25222     49.62327   -632.62895    1505.4993    80093.734    10.472245   0.13478532 
    5800   -679.46501    51.548524   -627.91649    1563.9088    83563.445    10.472245   0.14111812 
    5900   -683.31626    48.385476   -634.93079    1467.9464    77700.428    10.472245   0.12034122 
    6000   -687.43082    48.376387   -639.05444    1467.6706    72000.191    10.472245  0.094223375 
    6100   -688.54083    47.233592   -641.30724    1432.9999    70317.451    10.472245   0.10759567 
    6200    -682.4542     46.69988   -635.75432    1416.8078    79180.114    10.472245   0.13825577 
    6300   -678.48072    48.070567   -630.41016    1458.3925    84573.902    10.472245    0.1405841 
    6400   -683.58195    45.041473   -638.54048    1366.4941    76838.258    10.472245   0.11229781 
    6500   -686.64481     47.12438   -639.52043    1429.6865    72499.741    10.472245    0.1002445 
    6600   -684.04422    49.692634   -634.35158    1507.6037    76848.923    10.472245   0.12221146 
    6700   -676.98822    48.044296   -628.94392    1457.5955    85691.765    10.472245   0.14840593 
    6800   -681.72905     44.36124   -637.36781    1345.8568    78946.568    10.472245   0.14220252 
    6900   -685.65435    50.480663   -635.17369    1531.5114    74944.927    10.472245   0.11693316 
    7000   -687.08154    49.911997   -637.16954    1514.2589    72973.752    10.472245   0.10529465 
    7100   -687.39233    48.282998   -639.10934    1464.8374    72695.265    10.472245  0.095829888 
    7200   -684.54566    49.152034   -635.39362    1491.2027    77717.804    10.472245   0.10081386 
    7300   -678.31258    43.818126   -634.49445    1329.3795    83747.454    10.472245   0.11784903 
    7400   -682.81386    43.409425   -639.40444    1316.9801    77404.348    10.472245   0.10882417 
    7500   -685.63686    50.109438   -635.52742    1520.2489    75997.341    10.472245   0.09470398 
    7600    -681.3472    41.953612   -639.39359    1272.8128    79795.258    10.472245   0.11328692 
    7700     -682.103    45.183497    -636.9195    1370.8029    79084.569    10.472245   0.11998345 
    7800   -677.89245    48.939814   -628.95264    1484.7642    85239.559    10.472245   0.13434703 
    7900   -683.19732    45.881383   -637.31593    1391.9758    76753.683    10.472245   0.11845795 
    8000     -687.542    49.922117   -637.61988    1514.5659    72630.391    10.472245   0.10150344 
    8100   -685.46835    50.148849    -635.3195    1521.4446    75319.539    10.472245    0.1074681 
    8200   -683.02256    52.689104   -630.33345    1598.5123    79240.364    10.472245   0.11834539 
    8300   -682.16896    45.250108   -636.91885    1372.8238     78163.88    10.472245   0.12812295 
    8400   -685.25263    49.291951   -635.96068    1495.4476    75849.586    10.472245   0.12040977 
    8500   -685.83498    47.586222   -638.24875    1443.6982     74513.39    10.472245   0.11319989 
    8600   -683.23813    49.519654   -633.71848    1502.3557    78332.889    10.472245   0.11320023 
    8700    -681.9464    48.798105    -633.1483     1480.465    79675.814    10.472245   0.11765553 
    8800   -684.49873    46.335264   -638.16346    1405.7459    75330.866    10.472245   0.11467149 
    8900   -681.23745     44.54216   -636.69529    1351.3457    79610.079    10.472245    0.1183664 
    9000   -682.83496    50.570943   -632.26402    1534.2504     79631.97    10.472245   0.11157423 
    9100   -682.56773    44.305951   -638.26177    1344.1794    78816.777    10.472245   0.10618057 
    9200   -684.61061    45.506695   -639.10392    1380.6083    75907.638    10.472245   0.10876927 
    9300   -677.57902    45.357653   -632.22137    1376.0866    84141.199    10.472245   0.13239853 
    9400   -679.12866    47.416875   -631.71179    1438.5604     83156.05    10.472245   0.12628154 
    9500   -684.56158    47.412777    -637.1488    1438.4361    75941.707    10.472245   0.10596407 
    9600   -686.21038    41.748518   -644.46186    1266.5906    72401.944    10.472245   0.10066491 
    9700   -687.24613    47.523193   -639.72294    1441.7859    72683.777    10.472245   0.10090652 
    9800   -681.36157    47.562701   -633.79887    1442.9846    80315.173    10.472245   0.11725104 
    9900   -681.75699    47.481171   -634.27582    1440.5111    80542.819    10.472245    0.1220021 
   10000   -684.74951    46.074989   -638.67453    1397.8495    75468.627    10.472245   0.10705523 
Loop time of 5.98187 on 1 procs for 10000 steps with 256 atoms

Performance: 144.436 ns/day, 0.166 hours/ns, 1671.718 timesteps/s
100.0% CPU use with 1 MPI tasks x no OpenMP threads

MPI task timing breakdown:
Section |  min time  |  avg time  |  max time  |%varavg| %total
---------------------------------------------------------------
Pair    | 3.8458     | 3.8458     | 3.8458     |   0.0 | 64.29
Neigh   | 0.021837   | 0.021837   | 0.021837   |   0.0 |  0.37
Comm    | 0.063039   | 0.063039   | 0.063039   |   0.0 |  1.05
Output  | 0.0027301  | 0.0027301  | 0.0027301  |   0.0 |  0.05
Modify  | 2.0321     | 2.0321     | 2.0321     |   0.0 | 33.97
Other   |            | 0.01637    |            |       |  0.27

Nlocal:    256 ave 256 max 256 min
Histogram: 1 0 0 0 0 0 0 0 0 0
Nghost:    1431 ave 1431 max 1431 min
Histogram: 1 0 0 0 0 0 0 0 0 0
Neighs:    13083 ave 13083 max 13083 min
Histogram: 1 0 0 0 0 0 0 0 0 0

Total # of neighbors = 13083
Ave neighs/atom = 51.1055
Neighbor list builds = 39
Dangerous builds = 0
Total wall time: 0:00:05
