LAMMPS (3 Mar 2020)
Reading data file ...
  orthogonal box = (0 0 0) to (17.469 17.469 17.469)
  1 by 1 by 1 MPI processor grid
  reading atoms ...
  217 atoms
  read_data CPU = 0.00103211 secs
Reading potential file library.meam with DATE: 2012-06-29
Reading potential file LiSi.meam with DATE: 2020-11-07
1 atoms in group Li
Neighbor list info ...
  update every 1 steps, delay 10 steps, check yes
  max neighbors/atom: 2000, page size: 100000
  master list distance cutoff = 6
  ghost atom cutoff = 6
  binsize = 3, bins = 6 6 6
  2 neighbor lists, perpetual/occasional/extra = 2 0 0
  (1) pair meam/c, perpetual
      attributes: full, newton on
      pair build: full/bin/atomonly
      stencil: full/bin/3d
      bin: standard
  (2) pair meam/c, perpetual, half/full from (1)
      attributes: half, newton on
      pair build: halffull/newton
      stencil: none
      bin: none
Setting up Verlet run ...
  Unit style    : metal
  Current step  : 0
  Time step     : 0.000777778
Per MPI rank memory allocation (min/avg/max) = 9.266 | 9.266 | 9.266 Mbytes
Step PotEng KinEng TotEng Temp Press Density c_msdli[4] 
       0   -951.06911    50.256344   -900.81276         1800    -114182.3    1.8918427            0 
     100   -918.40858    32.293816   -886.11476    1156.6474   -81421.728    1.8918427   0.11988255 
     200   -905.02438    44.278781    -860.7456    1585.9054   -67664.937    1.8918427   0.35799439 
     300   -899.97762     54.76605   -845.21157    1961.5213   -58577.711    1.8918427  0.027964936 
     400   -904.97215    50.726217   -854.24593    1816.8292   -63747.936    1.8918427   0.13774538 
     500   -905.97856    47.211757    -858.7668    1690.9539   -69431.865    1.8918427   0.39653006 
     600   -902.51572    48.571976   -853.94374     1739.672   -65456.929    1.8918427   0.15874954 
     700   -903.00759    52.863625   -850.14396    1893.3833   -61059.553    1.8918427  0.065630845 
     800   -904.70486     46.22039   -858.48447    1655.4468   -65622.755    1.8918427   0.10471272 
     900   -906.03649    55.473113   -850.56338    1986.8457   -64423.816    1.8918427   0.19363635 
    1000   -904.14497    50.866036   -853.27893    1821.8369   -64638.159    1.8918427  0.040904297 
    1100   -910.27673    47.465475   -862.81126    1700.0412   -69964.784    1.8918427  0.095889675 
    1200   -900.38437    44.269138   -856.11523      1585.56    -65237.58    1.8918427  0.012432685 
    1300   -903.55063    46.903286   -856.64735    1679.9056   -63999.051    1.8918427   0.16835298 
    1400   -901.20663    48.605861   -852.60076    1740.8857   -62196.903    1.8918427  0.085837987 
    1500   -901.70508    50.726779    -850.9783    1816.8492   -61650.909    1.8918427   0.04590201 
    1600   -904.55427    48.775904   -855.77837     1746.976   -64410.882    1.8918427   0.13289974 
    1700   -907.54852    57.598927   -849.94959    2062.9847   -67008.409    1.8918427   0.01432948 
    1800   -899.53873    49.932135   -849.60659     1788.388   -60173.415    1.8918427   0.13890169 
    1900   -904.97965    46.405861   -858.57379    1662.0896   -67740.457    1.8918427  0.077681854 
    2000   -907.44178    54.625418   -852.81636    1956.4844   -65641.961    1.8918427  0.047839932 
    2100   -902.23705    48.838376   -853.39868    1749.2135    -65687.73    1.8918427  0.090762248 
    2200   -902.90264    49.151346   -853.75129     1760.423   -63303.675    1.8918427   0.38767033 
    2300   -905.36722    49.685014   -855.68221     1779.537   -65562.351    1.8918427  0.082926995 
    2400   -903.77216    53.575938   -850.19623    1918.8958    -61281.91    1.8918427  0.013224149 
    2500   -902.96962    50.205888   -852.76373    1798.1928   -66000.787    1.8918427   0.17040371 
    2600   -908.06597    48.266301   -859.79967    1728.7239   -70003.634    1.8918427   0.13710282 
    2700   -904.11264    46.670876   -857.44177    1671.5815   -64300.253    1.8918427    0.2541407 
    2800   -904.67377    52.703718   -851.97005     1887.656   -67467.082    1.8918427   0.11341724 
    2900   -903.33846    48.797367    -854.5411    1747.7447   -65847.882    1.8918427   0.23279765 
    3000   -903.89095      49.6814   -854.20955    1779.4076   -65257.459    1.8918427  0.056409448 
    3100   -908.16334    53.200447    -854.9629    1905.4471    -68815.54    1.8918427  0.017867787 
    3200   -901.56745    50.219781   -851.34767    1798.6904   -65510.571    1.8918427  0.017356952 
    3300   -907.05123    46.420192   -860.63104    1662.6029   -70456.346    1.8918427   0.20590051 
    3400   -905.80777    51.766357   -854.04142    1854.0832   -66807.431    1.8918427   0.26067505 
    3500   -901.23054    50.819916   -850.41062    1820.1851   -64153.307    1.8918427    1.2387527 
    3600    -904.2743    45.889311   -858.38499    1643.5887   -67650.995    1.8918427   0.13787312 
    3700   -906.96782    51.236559   -855.73126    1835.1077   -68949.062    1.8918427   0.27078872 
    3800   -901.78226    51.133187   -850.64907    1831.4053   -62976.453    1.8918427  0.021470845 
    3900   -901.94118    47.521432   -854.41974    1702.0453   -64304.281    1.8918427   0.05934708 
    4000    -907.5255    49.128847   -858.39665    1759.6171   -69721.121    1.8918427  0.027726937 
    4100   -897.28967    48.945644   -848.34403    1753.0554   -60964.586    1.8918427   0.53438108 
    4200   -898.60445      48.2709   -850.33355    1728.8886   -61956.355    1.8918427   0.51810423 
    4300   -903.42027    47.595696   -855.82457    1704.7052    -67321.83    1.8918427   0.22577198 
    4400   -901.02524    51.147576   -849.87767    1831.9207   -61676.331    1.8918427   0.12497406 
    4500   -904.47384    49.519195   -854.95464     1773.598   -67632.826    1.8918427  0.067498524 
    4600   -907.44081    42.857348   -864.58346    1534.9948   -71884.231    1.8918427   0.19887964 
    4700   -905.05599    50.918642   -854.13734    1823.7211   -67548.561    1.8918427   0.18802999 
    4800   -904.49262    52.210606   -852.28202    1869.9946   -66896.006    1.8918427  0.079118485 
    4900   -909.45446    52.027263   -857.42719    1863.4279   -69265.859    1.8918427  0.077272369 
    5000   -899.67402    49.261257   -850.41276    1764.3596   -62499.442    1.8918427   0.25432831 
    5100   -901.11085    50.347349   -850.76351    1803.2594   -64494.528    1.8918427   0.70451655 
    5200   -908.73711    50.200369   -858.53674    1797.9952   -73010.932    1.8918427  0.006854848 
    5300   -899.86264    47.198847   -852.66379    1690.4915   -63159.724    1.8918427  0.052259558 
    5400   -899.57782     46.95605   -852.62177    1681.7954   -64139.095    1.8918427   0.12583416 
    5500   -904.84564    49.673773   -855.17187    1779.1344   -68136.464    1.8918427   0.37168716 
    5600   -905.68713    46.631726   -859.05541    1670.1793   -70503.876    1.8918427  0.089150975 
    5700   -904.31571    54.131698   -850.18401    1938.8011   -66334.237    1.8918427   0.11826813 
    5800   -903.50107    50.645811   -852.85526    1813.9493   -67354.368    1.8918427  0.089666475 
    5900   -909.96656    48.491275   -861.47528    1736.7816   -74013.985    1.8918427   0.42586639 
    6000   -900.53953    46.997424   -853.54211    1683.2773   -63195.832    1.8918427   0.19055793 
    6100   -900.95554    48.870562   -852.08498    1750.3663   -63848.605    1.8918427  0.072133331 
    6200   -907.14005    50.916183   -856.22387     1823.633   -71540.527    1.8918427   0.15441205 
    6300   -901.17489    54.002884     -847.172    1934.1875    -65864.17    1.8918427    2.6519146 
    6400   -903.78155    49.305016   -854.47653    1765.9269   -67203.604    1.8918427    2.6946895 
    6429   -902.77068    45.565913   -857.20477    1632.0058   -68240.374    1.8918427    2.0055426 
Loop time of 3.52382 on 1 procs for 6429 steps with 217 atoms

Performance: 122.602 ns/day, 0.196 hours/ns, 1824.438 timesteps/s
100.0% CPU use with 1 MPI tasks x no OpenMP threads

MPI task timing breakdown:
Section |  min time  |  avg time  |  max time  |%varavg| %total
---------------------------------------------------------------
Pair    | 3.4324     | 3.4324     | 3.4324     |   0.0 | 97.40
Neigh   | 0.025664   | 0.025664   | 0.025664   |   0.0 |  0.73
Comm    | 0.028007   | 0.028007   | 0.028007   |   0.0 |  0.79
Output  | 0.0019092  | 0.0019092  | 0.0019092  |   0.0 |  0.05
Modify  | 0.027624   | 0.027624   | 0.027624   |   0.0 |  0.78
Other   |            | 0.008254   |            |       |  0.23

Nlocal:    217 ave 217 max 217 min
Histogram: 1 0 0 0 0 0 0 0 0 0
Nghost:    888 ave 888 max 888 min
Histogram: 1 0 0 0 0 0 0 0 0 0
Neighs:    3611 ave 3611 max 3611 min
Histogram: 1 0 0 0 0 0 0 0 0 0
FullNghs:  7222 ave 7222 max 7222 min
Histogram: 1 0 0 0 0 0 0 0 0 0

Total # of neighbors = 7222
Ave neighs/atom = 33.2811
Neighbor list builds = 46
Dangerous builds = 0
Total wall time: 0:00:03
