LAMMPS (3 Mar 2020)
Reading data file ...
  orthogonal box = (0 0 0) to (17.469 17.469 17.469)
  1 by 1 by 1 MPI processor grid
  reading atoms ...
  217 atoms
  read_data CPU = 0.000998873 secs
Reading potential file library.meam with DATE: 2012-06-29
Reading potential file LiSi.meam with DATE: 2020-11-07
1 atoms in group Li
216 atoms in group Si
Neighbor list info ...
  update every 1 steps, delay 10 steps, check yes
  max neighbors/atom: 2000, page size: 100000
  master list distance cutoff = 6
  ghost atom cutoff = 6
  binsize = 3, bins = 6 6 6
  2 neighbor lists, perpetual/occasional/extra = 2 0 0
  (1) pair meam/c, perpetual
      attributes: full, newton on
      pair build: full/bin/atomonly
      stencil: full/bin/3d
      bin: standard
  (2) pair meam/c, perpetual, half/full from (1)
      attributes: half, newton on
      pair build: halffull/newton
      stencil: none
      bin: none
Setting up Verlet run ...
  Unit style    : metal
  Current step  : 0
  Time step     : 0.003
Per MPI rank memory allocation (min/avg/max) = 8.895 | 8.895 | 8.895 Mbytes
Step Temp E_pair E_mol TotEng Press Volume 
       0         1675   -951.04357            0   -904.27725   -114861.02    5330.9442 
    3200    1596.1845   -942.94033            0   -898.37455   -7366.1269    4696.6498 
Loop time of 2.28108 on 1 procs for 3200 steps with 217 atoms

Performance: 363.617 ns/day, 0.066 hours/ns, 1402.845 timesteps/s
100.0% CPU use with 1 MPI tasks x no OpenMP threads

MPI task timing breakdown:
Section |  min time  |  avg time  |  max time  |%varavg| %total
---------------------------------------------------------------
Pair    | 2.1809     | 2.1809     | 2.1809     |   0.0 | 95.61
Neigh   | 0.050743   | 0.050743   | 0.050743   |   0.0 |  2.22
Comm    | 0.014965   | 0.014965   | 0.014965   |   0.0 |  0.66
Output  | 2.4478e-05 | 2.4478e-05 | 2.4478e-05 |   0.0 |  0.00
Modify  | 0.029521   | 0.029521   | 0.029521   |   0.0 |  1.29
Other   |            | 0.004949   |            |       |  0.22

Nlocal:    217 ave 217 max 217 min
Histogram: 1 0 0 0 0 0 0 0 0 0
Nghost:    957 ave 957 max 957 min
Histogram: 1 0 0 0 0 0 0 0 0 0
Neighs:    4080 ave 4080 max 4080 min
Histogram: 1 0 0 0 0 0 0 0 0 0
FullNghs:  8160 ave 8160 max 8160 min
Histogram: 1 0 0 0 0 0 0 0 0 0

Total # of neighbors = 8160
Ave neighs/atom = 37.6037
Neighbor list builds = 86
Dangerous builds = 0
Setting up Verlet run ...
  Unit style    : metal
  Current step  : 3200
  Time step     : 0.003
Per MPI rank memory allocation (min/avg/max) = 9.665 | 9.665 | 9.665 Mbytes
Step PotEng KinEng TotEng Temp Press Density c_msdli[4] c_msdsi[4] 
    3200   -942.94033    44.565777   -898.37455    1596.1845   -7366.1269    2.1473409            0 1.2119093e-32 
    3300   -947.30872    43.058221   -904.25049    1542.1893   -7778.0096    2.1587038  0.066667466   0.10092161 
    3400   -946.84058    48.920346   -897.92023    1752.1494     10921.36     2.202725  0.017637054   0.12117621 
    3500   -943.02972    47.935051   -895.09467    1716.8597    6366.7535    2.1774549    0.2173876   0.12013839 
    3600   -942.36583    40.784267   -901.58156    1460.7445   -10535.624    2.1415798  0.087043003   0.14292917 
    3700   -943.07945    45.339335   -897.74012    1623.8905    798.36584    2.1668558   0.04313017   0.12237024 
    3800   -941.48075    50.041637   -891.43911      1792.31    10011.763    2.1847534  0.068795223   0.11827197 
    3900   -942.98181     43.60425   -899.37757    1561.7461    84.094938    2.1670113   0.28108826   0.13392396 
    4000   -945.02518    45.473522   -899.55165    1628.6966   -8096.0714     2.150592  0.056825786   0.10960142 
    4100   -940.78035    49.987443   -890.79291    1790.3689    3020.1305    2.1663484   0.11962038   0.10876752 
    4200   -947.57778    49.059044   -898.51873    1757.1171    8823.9263    2.1962991   0.05554676   0.10253607 
    4300   -947.11505    46.162052   -900.95299    1653.3573   -9772.3072    2.1538806    0.1113651   0.11099663 
    4400   -940.94556    46.154783   -894.79078     1653.097   -5982.2284    2.1476491   0.09806632   0.15439137 
    4500   -944.91497    45.686088   -899.22888      1636.31    9621.1001    2.1947605   0.43552657   0.13868221 
    4600   -947.03589    44.594348   -902.44154    1597.2078     3930.474    2.1884343   0.45999583   0.14253173 
    4700    -941.7013    44.879552   -896.82175    1607.4228   -5755.2438    2.1493437   0.45537282   0.12826628 
    4800    -940.8035    45.254671   -895.54882    1620.8582   -2340.2303    2.1583642   0.51622098   0.13800619 
    4900   -950.76609     46.44943   -904.31666    1663.6501    10227.811    2.2083939   0.27400897   0.12865872 
    5000    -944.9281    48.097186   -896.83091    1722.6668   -711.64945        2.166   0.34272239   0.12718774 
    5100   -942.64802    45.802125   -896.84589     1640.466   -7873.0138    2.1473195   0.44400507   0.12973762 
    5200   -945.38494    42.875889   -902.50905    1535.6589    4597.3127    2.1853691   0.46198895   0.11780023 
    5300   -947.21885     45.45051   -901.76834    1627.8725    9589.0706    2.2005968   0.16452625   0.13940728 
    5400   -944.66439    49.343682   -895.32071    1767.3117   -8151.1762    2.1513887   0.32184365   0.14628275 
    5500   -945.82287    45.487608   -900.33526    1629.2012   -8419.9002    2.1554377   0.19513585   0.15185233 
    5600   -950.21675     50.08019   -900.13656    1793.6908    5401.0238    2.1994831   0.42952576   0.14864586 
    5700   -940.08446    49.250053    -890.8344    1763.9583    3031.4299    2.1669519   0.45690381   0.14493503 
    5800   -946.66762    47.924988   -898.74263    1716.4993   -8895.9737    2.1541993   0.14672366   0.13413762 
    5900    -946.9455    47.205264   -899.74024    1690.7214    -573.1821    2.1741775  0.063654938   0.13190474 
    6000   -941.98752    51.125145   -890.86238    1831.1173    9157.2329    2.1875951   0.59589773   0.14524786 
    6100   -942.24999    45.156154   -897.09383    1617.3297   -805.84907    2.1690212    0.2833616   0.13214803 
    6200   -945.90385    44.741603   -901.16225     1602.482    -9007.471    2.1536455   0.47562997   0.12893052 
    6300   -941.87161    47.610957   -894.26065    1705.2518    6091.3474    2.1782834  0.087208684   0.14247086 
    6400   -945.93017    47.885319   -898.04485    1715.0785    6403.5891     2.192575   0.15624704   0.15873865 
    6500   -946.55816    43.531082   -903.02708    1559.1255   -5538.0895    2.1684966   0.14806362   0.14517648 
    6600   -945.55138     48.47045   -897.08093    1736.0357     -5979.27    2.1603579   0.31738938   0.14800833 
    6700   -942.85935    48.126371   -894.73298    1723.7121     6434.452    2.1858573  0.093760368   0.14765729 
    6800   -944.41135    40.371947    -904.0394    1445.9767    7152.9413    2.1939385   0.30894256   0.14795538 
    6900   -941.23728    43.546176    -897.6911    1559.6661   -4890.9891    2.1524508   0.23493832   0.13596175 
    7000   -944.57717    48.762465   -895.81471    1746.4947   -2728.2482    2.1636794   0.22225643   0.12963154 
    7100   -949.98503    47.164424    -902.8206    1689.2586    7756.4259    2.2031184  0.076930612   0.12705222 
    7200   -941.86275    43.598941   -898.26381    1561.5559   -9.3435715    2.1680583   0.10850154   0.13714894 
    7300    -938.1569    42.513787   -895.64312    1522.6897   -9994.2335     2.135467   0.05115173   0.14811524 
    7400    -945.3435    44.955909   -900.38759    1610.1576    6876.3771    2.1934505  0.057536436   0.14397916 
    7500   -948.14954    48.514743    -899.6348    1737.6222    17695.397    2.2230452   0.67839868   0.15088026 
    7600   -941.18202    48.205951   -892.97607    1726.5624    -14298.69    2.1268939   0.11278418   0.14880113 
    7700   -941.30936    42.508561    -898.8008    1522.5025   -9723.7227    2.1437822   0.40668718   0.15791899 
    7800   -946.59525    47.161275   -899.43398    1689.1458    10719.179     2.203232   0.41361583   0.13044184 
    7900   -943.35668     48.89075   -894.46593    1751.0894     4801.629    2.1789477   0.16272356   0.12142005 
    8000   -942.89357    47.829793   -895.06377    1713.0897   -11478.684    2.1385404   0.31740167    0.1284573 
    8100   -948.19624    45.802974   -902.39327    1640.4964   -953.93046    2.1766196   0.20976538   0.11358917 
    8200   -945.73684    50.319867   -895.41697    1802.2751    8304.3309    2.1922205   0.26163671   0.15392685 
    8300   -942.46711    45.441317   -897.02579    1627.5432   -854.02608    2.1663406   0.41401933   0.14491966 
    8400   -948.36914    43.543175   -904.82596    1559.5586   -4346.4935    2.1681261   0.32099691   0.14334142 
    8500    -944.8352      47.7264    -897.1088    1709.3866    1759.7136    2.1773332   0.59046443   0.14002636 
    8600   -941.23171    44.995608    -896.2361    1611.5795    7476.5614    2.1864452   0.16719249   0.16710362 
    8700   -948.17826    43.441533   -904.73673    1555.9182   -3463.2147    2.1746947   0.39207668   0.14155647 
    8800   -943.18286    45.997437   -897.18543    1647.4614   -5181.1301     2.155039   0.26836415   0.13750074 
    8900   -943.45072    48.177667   -895.27306    1725.5493    6613.7597    2.1864232   0.34736241   0.13743566 
    9000   -944.09193    42.167433   -901.92449    1510.2845    7790.9804    2.1916042   0.17298771   0.13194832 
    9100    -938.2847    43.223489   -895.06121    1548.1086    -5704.673    2.1462791   0.52459134   0.15702504 
    9200   -942.78008    47.943144   -894.83694    1717.1496   -1192.7156    2.1661099   0.32252921   0.15034179 
    9300   -944.95491    45.424548   -899.53036    1626.9426    12941.909    2.2067407   0.69458952   0.15541315 
    9400    -944.0815    44.261934   -899.81956     1585.302   -70.742851    2.1728154   0.60301264   0.13442988 
    9500    -939.8845    47.448608   -892.43589     1699.437   -19550.421    2.1131593   0.73286591   0.17045182 
    9600   -948.80808    47.318177    -901.4899    1694.7655    7905.3218    2.2031544   0.17588829   0.16198085 
    9700    -944.9007    45.691161   -899.20954    1636.4917    15023.954    2.2158983   0.75635678   0.16004572 
    9800   -941.31067    45.614888   -895.69578    1633.7599   -6784.0654    2.1486436   0.13128689   0.14890581 
    9900   -946.76559    51.199528   -895.56606    1833.7814   -9401.8616    2.1509086   0.35007515   0.12192855 
   10000    -949.3445    46.637253   -902.70724    1670.3773    8222.0278     2.201654   0.28503477   0.12244373 
   10100   -944.36064    48.485121   -895.87552    1736.5612    2082.8931    2.1760492   0.35223779   0.15807456 
   10200   -944.26751    47.100413   -897.16709     1686.966   -9220.7044    2.1505577   0.21699948   0.14572433 
   10300   -949.58613    45.001108   -904.58502    1611.7765    628.42585    2.1821559   0.16663516   0.13898152 
   10400   -946.26902    50.013831   -896.25519     1791.314    4794.1792    2.1833038   0.23253985   0.14735034 
   10500   -940.92365    45.127376   -895.79628     1616.299   -793.08915    2.1649496  0.064052743   0.14433178 
   10600   -944.52321    43.191177   -901.33203    1546.9513   -6512.4205    2.1555227   0.34930294   0.15046887 
   10700   -946.34522    44.811349   -901.53387      1604.98    3327.7663    2.1855203   0.66513614   0.13964655 
   10800   -941.40935     47.60072   -893.80863    1704.8852       2861.1    2.1725911   0.17233047   0.14924027 
   10900    -944.6114    47.125992   -897.48541    1687.8821   -7766.9464    2.1498534   0.14310935    0.1401474 
   11000   -945.74207    47.131356   -898.61072    1688.0743   -2527.5982    2.1693862    2.5146654   0.13192446 
   11100   -938.49651    49.716577   -888.77993    1780.6675    13285.066    2.1923218    6.0146838   0.14329344 
   11200   -943.30571    50.110688   -893.19502    1794.7831   -2596.4082    2.1567835    6.0506124    0.1262941 
   11300   -943.24068    43.918172   -899.32251    1572.9897   -12732.585    2.1348658     6.553247   0.12854298 
   11400   -942.06574    44.499351   -897.56639    1593.8054    7791.4112    2.1849135    6.7239177   0.14586696 
   11500   -944.12008    49.646047   -894.47403    1778.1414    8780.5536    2.1881647    5.9045432   0.13715699 
   11600   -937.50727    48.540773   -888.96649    1738.5544   -8012.7597    2.1267903    5.3084554   0.14096302 
   11700   -944.89838     46.25289   -898.64549    1656.6108    464.31373    2.1697475    6.3274208   0.13190444 
   11800   -943.18485    45.068501   -898.11635    1614.1903    7655.8331    2.1853266    5.1172791   0.12689265 
   11900   -944.59421    47.931272   -896.66294    1716.7244   -1787.3697    2.1629161    4.6098413   0.12841098 
   12000   -939.01457    51.765096   -887.24947     1854.038   -7354.0616     2.132986     4.965283   0.13373088 
   12100   -944.93721    47.531082   -897.40612     1702.391    8598.8529    2.1903671    5.6347442   0.12895371 
   12200    -943.1168    44.505425   -898.61137    1594.0229    3984.1984     2.179445    6.7784882   0.15193657 
   12300   -943.82606    45.989267   -897.83679    1647.1688   -8406.2097    2.1452838    4.7831418   0.12868238 
   12400   -941.29156    53.516682   -887.77488    1916.7735    1281.9279    2.1559428    5.5466206   0.13741328 
   12500   -941.05795    47.275468   -893.78248    1693.2358    11547.087    2.1896963    5.0503869   0.14390874 
   12600    -944.3473    45.911448   -898.43586    1644.3816   -6770.4842    2.1514058    3.9847236   0.13036131 
   12700   -943.20763    44.099388   -899.10824    1579.4802   -4497.4722    2.1565639    4.9649491    0.1533755 
   12800    -949.0254    49.769507   -899.25589    1782.5633     6500.608    2.1943637    5.3762375   0.12790828 
   12900   -940.32333     51.39844   -888.92489    1840.9057   -1777.9161    2.1495506    3.9754165   0.11576095 
   13000   -943.31144    47.298719   -896.01272    1694.0686   -5384.4904    2.1504596    6.2555572   0.12626421 
   13100   -947.62783    48.464139   -899.16369    1735.8097    1514.6952    2.1794669    5.3980479   0.11835266 
   13200   -949.34783    48.968255   -900.37957    1753.8653    1026.6271    2.1826458    5.6857601   0.12944951 
   13300   -939.15945    49.193773   -889.96568    1761.9425   -6496.4187     2.138804    6.3665048   0.14349388 
   13400   -946.57688    48.509589    -898.0673    1737.4376   -215.01429    2.1714679    4.2427705   0.12951669 
   13500   -943.77726    44.831669   -898.94559    1605.7078     4338.501    2.1776856    3.7337814   0.15433499 
   13600    -941.8844    49.755792    -892.1286     1782.072   -1490.7231    2.1569579    4.9653504     0.128293 
   13700   -945.63892    46.491242   -899.14767    1665.1477   -3301.3911    2.1645558    5.1695204   0.12508354 
   13800   -945.63272    45.096147   -900.53657    1615.1805    805.55446    2.1738708     7.014912   0.13769807 
   13900   -944.74909    49.995975   -894.75312    1790.6745    686.60143    2.1726359    7.4527096   0.12203044 
   14000   -945.09586    46.091088   -899.00478    1650.8156   -1693.7007    2.1663102    5.8219934   0.11651784 
   14100   -951.39576    48.292695   -903.10306    1729.6692   -2490.6859    2.1760665     4.729046   0.11326399 
   14200   -943.75953    48.375964   -895.38356    1732.6516    2194.5083    2.1715622    4.4868708   0.13716196 
   14300   -945.53498    46.567485   -898.96749    1667.8784   -2303.0553    2.1705376    4.4636695   0.15012839 
   14400   -949.78341      45.3602   -904.42321    1624.6379   -1598.4797    2.1816156    4.5917763   0.14664448 
   14500   -942.39175     47.25625    -895.1355    1692.5475   -295.20708    2.1666376    5.9016136   0.13250672 
   14600   -946.87694    48.830625   -898.04631    1748.9359   -453.08198      2.17086    6.9963203   0.12624865 
   14700    -950.5641    47.161159   -903.40294    1689.1417    287.29823    2.1811591    5.8764954   0.13302083 
   14800   -942.06999    48.447791    -893.6222    1735.2242   -1417.5159     2.162304    5.8892988   0.13875601 
   14900   -948.34464    51.313941   -897.03069    1837.8793   -909.87816    2.1750568    4.9557617   0.12070205 
   15000   -947.92147    46.116137   -901.80533    1651.7128    391.76254    2.1797796    6.3453826   0.11379344 
   15100   -940.19082     47.04831   -893.14251    1685.0998    626.51598    2.1620876    4.1866562   0.12861194 
   15200   -939.83981    44.426494   -895.41332    1591.1959    3167.4203    2.1714304    4.2451684   0.15313687 
   15300   -947.09475     46.12449   -900.97026     1652.012    167.01538    2.1764884    5.2788823   0.14133379 
   15400   -944.11151    49.435605    -894.6759    1770.6041   -1372.8735    2.1664742    5.2671606   0.14100659 
   15500   -942.01895    48.100592   -893.91835    1722.7888   -809.47519    2.1677994    6.7536181   0.14883172 
   15600    -944.4196    43.345738   -901.07386    1552.4871    445.16584    2.1772897    5.9344647   0.12289867 
   15700   -947.41405    51.031486   -896.38256    1827.7628    -1851.489    2.1737399    5.9218142   0.12578337 
   15800   -941.18424    48.334129   -892.85011    1731.1532   -913.83605    2.1613527    4.8932103   0.12982958 
   15900   -949.13665    46.277327   -902.85932     1657.486    626.66275    2.1810439    5.4480563   0.11477823 
   16000     -945.084    46.880958   -898.20304    1679.1059    963.23213    2.1738791    5.2660974   0.11301241 
   16100   -944.57099    49.840183    -894.7308    1785.0946   -3688.7685     2.158971    5.6304054   0.12243104 
   16200   -949.87397     45.83593   -904.03804    1641.6768   -604.96885     2.178869    7.7418768    0.1066198 
   16300   -947.17802    47.089795   -900.08823    1686.5857   -1198.1229    2.1746356    5.4862345   0.13643287 
   16400   -944.60139    49.099637   -895.50175     1758.571   -449.44053    2.1687709    5.8496688   0.13050903 
   16500   -947.97965    45.511608   -902.46805    1630.0608   -1974.1299    2.1746476    6.7383755   0.12107527 
   16600   -944.94315    43.248562   -901.69459    1549.0067    1597.8939    2.1772322    6.8969251   0.12547601 
   16700   -943.44928    48.297717   -895.15157    1729.8491     1018.446    2.1712226    5.2475867   0.10506192 
   16800    -944.4553    44.023113   -900.43219    1576.7483    295.88665    2.1727852    6.2172509   0.12379306 
   16900   -945.71829    42.493127   -903.22516    1521.9497    50.818019    2.1779534    4.3367472    0.1323164 
   17000   -941.32324    47.592175   -893.73107    1704.5791    389.10032    2.1630342    6.7677498    0.1317106 
   17100   -941.79314    43.502516   -898.29062    1558.1024    2807.9444    2.1766134    7.3312484   0.13660013 
   17200   -946.13003    44.131029     -901.999    1580.6134    -296.2456    2.1782047    6.5098482   0.12812023 
   17300   -939.42694    47.567507   -891.85943    1703.6956   -543.92876    2.1556706    6.7219707   0.13206731 
   17400   -947.26226    50.127517   -897.13474    1795.3859    3609.9356    2.1834924    6.2628708   0.12913508 
   17500   -946.70232    46.274317     -900.428    1657.3782    1298.5102    2.1788497     5.181564   0.12773562 
   17600   -941.70059    48.529882   -893.17071    1738.1644   -6656.6236    2.1486177    4.9536191   0.13403734 
   17700   -945.12559    50.196351   -894.92924    1797.8513   -1767.1052    2.1671154    4.2732877    0.1312203 
   17800   -948.77176    48.818167   -899.95359    1748.4897    5712.0625    2.1926425    5.1948859   0.11588805 
   17900    -944.6309     48.16845   -896.46245    1725.2192   -808.59549    2.1675494    5.9450009   0.12999097 
   18000   -938.70237    45.193978   -893.50839    1618.6844   -8748.8997     2.140053    4.0604964   0.13877496 
   18100   -946.94379    43.912158   -903.03164    1572.7743    8162.1774    2.1987782    7.1274142   0.13545965 
   18200   -946.43464    49.514297   -896.92035    1773.4226    7143.3639     2.194053    4.8507777   0.14814823 
   18300    -941.9755    47.304324   -894.67118    1694.2693   -9639.5934    2.1433105    4.9678068   0.14699294 
   18400   -946.97253    43.298707   -903.67383    1550.8027   -7068.8668     2.162025    5.1961206   0.14113474 
   18500   -946.43384    46.252584   -900.18125    1656.5998    8313.4551    2.1977898    4.6269109   0.14125273 
   18600   -945.57128    51.232954   -894.33832    1834.9786     2721.494    2.1790712    4.1201153   0.13612719 
   18700   -944.89438    44.578753   -900.31563    1596.6493   -8529.1524    2.1501422    4.4042729   0.12235526 
   18800   -947.00432    45.070214   -901.93411    1614.2516    -139.7893     2.177496    6.1360193   0.12593667 
   18900   -944.83475    51.452571   -893.38218    1842.8445     3995.937    2.1806615    6.0750796   0.13734113 
   19000   -945.91479    46.498945   -899.41584    1665.4236    937.85882    2.1736078    5.1232067   0.13381627 
   19100   -950.07401    47.962749   -902.11126    1717.8517   -4164.0194    2.1713865    6.3755292   0.12308312 
   19200   -940.14206    47.576711   -892.56535    1704.0253    1327.8992    2.1648944    5.3672283   0.13822307 
   19300   -949.01862    50.556556   -898.46206    1810.7525    922.04853    2.1817201    6.9135718   0.12795161 
   19400   -950.36473    48.891977   -901.47275    1751.1333    -2444.684    2.1766677    5.2794456   0.13150484 
   19500   -939.77029    47.448896   -892.32139    1699.4474   -2280.8365    2.1541404    4.3933676   0.15338552 
   19600   -945.44703    46.803291   -898.64374    1676.3242    3372.6444    2.1819181    4.7425551    0.1406664 
   19700   -946.18189    45.483345   -900.69855    1629.0485    2337.1113    2.1813038    4.4777363   0.13162674 
   19800   -940.12033    46.665271   -893.45506    1671.3808   -1466.4993    2.1574698    5.1861505   0.12940885 
   19900   -942.26779     43.89327   -898.37452    1572.0977   -668.17997    2.1691961    5.7305802   0.12082233 
   20000    -945.8167    44.433794    -901.3829    1591.4573    4624.8891    2.1857151    5.5052624   0.13949604 
   20100   -943.32019    48.725627   -894.59457    1745.1753    2961.8919    2.1758351    5.7830691   0.13039412 
   20200   -943.16112    44.945401   -898.21572    1609.7813   -7984.1703    2.1479822    6.0389438   0.14317949 
   20300   -944.44443    40.714717   -903.72972    1458.2535   -492.51095    2.1744526    5.2712029   0.14976782 
   20400   -941.08443    46.423995   -894.66043    1662.7391      14045.2    2.1961905    5.6056813   0.13097429 
   20500   -944.99557    47.401167    -897.5944    1697.7379   -2648.8758    2.1672399     4.826208   0.13584611 
   20600   -946.49116    41.668134   -904.82303    1492.4014   -10134.172     2.151206    5.4841959    0.1270431 
   20700   -945.42779    47.745413   -897.68238    1710.0676    3939.2574    2.1826462    5.5379294   0.11988551 
   20800   -940.79361    46.145897   -894.64771    1652.7787    12219.627    2.1944779    6.4017615   0.12072695 
   20900   -947.89996    45.165371   -902.73459    1617.6598   -7324.5381    2.1620112    5.6269842    0.1113175 
   21000    -945.8756    48.746307   -897.12929    1745.9159   -7647.5639    2.1525695    5.5894405   0.12126114 
   21100   -946.42763    53.039464   -893.38817    1899.6813    4373.0312    2.1787799    6.2755745   0.13264022 
   21200     -944.495    43.875234   -900.61976    1571.4518    5252.4731    2.1842965    7.0541793   0.14096529 
   21300   -945.79195    48.319866   -897.47208    1730.6424   -6008.9462    2.1544856    5.2259986   0.13394986 
   21400   -942.67184    49.973073   -892.69877    1789.8542   -5192.8477     2.152028     6.245541   0.12803668 
   21500   -945.16653     44.44621   -900.72032    1591.9021    6868.5786    2.1904766     5.937815   0.13999804 
   21600   -946.45844    48.399198   -898.05924    1733.4838    1825.0727    2.1778835     6.453169   0.12095335 
   21700    -941.6163    48.645033   -892.97127    1742.2887   -4183.1415    2.1482923    5.7630275   0.13168371 
   21800    -951.4444    48.743275   -902.70113    1745.8073   -1119.7661    2.1834721    5.6514035   0.11218511 
   21900   -944.50011    46.120681   -898.37942    1651.8755    5363.9818    2.1819542    5.0762753   0.13041408 
   22000   -943.67084    49.260944   -894.40989    1764.3484   -1393.7006    2.1604892    7.4476268   0.14057455 
   22100     -948.216    44.575193    -903.6408    1596.5218   -1442.5262    2.1768418    7.1071753   0.14288039 
   22200   -947.24431    47.312326   -899.93198    1694.5559   -619.55689    2.1726371    4.3462192   0.14388022 
   22300   -943.26298    48.297286   -894.96569    1729.8337   -401.21591    2.1689783    7.1657812   0.14682498 
   22400   -948.85164    45.946241    -902.9054    1645.6277   -2592.3534     2.174593    5.1128493   0.12960886 
   22500   -947.20659     46.20449    -901.0021    1654.8773   -2612.4591    2.1718399    5.0679416   0.12874801 
   22600   -942.31947    47.180666   -895.13881    1689.8404   -882.70009    2.1689829    6.2169397   0.13770913 
   22700   -945.94156    44.706251   -901.23531    1601.2158    2302.2095    2.1801977    5.2182193    0.1196372 
   22800   -946.93599    45.409278   -901.52672    1626.3957   -86.930136    2.1797117    5.8192184   0.13755849 
   22900   -940.67649    46.742861   -893.93363    1674.1598   -1306.4396    2.1623807    5.9527449   0.14481763 
   23000   -947.83304    47.716033     -900.117    1709.0153   -2398.7333    2.1744185    5.3361881   0.15424299 
   23100   -947.52432    46.673885   -900.85043    1671.6893   -62.295203    2.1820206     6.813311    0.1537941 
   23200   -941.92049    49.700627   -892.21987    1780.0962   -732.49732    2.1615931    5.2350903   0.15481204 
   23300   -944.23469    44.366123   -899.86857    1589.0336     703.2845    2.1750367    5.7469951   0.15088908 
   23400   -948.01173    47.982292   -900.02944    1718.5517   -173.87919     2.180607    5.4272924   0.13611848 
   23500   -943.94603    53.058106   -890.88793     1900.349   -2054.7768    2.1594838    5.8450444   0.14558051 
   23600    -945.2419    45.950537   -899.29136    1645.7816   -1100.9523    2.1735949    4.4827132   0.15018916 
   23700   -944.48883     44.63086   -899.85797    1598.5155    1788.7713    2.1819785    4.8749108   0.14859992 
   23800   -940.92931    48.488165   -892.44115    1736.6702    2320.1679    2.1693217    5.4768075   0.13652524 
   23900   -946.25044    48.518202   -897.73224     1737.746   -2887.9726    2.1658669    4.2867867   0.14176447 
   24000   -948.76354    47.779519   -900.98402    1711.2891   -2731.7583    2.1728548    4.7975038   0.12831347 
   24100   -944.81702    49.873881   -894.94314    1786.3016    5644.8796    2.1869474    6.0181201   0.16605332 
   24200   -947.37281    48.534973   -898.83784    1738.3467   -1339.4797     2.173371    4.4436646   0.14244362 
   24300   -948.97989    45.247928   -903.73196    1620.6167   -6501.9668    2.1656619    5.7510169   0.13116996 
   24400   -945.48269    48.867181   -896.61551    1750.2452    978.72624    2.1774241    4.7041411   0.13955963 
   24500   -944.73826    47.507203   -897.23105    1701.5357    5464.7443    2.1890019    4.6128183    0.1412381 
   24600   -951.55549    45.875902   -905.67959    1643.1084   -4609.2885     2.178312    5.2371028   0.14016363 
   24700   -945.01099    47.591032   -897.41996    1704.5382   -7864.5253    2.1545404    4.1335929   0.13348411 
   24800   -944.50477    48.635465   -895.86931     1741.946    6785.3911    2.1872376    5.6611683   0.13433916 
   24900   -948.37962    45.822781   -902.55684    1641.2058    6264.1484    2.1941806    7.6360227   0.12889326 
   25000    -945.2337    49.812067   -895.42163    1784.0876   -8553.1132    2.1460703    5.9693772   0.13745386 
   25100   -943.51267    48.288911   -895.22376    1729.5337   -3004.7454    2.1624305    6.7065876   0.13291814 
   25200   -944.26445    45.003882   -899.26057    1611.8758    9623.8409    2.1979159    5.8989042   0.15071023 
   25300   -947.76221    45.295074   -902.46713    1622.3053   -1274.3164    2.1745005    5.4077287   0.12234411 
   25400   -938.74177    46.859209   -891.88256    1678.3269   -13837.073    2.1242661    5.5009725   0.14630975 
   25500   -945.57928    47.492522   -898.08676    1701.0099    8693.8914    2.1979864    4.2105397   0.15262563 
   25600   -948.15009    49.150093   -898.99999    1760.3781    10509.084    2.2065215    6.6768485   0.14781344 
   25700   -947.27323    52.151546   -895.12169    1867.8792   -16915.214    2.1365046    6.1041575   0.13731138 
   25800   -942.99178    51.565896   -891.42588    1846.9034   -7965.0512    2.1461107    7.1723342   0.14202388 
   25900   -948.61833    49.051022    -899.5673    1756.8297    8290.5734    2.1989168    5.6430631    0.1203631 
   26000   -942.51621    44.269744   -898.24647    1585.5817    3161.6548    2.1769982    5.3008306   0.14125954 
   26100   -938.17929     46.32459    -891.8547    1659.1788   -4792.7752     2.146446    6.3625762    0.1539216 
   26200    -945.3977    43.195581   -902.20212    1547.1091    2806.3014    2.1870857    5.7979938   0.14862094 
   26300   -946.35989    46.808605   -899.55128    1676.5145    1605.1886    2.1781853    5.2591733   0.13498895 
   26400   -942.62346     47.58091   -895.04255    1704.1756   -269.76064    2.1621062    6.6746259   0.13371092 
   26500   -944.09288    44.107783   -899.98509    1579.7808   -1000.4219    2.1722247    5.8440938   0.13389025 
   26600   -947.78895    44.913579   -902.87537    1608.6415    2726.5471    2.1882704    6.6822724   0.12529207 
   26700   -945.49622    49.179695   -896.31652    1761.4383     775.6218    2.1783401    6.8390555   0.14034003 
   26800    -943.0457    44.943542   -898.10215    1609.7147   -4544.1657    2.1615315     5.837397    0.1327468 
   26900      -946.04    40.201528   -905.83847    1439.8729    3304.8735    2.1832081    4.8910986   0.12843198 
   27000   -945.11178    48.171864   -896.93992    1725.3415    4618.2854    2.1821051    5.2596039   0.12409872 
   27100   -943.96728    46.998719   -896.96856    1683.3237   -905.66036    2.1694645    4.8984354   0.13347648 
   27200   -951.56446    47.820613   -903.74384    1712.7609   -12915.896    2.1565226    4.5072069   0.13448878 
   27300   -946.09476     46.51554   -899.57922     1666.018    2687.4184    2.1863974    5.6887303   0.13864094 
   27400    -946.3562    52.277431   -894.07877     1872.388    9893.0826    2.1970098    5.4254652   0.13758322 
   27500   -947.11413    46.766643   -900.34749    1675.0116   -11854.645    2.1495524    8.1766762   0.12683345 
   27600    -942.7329    44.858544   -897.87435    1606.6704   -6791.0889    2.1520482    5.7261867   0.12929019 
   27700   -945.26497     55.38902   -889.87595    1983.8338    4108.4829    2.1812336    6.0409774   0.12940391 
   27800   -945.23564    47.850845    -897.3848    1713.8437    3916.2882    2.1799368    5.8632261    0.1353968 
   27900   -946.61927    46.013188   -900.60608    1648.0255   -8358.0825    2.1548767    4.8154612   0.13974233 
   28000   -942.37619    49.473553   -892.90263    1771.9632   -1046.4303    2.1657141    3.4390621   0.14653564 
   28100   -942.12345    47.531145    -894.5923    1702.3932    5676.5218    2.1812494    4.5138544   0.14603904 
   28200   -948.40154    47.762953   -900.63859    1710.6958   -3766.7781    2.1698683    5.4404044   0.12857588 
   28300   -943.69024    46.638041    -897.0522    1670.4055   -962.88765    2.1646246    4.8359154   0.12321145 
   28400   -938.67769    48.134199   -890.54349    1723.9924    2729.7722    2.1683538    6.2602542   0.13443635 
   28500   -943.88941    43.144958   -900.74445    1545.2959    3431.6258    2.1823775     4.637478   0.12989894 
   28600   -947.08093    47.470987   -899.60995    1700.2386   -5471.0339    2.1610393    4.6858982   0.12055528 
   28700   -944.77136    49.758564   -895.01279    1782.1713   -2062.0286    2.1653029    5.8610109   0.13223447 
   28800   -948.05209    46.113307   -901.93878    1651.6114     669.0289     2.184366    5.4745341   0.12012619 
   28900   -947.45393    44.954741   -902.49919    1610.1158   -1061.6208    2.1791449    4.8634844   0.13758689 
   29000   -944.63963    47.961117   -896.67851    1717.7933   -1867.7034     2.168914    4.7572351   0.14503675 
   29100   -942.29503    44.515029      -897.78    1594.3669    2941.4071    2.1748396    5.2945922   0.13982262 
   29200   -951.28219    45.665211   -905.61698    1635.5622    2797.4247    2.1914496    6.9379906   0.11813353 
   29300   -946.95255    50.267954    -896.6846    1800.4158   -3969.4038     2.163777    5.5924719   0.10882749 
   29400   -943.56079    46.385786     -897.175    1661.3707   -593.42689    2.1686368    6.0471208   0.11536986 
   29500   -944.26862    40.204981   -904.06364    1439.9966    5190.8157    2.1892493    6.0338506   0.13389053 
   29600   -944.22281    46.581078   -897.64173    1668.3653    2917.3993    2.1771815    4.3911424   0.12675571 
   29700   -946.98478    51.049126   -895.93565    1828.3946   -4082.2006    2.1629419    4.6940411   0.12638522 
   29800   -946.16218    45.095753   -901.06642    1615.1663   -5145.5206    2.1610732    6.0780809    0.1322781 
   29900   -945.05583    46.843358   -898.21247    1677.7592    6401.8803     2.195997    5.8391027   0.13790215 
   30000   -941.72474    49.806504   -891.91823    1783.8884   -1200.2764    2.1668644    5.9743252   0.15100896 
   30100   -946.32701    46.155022   -900.17199    1653.1055   -10167.256    2.1512532    5.1691223   0.12399574 
   30200   -943.11169    44.352289    -898.7594    1588.5381    2397.1339    2.1797281    4.2649445   0.13473218 
   30300   -936.73986    46.834756   -889.90511    1677.4511    10982.795    2.1880347    4.6616871   0.15223087 
   30400   -944.21395    46.148305   -898.06565    1652.8649   -1980.8511    2.1631289     5.015412   0.12337046 
   30500   -945.57934    44.980713   -900.59863     1611.046   -9996.7713    2.1503432    4.8959475   0.13411731 
   30600   -942.26047    49.124155   -893.13631    1759.4491     5646.726    2.1797282    5.1265143   0.15007084 
   30700   -945.67746    46.849759    -898.8277    1677.9885    6154.5527    2.1933382    5.1092774   0.14573799 
   30800   -945.45183    43.093104   -902.35872    1543.4387   -5719.4001    2.1620119    4.6252066   0.12910766 
   30900   -944.50716     48.30583   -896.20133    1730.1397   -3050.2749    2.1645058    6.6796072   0.13288973 
   31000   -945.59289    48.059972   -897.53292    1721.3339    6372.3971    2.1937916    5.7656447   0.13256871 
   31100   -951.41755    47.216735   -904.20081    1691.1322    1292.0148    2.1895306    5.5009086   0.12311721 
   31200    -944.4462    47.622405    -896.8238    1705.6618   -7306.5229    2.1531027     4.834574    0.1470678 
   31300   -942.50668    46.219238   -896.28745    1655.4055    572.95913    2.1755672    4.6928333   0.15552579 
   31400   -951.88255    48.128831   -903.75372    1723.8002    5948.3633    2.2050017    4.8047474   0.14381621 
   31500   -941.65941    46.258438   -895.40098    1656.8095   -2030.3698    2.1565174    5.2581201   0.14436111 
   31600   -943.14134    46.756165   -896.38517    1674.6363   -5088.1558    2.1585725    5.5380885   0.14379006 
   31700   -949.68516    48.382808   -901.30236    1732.8967    2041.6632    2.1913973    6.1030379   0.13284916 
   31800   -947.87763    49.333924   -898.54371    1766.9622    4081.5029    2.1865276    6.0804146   0.12414468 
   31900   -941.52296    47.717363    -893.8056    1709.0629    -9961.743    2.1405483    6.6551464    0.1208535 
   32000   -945.23372    44.209032   -901.02468    1583.4072   -4103.2233    2.1657457     6.201495   0.12887949 
   32100   -946.84509    48.416449   -898.42865    1734.1016    8885.7777    2.1951305    5.5728667   0.13320174 
   32200   -942.81066    51.283396   -891.52727    1836.7853   -2535.1898    2.1578579    4.8249801   0.15140254 
   32300   -943.79082    42.937685   -900.85313    1537.8722   -3382.7966    2.1634148    5.3328551   0.14567796 
   32400   -942.33036    43.102635   -899.22773    1543.7801    2471.9722    2.1761261    5.1618201   0.15527459 
   32500   -942.41694    49.629563   -892.78738     1777.551    1128.8759    2.1638127    6.6182011   0.12887706 
   32600   -943.64537     44.36399   -899.28138    1588.9572   -725.06891    2.1681967    5.1884424   0.12481823 
   32700   -947.06997    46.015058   -901.05491    1648.0925   -1822.4026    2.1720383    6.8592863   0.11999856 
   32800   -946.08272    50.862502   -895.22022    1821.7104    2102.7671    2.1770284    5.7669783   0.12943694 
   32900   -946.62273     48.00115   -898.62158    1719.2271    1366.8558    2.1753956     4.271356   0.14006372 
   33000   -948.93923    44.951748   -903.98748    1610.0086   -2250.1139    2.1761502     4.500321   0.13431431 
   33100   -942.81859    46.131074   -896.68751    1652.2478    2345.1305    2.1732927    4.9938358   0.13504509 
   33200   -940.77196    43.295189   -897.47677    1550.6767    4309.4691    2.1743002    5.1866488   0.14780609 
   33300   -948.79272    43.047471   -905.74525    1541.8043     1125.805    2.1852852    7.2717933   0.13763916 
   33400   -943.09875    45.939058   -897.15969    1645.3705   -4291.8711    2.1607842    4.8530797   0.12712943 
   33500   -945.03573    48.390155   -896.64558    1733.1599    2311.2486    2.1773211    6.4356193   0.13816035 
   33600   -950.15573     47.01841   -903.13732    1684.0289    1229.6191     2.186622    5.5021316   0.10749459 
   33700   -943.54355    47.675351    -895.8682    1707.5582   -4397.7121    2.1592996    5.9782844   0.14483149 
   33800   -941.75376    46.526419   -895.22734    1666.4076    2706.8156    2.1715716    4.9599902   0.15320178 
   33900   -948.38816     47.93747   -900.45069    1716.9463    2783.3426    2.1847645    4.9092652   0.13220025 
   34000   -946.69522    48.843828   -897.85139    1749.4088   -2312.2797    2.1692431     5.500239   0.13769381 
   34100   -942.84783     50.26789   -892.57994    1800.4135   -6288.4477    2.1504593    5.8242729   0.12698028 
   34200   -944.32166    44.295602   -900.02606    1586.5078    3822.1317    2.1821943    6.4190176   0.12543811 
   34300   -945.01391    45.897293   -899.11661    1643.8746    4268.7091    2.1857794    5.8493424   0.13919719 
   34400   -944.80116    53.456817   -891.34435    1914.6293   -10092.897    2.1417916     7.044215   0.12185928 
   34500   -947.78394    46.904715   -900.87922    1679.9568   -3472.2543    2.1689494    5.1196161     0.123015 
   34600   -941.79901    42.733438   -899.06557    1530.5568    7592.5937    2.1888445    4.2996161   0.14423957 
   34700   -939.05099    44.958435   -894.09256    1610.2481    1649.5736    2.1608518    4.4993004   0.13088386 
   34800   -943.61315    47.777643    -895.8355    1711.2219   -10845.534    2.1379113    7.3455918   0.12961637 
   34900   -946.19468    44.368065   -901.82662    1589.1032    5959.0862    2.1882795    6.6254504   0.13764113 
   35000   -943.74608    48.789069   -894.95701    1747.4475    11207.134    2.1950274    6.8016821   0.13148703 
   35100   -944.43017    46.766378    -897.6638    1675.0021   -8530.9852    2.1468534    6.7479113   0.10933944 
   35200    -949.6519     44.01999   -905.63191    1576.6364   -7248.7725    2.1637322    4.1911302   0.11863527 
   35300   -946.31707    49.013875   -897.30319    1755.4993    6591.7078    2.1874039    5.3493128   0.12106934 
   35400   -943.78689    47.245423   -896.54146    1692.1597     3418.982    2.1767613    5.0245197   0.14509057 
   35500   -948.63481    44.472481   -904.16233     1592.843   -6108.5219     2.163539    5.2966047   0.13767809 
   35600    -947.1612    47.583851   -899.57734     1704.281   -1066.9331     2.172093    5.3840668   0.12429776 
   35700    -947.1216    51.965404    -895.1562    1861.2123      1560.69    2.1808659     6.417079   0.12633663 
   35800   -946.95511    45.489473   -901.46564    1629.2679   -2426.3769    2.1721479    5.2697163   0.11556128 
   35900   -945.10728    44.567899   -900.53938    1596.2605    -1314.854    2.1664398    5.9352451   0.12765881 
   36000     -947.296    54.107391   -893.18861    1937.9305   -3078.6766    2.1629667    5.9089473   0.12350763 
   36100   -948.63634    49.615474   -899.02087    1777.0463    174.40867    2.1747167    4.9164828   0.12155008 
   36200   -946.14948    44.901688   -901.24779    1608.2156   -474.91689    2.1718521    4.6028983   0.12498832 
   36300   -938.61699    47.234307   -891.38268    1691.7616   -1797.8374    2.1519625    5.0785095   0.13596324 
   36400   -944.02123    46.085547   -897.93568    1650.6172    3350.2904    2.1808665    6.9204701   0.14078953 
   36500   -944.72377    44.133329   -900.59044    1580.6958    1991.7554    2.1752278    6.6960431   0.13174665 
   36600   -942.71387    49.655225   -893.05865    1778.4701   -6449.4938    2.1501988    6.7263531   0.13065446 
   36700   -939.44387    42.898134   -896.54573    1536.4556    4084.2803    2.1719988    7.4140943   0.12695696 
   36800    -943.9106     43.22709   -900.68351    1548.2376    6078.6449    2.1867285    5.0125795   0.11961786 
   36900   -943.14108    47.095652   -896.04543    1686.7954   -3690.8895    2.1578814    4.8326157   0.11721404 
   37000   -940.59017    46.474744   -894.11542    1664.5568   -4727.2376    2.1441964    4.9054338   0.12945847 
   37100   -948.36833    45.412624    -902.9557    1626.5155    9490.0821    2.2048362    5.2658368   0.15359151 
   37200   -941.96391    45.904807   -896.05911    1644.1437    6571.1083    2.1843163    5.8191445   0.13955977 
   37300    -946.6239     49.51024   -897.11366    1773.2772   -12999.615    2.1391534    4.9433035   0.12439748 
   37400   -949.26706    44.126438   -905.14062     1580.449   -3453.9628    2.1736403    5.1881094   0.11439473 
   37500   -944.97539    46.118068   -898.85732    1651.7819    12324.117    2.2018329    7.1585407   0.13328282 
   37600   -941.94664    45.828554   -896.11809    1641.4126    609.16302    2.1701184    7.0759816   0.12893004 
   37700   -947.60383    45.601456   -902.00237    1633.2788    -12487.13    2.1490119    5.4491904   0.12609399 
   37800   -947.93308    47.452635   -900.48045    1699.5813    4009.9488    2.1838784    5.4654266   0.11638018 
   37900   -941.95525    48.818236   -893.13701    1748.4922    6359.2791    2.1822644    3.3788494   0.13655388 
   38000    -944.0034      44.2132    -899.7902    1583.5565   -4839.2793    2.1589761    5.2005402   0.13920848 
   38100   -944.80124    45.118736   -899.68251    1615.9895   -1543.1362    2.1638092    5.1433484   0.13241783 
   38200   -941.66876       51.419   -890.24976    1841.6421    3174.9442    2.1686807    5.4561753   0.14854199 
   38300   -946.20828    48.425343   -897.78294    1734.4202    3375.7542     2.180269    7.9486428   0.11939648 
   38400   -946.45929    45.811084    -900.6482    1640.7869   -5874.6576    2.1640925    7.7465878   0.12633906 
   38500   -941.10608    48.751448   -892.35463    1746.1001   -2188.3058    2.1577339    5.4526049   0.12560616 
   38600   -945.39241    48.565269   -896.82714    1739.4318    4284.4789    2.1813634    6.2651696   0.12388871 
   38700   -944.02542    43.477851   -900.54757    1557.2189    268.63773    2.1707483    4.2973338   0.13205255 
   38800   -939.52294    43.689656   -895.83328     1564.805   -1096.2806    2.1575551     3.946259   0.14012394 
   38900   -941.62355    50.036344   -891.58721    1792.1204    1665.5907     2.164348    5.8462612   0.12697986 
   39000   -948.14195    46.657468   -901.48448    1671.1013     6367.068    2.1928321    5.8698944   0.11895588 
   39100     -946.606    48.174019   -898.43198    1725.4187   -5765.9078    2.1615539    7.5328621   0.13401629 
   39200   -939.36083    44.788057   -894.57277    1604.1458   -1914.9898    2.1537152    9.9270576   0.14897699 
   39300   -950.70016    46.101885   -904.59827    1651.2023    1978.0598    2.1894912     6.705654   0.12428796 
   39400   -947.36486    47.423638   -899.94122    1698.5427   -2240.3025    2.1728222    2.8877814   0.12431548 
   39500   -944.72238    48.943065   -895.77931    1752.9631   -2306.2243    2.1622388    5.1414329   0.13328512 
   39600   -948.40076    46.456822   -901.94394    1663.9149   -478.56007     2.175364    4.2862028   0.11567889 
   39700   -947.48573    44.564596   -902.92113    1596.1422     1993.712     2.184442    4.7199225   0.13325547 
   39800    -939.0377    43.588238   -895.44946    1561.1726    2305.0642    2.1635105    6.4170239   0.12387741 
   39900   -945.13784    45.245491   -899.89235    1620.5294     -3259.93     2.163392    5.9019738   0.11818405 
   40000   -950.03974    46.575111   -903.46463    1668.1516    2812.3017    2.1867833    6.4588273   0.12788536 
   40100   -941.74988    48.383175   -893.36671    1732.9099    72.607721    2.1631043    5.7397462   0.13399227 
   40200    -944.0107    46.202907   -897.80779    1654.8206   -802.13967    2.1689012    5.4287953   0.13773924 
   40300   -943.85571    42.332928   -901.52278     1516.212    2776.5198    2.1794422     6.452134   0.14620571 
   40400   -940.20926    47.867028   -892.34223    1714.4233    2953.7864    2.1683526    4.0025931   0.15204528 
   40500   -943.00201    47.348934   -895.65308    1695.8671    3129.5569    2.1732586    4.6344367   0.13921017 
   40600   -944.60366    43.721654   -900.88201    1565.9511   -4812.0634    2.1636125    4.3858708   0.12990445 
   40700    -943.4436    48.465428   -894.97817    1735.8559    34.977483    2.1692781    7.8834066   0.13377412 
   40800   -940.46662    48.394974   -892.07165    1733.3325    6102.3463    2.1791486    5.0555774   0.13387452 
   40900   -944.90102    44.423599   -900.47742    1591.0922   -1055.0045    2.1723706    8.0514325   0.11977309 
   41000   -944.03474    45.812995   -898.22175    1640.8554   -6208.9563    2.1555402    6.6501154   0.13184053 
   41100   -943.81953     52.65066   -891.16887    1885.7557    1694.8823    2.1707845     5.725145   0.15478846 
   41200   -944.11169    44.994742   -899.11695    1611.5485    6397.7872    2.1853684    12.832234   0.17078221 
   41300   -945.65777    45.645844   -900.01192    1634.8686   -8996.7975     2.149307    9.9600872   0.17922508 
   41400   -939.98432    44.839054   -895.14527    1605.9723   -445.14744      2.16458    18.947666   0.15350209 
   41500   -944.07717    51.459022   -892.61815    1843.0755    9905.6477    2.1958907     19.86108   0.14376014 
   41600    -946.9118    44.003085   -902.90871    1576.0309   -3869.7905    2.1749942    20.508078   0.15054114 
   41700   -943.31959    44.350555   -898.96903    1588.4761    -12295.16    2.1372381    15.696289   0.14338623 
   41800   -943.96175     48.50913   -895.45262    1737.4211    6111.7272     2.183752    18.405692   0.15561226 
   41900    -947.5955    45.954947   -901.64055    1645.9395    8080.1228    2.2015256    16.142042   0.14577619 
   42000   -947.65309     43.20801   -904.44508    1547.5542   -5111.7118    2.1680263    17.302284   0.14349213 
   42100   -939.93055    44.163414   -895.76713    1581.7733   -4975.4301    2.1522195     17.71755   0.16054718 
   42200   -942.05986     44.23504   -897.82482    1584.3387    7086.5382    2.1864861    18.211372   0.15043778 
   42300   -949.61889    47.139037   -902.47986    1688.3494    2717.5957     2.190835    17.113022   0.13659036 
   42400   -940.69766    48.259275   -892.43839    1728.4722   -4755.8804    2.1502498    17.179562   0.15268528 
   42500   -944.25817    48.450363   -895.80781    1735.3163    919.31702    2.1716053     16.02314   0.13346163 
   42600   -946.68989    46.886599   -899.80329    1679.3079    4476.4252    2.1865601    17.248983   0.14447672 
   42700    -943.0992    45.414306    -897.6849    1626.5758   -444.44529    2.1689354    16.448167   0.17524939 
   42800   -941.91696    50.249244   -891.66772    1799.7457   -6887.7445    2.1467068    17.206917   0.15621003 
   42900   -942.70853    42.973183   -899.73535    1539.1436    6255.2791    2.1840245     14.01874   0.14316313 
   43000   -943.39079    45.390131   -898.00066    1625.7099    10703.282    2.1974195    15.747771   0.14893514 
   43100   -940.19548    49.066836   -891.12865    1757.3961   -5854.5076    2.1481135    14.910913   0.15044753 
   43200   -942.83334    43.587179   -899.24616    1561.1347   -8768.6389    2.1471498    16.029933   0.15224532 
   43300   -943.59519    44.220219   -899.37498    1583.8079    12205.801    2.2001193    16.622861   0.14840978 
   43400   -943.59676    48.382245   -895.21451    1732.8765    10858.808    2.1998681    14.496892   0.15775661 
   43500   -942.52426    45.596515   -896.92775    1633.1018   -15337.628    2.1331162    14.462802   0.15829414 
   43600   -946.91679    41.864994    -905.0518    1499.4523   -3441.9996    2.1726009    17.053375   0.15655846 
   43700   -944.40868    47.421942   -896.98673     1698.482    11327.922    2.2040758    16.763654   0.16673049 
   43800   -941.88097    44.483721   -897.39725    1593.2456     1170.901    2.1721489     15.53392   0.15052677 
   43900   -946.51337    42.514642   -903.99873    1522.7203   -7923.5393    2.1584908    14.392168    0.1413869 
   44000   -948.37547    46.442394   -901.93308    1663.3981    2858.7326     2.186561    15.316992   0.13833467 
   44100   -944.68879     48.99366   -895.69513    1754.7752    4900.4712    2.1817627    13.424106    0.1490303 
   44200   -943.32141    43.613713   -899.70769     1562.085   -3411.9273    2.1645453    17.743877   0.16058803 
   44300   -946.54556    45.919612   -900.62594     1644.674   -4005.8092    2.1617248    11.440046   0.15140511 
   44400   -941.02092    50.155162   -890.86576     1796.376   -262.62855    2.1618694    13.557235    0.1521504 
   44500   -947.05768    50.936635   -896.12105    1824.3655    568.58214     2.179814    9.9656219   0.17576517 
   44600   -943.95454     45.03913   -898.91541    1613.1383   -3946.0859    2.1636445      30.9546   0.14846202 
   44700    -943.3857     45.60743   -897.77827    1633.4928   -3176.2205    2.1634923    27.541045   0.14966581 
   44800   -941.16397    52.761879   -888.40209    1889.7392    2045.4955    2.1623917    30.446578    0.1433398 
   44900   -942.83952    46.997604   -895.84192    1683.2837    5698.7319    2.1816383    29.510673   0.12364964 
   45000   -944.09409    44.509452   -899.58463    1594.1672    -5083.536    2.1632268    31.141438   0.15911786 
   45100   -944.20517    47.275019   -896.93015    1693.2197   -4803.7874    2.1569925    30.962062   0.11494023 
   45200   -942.27389    52.983539   -889.29036    1897.6782    5715.9609    2.1735168    31.234817   0.12144592 
   45300   -947.13658    49.925917   -897.21066    1788.1653    3986.1987    2.1834257    34.013563   0.13132885 
   45400   -944.62978    44.832444   -899.79733    1605.7356   -7314.5454    2.1524229    29.035465   0.13158633 
   45500   -942.58938    49.564586    -893.0248    1775.2237    -1379.717    2.1580957    26.949037   0.17185422 
   45600   -941.95795    50.188055   -891.76989    1797.5541    10627.291    2.1897496    33.000206   0.14005232 
   45700   -948.04859    48.857395   -899.19119    1749.8947   -1363.0927    2.1739931    31.549902   0.12721803 
   45800   -947.30158    48.724177   -898.57741    1745.1233   -8518.9938    2.1541936     34.99134   0.12399458 
   45900   -943.65613    50.535136     -893.121    1809.9853    2740.9124    2.1784241    34.495562   0.13828984 
   46000   -941.33438    50.433625   -890.90076    1806.3495    6170.4183    2.1804091    29.575787   0.13935347 
   46100   -945.99906    45.953269   -900.04579    1645.8794   -3759.4058    2.1692571    31.879084   0.13185546 
   46200   -946.12737    47.395163   -898.73221    1697.5229   -2650.3445    2.1687052    32.019296    0.1244597 
   46300   -942.62071    46.946887   -895.67382    1681.4672     6334.494    2.1860603    33.193195   0.14643251 
   46400   -942.94008    48.809027   -894.13105    1748.1623    1275.7967    2.1733339    29.224931   0.15862992 
   46500   -948.68463    44.443846   -904.24078    1591.8174   -7003.2989     2.165066    29.828753   0.13994106 
   46600    -947.5919    46.280774   -901.31113    1657.6095   -4138.8262    2.1700748    28.441086   0.14296453 
   46700   -943.52138    46.438917   -897.08246    1663.2736    10570.842    2.1966366    29.422396   0.14319319 
   46800   -945.15291    48.064911   -897.08799    1721.5108   -594.74838    2.1708505    28.607518    0.1389377 
   46900   -947.70153    44.369428    -903.3321     1589.152   -14422.792    2.1445267    31.609358   0.14449929 
   47000   -948.58015    44.526492   -904.05366    1594.7775    2308.5534    2.1910708    32.577751    0.1475971 
   47100    -941.9377    45.047963   -896.88974    1613.4547    12965.213    2.2016081    30.859119   0.15526169 
   47200   -942.42374    44.348221   -898.07552    1588.3925    -7375.446    2.1518761    28.744144   0.15248466 
   47300   -947.97374    46.024673   -901.94907    1648.4369   -9090.4967    2.1529936    29.882132   0.12193217 
   47400   -949.05824    44.244592   -904.81364    1584.6808     10287.93    2.2055047    31.707381   0.13460863 
   47500   -942.84692    45.946389   -896.90053     1645.633    3695.5669    2.1763312    33.337945   0.13984298 
   47600   -945.16311    46.825274   -898.33784    1677.1115   -7227.0514    2.1508553    32.328099    0.1427593 
   47700   -949.40218     45.59449   -903.80769    1633.0293   -1692.7658    2.1748366    31.536029   0.12481328 
   47800   -949.34205    44.997786   -904.34426    1611.6575    8862.5507    2.2021499     30.50536   0.13299734 
   47900   -947.68599    50.439163   -897.24682    1806.5479   -4649.8766    2.1629027    30.174948   0.14217206 
   48000   -943.47758    44.689669   -898.78791    1600.6219   -7427.7397     2.148956    34.000585   0.13454352 
   48100    -944.3198    41.594779   -902.72502    1489.7742    5961.1608    2.1858258    27.860001    0.1447688 
   48200     -951.653    43.529081   -908.12392    1559.0538    7528.5584    2.2055004    28.215231   0.12134202 
   48300   -939.44849    40.967749   -898.48074    1467.3162   -4755.5696    2.1484406    29.445765   0.13239187 
   48400   -943.12701    44.618309    -898.5087     1598.066   -4145.0923    2.1575462    30.565941   0.14681196 
   48500   -940.61054    45.808824   -894.80172     1640.706    9031.4142    2.1821052    37.654196   0.15589109 
   48600   -939.28014    50.907489   -888.37265    1823.3216   -1025.4223    2.1489376    32.617445   0.16135738 
   48700   -944.21046    45.364554   -898.84591    1624.7938   -713.12376    2.1643525    27.483961   0.16147999 
   48800   -945.20602    46.932469   -898.27355    1680.9508    1894.4228      2.17464    30.638729   0.13508268 
   48900   -944.36386    46.732403   -897.63146    1673.7852    1811.0554    2.1690106    31.473585   0.13175666 
   49000    -937.4085    50.481139   -886.92736    1808.0513    247.85619    2.1513212    29.841752   0.14618946 
   49100   -944.65831    50.767264   -893.89104    1818.2993    1118.9653    2.1718263    27.436263   0.13761432 
   49200   -944.30611    46.278103   -898.02801    1657.5138   -1266.8501    2.1658962     32.20725   0.13400187 
   49300   -946.30623    47.100358   -899.20587     1686.964   -3519.8718    2.1662173    30.151918   0.14384408 
   49400   -940.24845    48.665329   -891.58312    1743.0156    2447.1464     2.169873    28.940228   0.15734058 
   49500   -942.26796    49.494557    -892.7734    1772.7155    1473.1542    2.1648035    30.228388   0.15164883 
   49600   -944.31465      45.1926   -899.12205    1618.6351   -5407.7162    2.1586736    28.335051   0.14920545 
   49700   -946.10261    47.867663   -898.23495    1714.4461    263.31316    2.1735723    31.117137   0.14501013 
   49800   -937.24088    48.292704   -888.94818    1729.6695    8044.5775    2.1741908    30.794131   0.14676279 
   49900   -941.67094    45.470186   -896.20076    1628.5772   -553.49731    2.1609705    30.358458   0.13527772 
   50000   -942.40931    42.542395   -899.86691    1523.7143   -11140.133    2.1365301    31.699573   0.12315019 
   50100   -944.84223    49.517864   -895.32436    1773.5503    12034.863    2.2006107    29.723264   0.13345083 
   50200   -946.06611    46.869678   -899.19643    1678.7019    14552.152    2.2102224    31.536507   0.14065974 
   50300   -948.76556    43.699265   -905.06629    1565.1492   -13127.915    2.1471012    31.728025   0.13990038 
   50400   -945.04204    45.011182   -900.03085    1612.1373   -4619.8906    2.1625419    30.623364   0.14780545 
   50500   -944.08048    48.625184    -895.4553    1741.5777    11094.019    2.1937677    30.980022   0.15206738 
   50600   -950.57982    48.572927   -902.00689    1739.7061   -1929.3224     2.176115    30.198369   0.11242515 
   50700   -952.25683    48.039475   -904.21736    1720.5998   -10681.179    2.1638963    32.047651   0.12995981 
   50800    -944.5165    47.991659   -896.52484    1718.8872   -1523.3108    2.1717562    29.638462   0.14415211 
   50900   -944.43687    46.474812   -897.96206    1664.5592    5140.7216    2.1852741    32.468739   0.14077578 
   51000   -950.97033    46.045264   -904.92507    1649.1744   -3292.9854    2.1770063    27.731687   0.12564686 
   51100    -939.9647     43.26271   -896.70199    1549.5134   -2131.4677    2.1581422    29.632084   0.13585369 
   51200   -941.90073    45.947438   -895.95329    1645.6706    9068.8512    2.1861158    29.821767   0.14895683 
   51300   -944.59765    44.817283   -899.78036    1605.1926    4968.4246    2.1806442    34.107706    0.1374052 
   51400   -944.51571    46.985452   -897.53025    1682.8485    -8018.221    2.1504628    31.016833   0.15095764 
   51500   -940.67807    49.162522   -891.51555    1760.8232   -3759.1142    2.1518668    34.847859   0.13994988 
   51600   -947.72854    49.964271   -897.76427     1789.539    8985.0122    2.1984949    32.598902   0.11764686 
   51700   -945.08935    45.366183   -899.72317    1624.8521     1959.089    2.1761418    34.817139   0.12637236 
   51800   -940.07809    48.646958   -891.43113    1742.3576   -15089.836    2.1218645    31.052603   0.14217884 
   51900   -942.80035    50.707959   -892.09239    1816.1752    3944.5902    2.1751834    26.656167   0.13348737 
   52000   -945.63828    48.892358   -896.74593     1751.147    14314.151    2.2093009    25.399317    0.1649963 
   52100   -939.36492    41.887477   -897.47745    1500.2575   -6080.6032    2.1455361    22.760008   0.15378178 
   52200    -937.1351    46.081149   -891.05395    1650.4596   -10750.762    2.1341783    24.214969    0.1619466 
   52300   -944.09885    44.536126   -899.56272    1595.1225    6870.2616    2.1902708      18.7278   0.13413851 
   52400   -944.31216    45.278897   -899.03327    1621.7259    3558.6922    2.1790581    20.955128   0.14337047 
   52500   -942.47662    48.082031   -894.39459     1722.124    -3364.273    2.1554423    19.058233   0.16043674 
   52600   -940.57168    46.978368   -893.59331    1682.5948   -269.58234    2.1607717    19.417502   0.14037379 
   52700   -948.30101    46.264702   -902.03631    1657.0338    5307.7991    2.1901633    13.314488   0.15082903 
   52800   -942.36751    47.976617   -894.39089    1718.3484    630.17383    2.1646628    14.113724    0.1509788 
   52900   -943.77023    47.112055   -896.65818     1687.383   -4814.8215    2.1527664    6.2031164   0.12716344 
   53000    -947.2024    43.765748   -903.43666    1567.5304    2294.2333    2.1836508    5.0485615   0.13402516 
   53100   -943.32357    49.342468    -893.9811    1767.2683    4702.7665    2.1783776    18.944322   0.12731947 
   53200   -941.71473    45.022504   -896.69222    1612.5428    1161.4805    2.1637014    17.966175    0.1307262 
   53300   -946.25882    43.039053   -903.21977    1541.5028   -6046.6072    2.1608997    16.872951   0.12541773 
   53400    -946.0807    50.618891   -895.46181    1812.9851    883.92664    2.1747469    12.761937   0.12530703 
   53500    -946.4627    51.314793   -895.14791    1837.9098    7734.7728    2.1901901    14.462282   0.13148969 
   53600   -945.42404    43.045298   -902.37874    1541.7265   -6972.1197    2.1552602    13.786336   0.12335259 
   53700   -944.45024    47.617161   -896.83307     1705.474   -11454.558    2.1441285     15.29185   0.13713493 
   53800    -944.7669    53.200691   -891.56621    1905.4558    12496.728    2.1992519    16.713595   0.13753413 
   53900   -945.43624    45.608202   -899.82804    1633.5204    7760.4035    2.1932079    15.225098   0.13437287 
   54000   -943.05633    43.837486   -899.21884    1570.0998    -12896.51    2.1358613    17.729971   0.14218263 
   54100   -941.06328    48.401857   -892.66143     1733.579   -1719.5384    2.1560973    13.822102   0.13793825 
   54200   -946.13402    45.795362   -900.33866    1640.2238    11821.757    2.2009372    14.347271   0.11552252 
   54300   -941.08314    40.551327   -900.53181    1452.4015    3662.3436    2.1742972    14.753309   0.13007997 
   54400   -942.15648    48.186463   -893.97002    1725.8643   -5874.7098    2.1450729    13.414196   0.12383071 
   54500   -950.51183    48.776364   -901.73546    1746.9925   -550.13593    2.1814723      17.3607   0.13166025 
   54600   -948.08058    47.567559   -900.51302    1703.6974    2311.0068    2.1878082    16.700561   0.13714876 
   54700   -941.61054    47.436482   -894.17406    1699.0028   -2570.1419     2.157565    14.047606   0.14173078 
   54800   -945.78898    43.875249   -901.91373    1571.4523   -865.37461    2.1693144    15.084298   0.12488907 
   54900   -946.00357    45.839064    -900.1645    1641.7891    5123.5274    2.1844885    14.861426   0.13787129 
   55000   -942.71843    49.121806   -893.59663     1759.365    1064.5105    2.1697912    14.219725   0.14154062 
   55100   -943.41642     41.94086   -901.47556    1502.1695   -2193.1539    2.1658016    14.401685   0.14434699 
   55200    -946.0069    46.071373   -899.93553    1650.1095    -3039.785    2.1683661    13.189046   0.12367334 
   55300   -942.04576     49.18954   -892.85622    1761.7909    6055.0047    2.1790206    13.984179   0.13392573 
   55400   -945.21683    44.564229    -900.6526    1596.1291    3674.0164     2.178388    15.526235   0.13180245 
   55500    -942.9613    44.257441   -898.70386     1585.141   -7480.3444    2.1498868       16.717   0.13131248 
   55600   -942.75719    49.137925   -893.61927    1759.9423   -1695.1613    2.1635133    16.033694   0.14432741 
   55700   -947.16023    47.403382   -899.75685    1697.8172    12050.029    2.2070106    16.573802   0.12655855 
   55800   -945.91165    44.414779   -901.49687    1590.7763   -4514.3838    2.1665291    13.959677   0.14032946 
   55900   -939.76089    45.926836   -893.83405    1644.9327   -12175.376    2.1315818      12.1177   0.14538127 
   56000   -946.06075    45.710634   -900.35012    1637.1891    8717.6551    2.1954928    13.498381   0.14455784 
   56100   -947.47783    46.726135    -900.7517    1673.5607    9624.0614    2.1984303    13.953447     0.125222 
   56200   -943.48401    48.938251   -894.54575    1752.7907   -7701.3348    2.1449342    14.526075   0.12913013 
   56300   -946.13642    47.393994   -898.74243     1697.481   -3971.4132    2.1596628    16.640465   0.12615934 
   56400   -944.73675    43.270379   -901.46637    1549.7881    9833.7264    2.1985984    15.920882   0.13214924 
   56500   -940.13323    46.062961   -894.07027    1649.8082    2964.5079    2.1717015    15.861694   0.14113309 
   56600   -944.49135    46.470261   -898.02109    1664.3962   -5133.1098    2.1549937     14.82063   0.12026028 
   56700   -944.34386    41.886574   -902.45728    1500.2252    2930.9247    2.1790034    13.370583   0.12655195 
   56800   -940.43128    46.961173   -893.47011    1681.9789    4089.3982    2.1745278    12.884908   0.13861254 
   56900   -944.04314    46.010887   -898.03225    1647.9431    657.10275    2.1672951    12.891546   0.12743974 
   57000   -947.01394    44.575719   -902.43822    1596.5406   -2407.5335    2.1695661    13.552401   0.12618853 
   57100   -943.47554    50.637055   -892.83849    1813.6357   -1180.8026    2.1605771     13.93625   0.13024624 
   57200   -948.09229    50.240625   -897.85167     1799.437    956.07209    2.1759601    14.571853   0.11634384 
   57300   -947.34425    45.364935   -901.97932    1624.8074   -2307.6275    2.1736468    17.179505   0.11645901 
   57400   -942.39449    49.078297    -893.3162    1757.8066   -4431.2526    2.1574799    14.346448   0.11682098 
   57500   -948.56539    50.485202   -898.08019    1808.1968    -77.80553    2.1771022    14.334505   0.12032498 
   57600   -949.81334    48.324562   -901.48878    1730.8105   -1568.5389    2.1776147    13.579268   0.12511198 
   57700   -940.15737    46.155602   -894.00176    1653.1263   -1868.5087    2.1572789    14.496104   0.14365332 
   57800   -943.27755    45.118932   -898.15861    1615.9965    2461.5394     2.173603    15.387458   0.12887041 
   57900   -946.59742    44.880919    -901.7165    1607.4718    2850.1739    2.1822793    14.729804   0.11363292 
   58000   -945.55892    50.747163   -894.81176    1817.5793    -1464.846    2.1627496    14.009458   0.11614496 
   58100   -944.90598    47.158113   -897.74786    1689.0326   -2763.0165    2.1638161    14.565117   0.12256323 
   58200   -946.07672    43.412093   -902.66463    1554.8637    3726.2078    2.1855789    16.127074   0.12200699 
   58300   -941.84473    47.305607   -894.53912    1694.3153    3035.7392    2.1728448     14.35676    0.1376778 
   58400   -943.94687    45.429948   -898.51692     1627.136   -4125.3791    2.1623651    15.655591   0.13029238 
   58500   -945.00458    41.294292   -903.71028    1479.0118    44.454847    2.1754396    11.857185   0.12056477 
   58600   -942.46082    48.088445   -894.37238    1722.3537    3563.1184    2.1722992    14.618141   0.13065583 
   58700   -945.34745     47.69835    -897.6491    1708.3819    3085.4807    2.1805901    13.661936    0.1172692 
   58800   -945.34992    41.774709   -903.57521    1496.2186   -1451.1033    2.1717189    16.848813   0.14590522 
   58900   -941.41671    46.932702   -894.48401    1680.9592   -1994.9393    2.1564844    16.428025   0.13505551 
   59000   -942.75726    45.843223   -896.91404     1641.938    8869.6056     2.187198    16.149894   0.12448926 
   59100   -948.95356    46.883093   -902.07047    1679.1824    1855.6856    2.1816862    13.843061    0.1265329 
   59200   -946.02075     51.99992   -894.02083    1862.4486   -10483.873    2.1411396     13.46676   0.11511654 
   59300   -944.68719    48.142549   -896.54464    1724.2915   -1901.4924    2.1702544     13.98679   0.13822256 
   59400   -945.64422    44.853563   -900.79066    1606.4919     9180.465    2.1972438     14.63361   0.13400566 
   59500   -940.78669    46.362268   -894.42442    1660.5283    131.36894    2.1616055    12.964697   0.11934175 
   59600   -942.38101    46.946209    -895.4348     1681.443   -8341.5618    2.1442539    15.437294    0.1378143 
   59700   -944.09711    42.374909    -901.7222    1517.7156    8800.6187    2.1938423    15.639383   0.14018319 
   59800   -941.36703    46.490902   -894.87612    1665.1355    11360.522    2.1970644     15.61068   0.14980969 
   59900   -944.23551    48.076673   -896.15883    1721.9321   -11473.002    2.1461361    17.090078   0.12566192 
   60000    -948.2942    44.087755   -904.20644    1579.0635   -8525.9199     2.160575    15.998083   0.10750996 
   60100   -945.10646    48.078477   -897.02798    1721.9967    12385.344    2.2000934    14.559188   0.11646679 
   60200   -941.56728    46.165756   -895.40153    1653.4899    5638.1313    2.1807703    12.552273   0.14039599 
   60300   -943.21961    39.556185   -903.66343    1416.7591   -9445.3334    2.1516289    14.519988   0.13820869 
   60400   -947.55364    48.070356   -899.48328    1721.7058   -2953.1545    2.1679387    14.541857   0.12429115 
   60500   -943.21838    49.488736   -893.72964    1772.5071    6508.6077    2.1849597    16.915168   0.13502756 
   60600   -946.87091    45.257516    -901.6134    1620.9601    -2479.775    2.1774892    15.494666   0.13366219 
   60700   -944.43794    45.508832   -898.92911    1629.9613   -4543.4513    2.1645306    13.356389   0.13337387 
   60800   -942.63794    49.072644    -893.5653    1757.6042   -1287.2199    2.1643531    16.646403   0.14558498 
   60900   -946.08821    45.301229   -900.78698    1622.5257    4092.3766    2.1875138    14.534072   0.13549191 
   61000     -946.031    46.654191   -899.37681    1670.9839   -925.45814    2.1727741    14.590986   0.13306982 
   61100   -944.48366    51.387177   -893.09648    1840.5023   -6635.1029     2.153299    17.238412   0.12937948 
   61200   -945.20415    43.980131   -901.22402    1575.2088    4700.2069    2.1838697    13.980641   0.10983788 
   61300   -946.16489     47.42224   -898.74265    1698.4927    4439.4791    2.1863643    17.111811   0.13493439 
   61400   -942.28986    49.119483   -893.17037    1759.2818   -5330.9335    2.1499607    16.024569   0.14898516 
   61500   -945.50191    43.082099   -902.41981    1543.0445   -1814.1695    2.1685565    18.164544   0.14179723 
   61600   -943.96126    44.864649   -899.09661     1606.889    9340.7104    2.1905466    14.368222   0.14223736 
   61700   -940.41226    47.476777   -892.93548     1700.446    4235.1964    2.1719535    14.661755   0.13588904 
   61800   -943.30869    42.761131   -900.54755    1531.5486   -9604.5669    2.1455722    13.842182   0.12789335 
   61900   -942.65017    41.992692   -900.65748    1504.0259    94.964472    2.1715034    11.547014   0.14303695 
   62000   -946.72789    54.485477   -892.24242    1951.4722    12573.591    2.2045513    12.822166   0.13485463 
   62100   -946.29804     47.26334    -899.0347    1692.8014   -3110.7081    2.1662711    14.308548   0.12341792 
   62200    -946.3006    43.420705   -902.87989    1555.1722   -14372.463    2.1446842    13.517244    0.1407627 
   62300   -941.97902    48.101689   -893.87733    1722.8281    5335.2139    2.1792408    16.987911   0.14451118 
   62400    -942.6759    46.312016   -896.36388    1658.7285    11215.633    2.1937563    15.612018   0.15902688 
   62500   -946.91353    43.990558   -902.92297    1575.5823   -3600.1054    2.1664852     15.67392   0.13657739 
   62600   -942.32271    47.388361   -894.93434    1697.2792   -2905.7312    2.1553933    15.958372   0.12677618 
   62700   -945.44792    49.413743   -896.03418    1769.8211    2301.0608    2.1791031     15.05524   0.12085975 
   62800   -947.71132    45.439025    -902.2723    1627.4611    2665.1207    2.1842784    16.524489   0.12394005 
   62900   -939.38983    44.175231    -895.2146    1582.1966   -2264.2053    2.1558392    12.009568   0.15142622 
   63000   -945.86014     50.39045   -895.46969    1804.8032   -3252.7874    2.1636942     15.01562   0.14668548 
   63100   -947.61238    45.469552   -902.14283    1628.5544    5373.9184    2.1905033     14.32621   0.13084107 
   63200    -945.2547    50.529995    -894.7247    1809.8012   -913.00479    2.1692564    16.077377   0.14333252 
   63300   -944.96776    48.287415   -896.68035    1729.4801   -6073.6666    2.1574071    15.922213   0.13653013 
   63400   -948.19567    45.059513   -903.13615    1613.8683    713.53999    2.1819884    16.037188    0.1375099 
   63500   -943.88108    49.275365   -894.60572    1764.8649    6202.9222    2.1848197    13.005599   0.15425211 
   63600    -945.7845    49.234747   -896.54975    1763.4101   -3138.2317    2.1666443    15.264801   0.13558314 
   63700   -947.13205    43.366404   -903.76565    1553.2273      -8308.6    2.1588858    16.809853   0.13886907 
   63800   -943.10985    47.044165   -896.06569    1684.9514    4464.9868    2.1829788    14.338566   0.13529569 
   63900    -944.1255    49.047883   -895.07761    1756.7173    10978.328    2.1937391    14.977099   0.14330042 
   64000   -945.52683     42.26761   -903.25922    1513.8725   -6045.5959    2.1622394    15.515245   0.14235104 
   64100   -942.36099    45.104943   -897.25604    1615.4955   -6608.4886    2.1525449    15.331419    0.1434558 
   64200   -942.22781     49.30399   -892.92382    1765.8901    10579.635    2.1934657    14.314992   0.14479164 
   64300    -946.4778    44.973999    -901.5038    1610.8056    4745.1805    2.1940503    17.196425   0.14478828 
   64400   -942.11352    44.769233   -897.34429    1603.4716   -11327.083    2.1405779    12.468063   0.15403214 
   64500   -939.90813    46.815541   -893.09259    1676.7629    383.71342      2.16332    12.906499   0.15590841 
   64600   -944.08568    45.121644   -898.96404    1616.0937    7280.0262    2.1915432    12.891845   0.16138386 
   64700   -945.73594    44.761607   -900.97433    1603.1984   -4460.8067    2.1754214    8.7013074   0.15903282 
   64800    -938.0113    46.658913   -891.35239    1671.1531   -4355.8145    2.1506066    12.205183    0.1556739 
   64900   -942.72631    46.096293   -896.63002     1651.002    2220.4105    2.1807373    11.478041   0.14197376 
   65000   -942.77038    43.857681    -898.9127    1570.8231    3219.2351     2.184811    5.0435383   0.16133119 
   65100   -938.19933    48.297022    -889.9023    1729.8242   -3442.5162    2.1472746    11.222608   0.15216399 
   65200   -942.89441    45.640368   -897.25404    1634.6725    1238.2077    2.1744027    15.938504   0.15895388 
   65300   -939.41387    40.852119   -898.56175    1463.1747    6979.5473    2.1856033    10.754398    0.1458688 
   65400   -941.83499    50.164925   -891.67006    1796.7257   -1057.5817    2.1713101    13.683054   0.16023235 
   65500   -942.86598    47.971326   -894.89465    1718.1589   -7534.7394    2.1543291    15.293935   0.14756066 
   65600    -948.8543    49.182941   -899.67136    1761.5546   -3444.8035      2.17296    11.952236   0.14257819 
   65700   -944.53264    51.875435   -892.65721      1857.99    3924.0009    2.1783285    10.268716   0.15718143 
   65800   -946.00074    48.997232   -897.00351    1754.9032   -1737.4328    2.1691785    13.197678   0.15113909 
   65900   -949.39928    48.046247   -901.35303    1720.8423   -7465.9299    2.1665577    12.094794    0.1417141 
   66000   -938.35698    44.299432   -894.05755     1586.645    2586.1464    2.1693163    10.736304   0.16109041 
   66100   -940.99181    44.750521   -896.24129    1602.8014    6037.2348    2.1808202    18.748923   0.17434783 
   66200   -947.88471    45.466371   -902.41834    1628.4405   -1638.4473    2.1790414    9.1770515   0.17328826 
   66300   -940.39443    45.978221   -894.41621    1646.7731   -2089.0335    2.1607687    11.166751   0.16061058 
   66400   -940.31805    43.763056     -896.555     1567.434    1640.2674    2.1669868    10.248289   0.15414907 
   66500   -944.52961    42.219831   -902.30978    1512.1612    5628.9277    2.1864421    12.597619    0.1552715 
   66600   -941.59125    47.994258   -893.59699    1718.9803   -301.56049    2.1618218     13.35871   0.16741999 
   66700     -942.213    45.223062   -896.98993    1619.7261   -204.12394    2.1645849     9.496412   0.16667898 
   66800   -946.56689      44.6333   -901.93359    1598.6029    2438.0841    2.1812176    11.502236   0.14309393 
   66900   -939.90834    47.759206   -892.14913    1710.5616    1208.2035    2.1643312    10.003602   0.14788166 
   67000   -943.51463    46.919383   -896.59524    1680.4821   -1910.7514    2.1612939    5.8994064   0.12327452 
   67100   -948.96922    46.890561   -902.07866    1679.4498   -1251.9548    2.1749017    6.0782301   0.12247938 
   67200   -942.77573    49.107017   -893.66872    1758.8353    6135.3245    2.1780956    4.6967776   0.14210025 
   67300   -943.15321    46.646866   -896.50635    1670.7216     1895.475    2.1699407    5.0754312   0.12340637 
   67400   -942.50226    39.842386   -902.65987    1427.0098   -3188.9393    2.1633815    5.4905941   0.11639497 
   67500    -946.4507    51.065432   -895.38527    1828.9786    663.94879    2.1740386    6.1895858   0.11200462 
   67600    -940.4113    44.618615   -895.79268     1598.077    12546.215    2.1913899    6.5534957   0.12741035 
   67700   -945.87772    42.270563   -903.60715    1513.9783   -4610.5318    2.1648541    5.6185756   0.12885653 
   67800   -947.38968    49.901866   -897.48781    1787.3039   -7047.0716    2.1504736    3.7082953   0.11950834 
   67900   -941.65568    47.928452   -893.72723    1716.6233     10854.63    2.1905735    6.5047916   0.13067765 
   68000   -947.36325    44.815907   -902.54734    1605.1433    5536.5978    2.1945018    5.3449988   0.12098781 
   68100   -944.42421    47.152949   -897.27127    1688.8476    -12183.44     2.140175    5.4053211   0.12967801 
   68200   -942.42556    47.530206   -894.89536    1702.3596   -2833.4118    2.1623129    6.0368463   0.14377224 
   68300   -948.56841    47.914178   -900.65423    1716.1121    8543.8111    2.2022458    6.2317451   0.12595074 
   68400   -946.36017    46.361633   -899.99854    1660.5056   -534.10641    2.1733723    5.7159725   0.12350367 
   68500   -941.50312    47.810889   -893.69223    1712.4127    -10172.19    2.1392216    4.5581751   0.12040736 
   68600   -945.26482    44.750543   -900.51427    1602.8022    3951.2932    2.1867316    4.4868021   0.13989505 
   68700   -947.28944    47.390213   -899.89923    1697.3456    4711.8145    2.1903125    5.5035694   0.13397341 
   68800   -942.12718     49.31832   -892.80887    1766.4034   -3117.9657    2.1559195    4.9747003    0.1484726 
   68900    -945.8741    44.697766   -901.17633    1600.9119   -1463.5367    2.1732643    6.3422636   0.14073292 
   69000   -943.80346    44.366402   -899.43706    1589.0436    3269.2304    2.1835432    6.6209879   0.12452366 
   69100    -943.8842    51.408428   -892.47577    1841.2634   -308.61716    2.1696006     5.540415   0.13598883 
   69200   -949.34347    47.796308   -901.54716    1711.8904   -4261.0149    2.1744976    6.5463104   0.13425966 
   69300   -948.65354    49.347524   -899.30601    1767.4493   -3795.2378    2.1765685    6.2258207    0.1419028 
   69400   -940.39205    47.600608   -892.79144    1704.8812     2473.709    2.1717597    5.4364248   0.16031319 
   69500   -946.82973    45.012118   -901.81761    1612.1708    2656.4829    2.1870946    6.1067181   0.14440723 
   69600    -948.6873    49.411311   -899.27599     1769.734   -5506.7905    2.1667884     5.868573   0.13178243 
   69700   -944.40995    50.217686   -894.19226    1798.6154   -2954.4474    2.1628963    5.4294468   0.14224171 
   69800   -947.42176    45.049648   -902.37212     1613.515    6715.3855    2.1985683    6.0427841   0.13030626 
   69900   -946.34206    47.369769   -898.97229    1696.6133   -1729.4942    2.1744606    8.0612372    0.1377898 
   70000   -943.61885    48.346807   -895.27204    1731.6073   -8923.3992    2.1479994    5.2534941   0.12359784 
   70100   -944.84863    43.199998   -901.64863    1547.2673    4425.5847    2.1866367    5.1296408   0.13238559 
   70200    -946.0968    46.324542   -899.77226    1659.1771    13160.345    2.2103023    5.6761982   0.14193552 
   70300   -938.67544    44.730678   -893.94476    1602.0907   -5897.4011    2.1489277    4.9697889   0.15013584 
   70400   -942.93186    41.598718   -901.33314    1489.9152   -9097.1492    2.1509646    5.9792059   0.14989154 
   70500   -947.71507    47.948161   -899.76691    1717.3293    6392.2205    2.1968059    6.1297394    0.1238424 
   70600    -944.8216    52.650055   -892.17155     1885.734    5446.0935    2.1829825    6.0989251   0.13025066 
   70700   -945.72226    45.979843   -899.74242    1646.8312    -7303.705    2.1532165    6.1701386   0.11783019 
   70800   -949.24901     48.80685   -900.44216    1748.0844   -6527.8282    2.1667606    6.3693537   0.12626131 
   70900   -944.11339    52.313777   -891.79962    1873.6898    4433.4576     2.184857    7.0022273   0.13135096 
[...]
  186800   -944.26665    49.551778   -894.71487     1774.765   -3295.9585      2.16125    5.9771892   0.13495082 
  186900   -946.46367    45.060783   -901.40288    1613.9138    751.22559    2.1771237    6.2058321   0.11763935 
  187000   -946.48038    44.461444   -902.01893    1592.4477    1158.9162    2.1785426    4.8696953   0.11359382 
  187100   -942.21189    46.976124   -895.23576    1682.5144    821.63622    2.1675801    4.8399648   0.13164076 
  187200   -947.16942    47.358868   -899.81055    1696.2229     -2453.44    2.1690165    6.1939188   0.12273347 
  187300   -946.96154    43.295084   -903.66645    1550.6729    1411.0654    2.1828483    4.4021238   0.14158934 
  187400   -941.62885    46.879148    -894.7497    1679.0411    2258.0549    2.1704452    6.1245159     0.167177 
  187500   -945.24861    46.463136   -898.78547     1664.141   -524.09332    2.1701653    5.5205856   0.14548713 
  187600   -948.44631      44.6998   -903.74651    1600.9847    -130.0556    2.1804588    6.7185284   0.13258723 
  187700   -943.13636    49.228436   -893.90793     1763.184   -1114.1388    2.1651182    4.5837552   0.13951242 
  187800   -942.77647    45.700738   -897.07574    1636.8347    4412.5966    2.1785493    5.8719572   0.13095713 
  187900    -948.0233      46.2022    -901.8211    1654.7953    -1893.303    2.1728223    6.2045443   0.12580821 
  188000   -943.25973    50.196217   -893.06352    1797.8464   -6569.4765    2.1505926    5.1070108   0.13628281 
  188100   -945.32038    49.641553   -895.67883    1777.9804    3988.7452    2.1804196    6.1698516   0.12839849 
  188200   -948.11134    47.709154   -900.40218    1708.7689   -668.58764    2.1778873      5.36971   0.13313023 
  188300   -943.87597     48.21101   -895.66496    1726.7435   -6797.8073    2.1521896    6.2075602   0.14498351 
  188400   -943.81405    51.667743   -892.14631    1850.5512   -2790.0956    2.1576731    6.4066626   0.14270326 
  188500   -947.74639    47.338012   -900.40838    1695.4759    9188.6365    2.1993724    5.8531035   0.12787545 
  188600   -943.84963    46.474479   -897.37515    1664.5473   -1263.0622    2.1680961    6.4059682   0.13310348 
  188700   -944.66674    50.271558   -894.39518    1800.5449   -14272.464    2.1338397    5.2857114   0.13199502 
  188800     -946.818    42.603579   -904.21442    1525.9057    7095.6989    2.1982701    6.8792301   0.11437868 
  188900   -945.39637    47.622517   -897.77385    1705.6659    8061.6844    2.1929683    5.9445891    0.1305795 
  189000   -944.43519    47.672038   -896.76316    1707.4395   -8402.1527    2.1486221    4.2114092   0.11540865 
  189100   -946.77225    43.068158   -903.70409    1542.5452   -5745.8309    2.1632076    4.9550785   0.12183358 
  189200   -949.34422     48.01976   -901.32446    1719.8937    8296.2801    2.1979359    6.3083472    0.1305263 
  189300   -945.40629    50.288868   -895.11743    1801.1649    867.25545    2.1706288    4.9794214   0.12759121 
  189400   -946.57094    45.833633   -900.73731    1641.5945    -7855.119    2.1538095    5.2257623   0.13037663 
  189500    -947.6534    45.573171   -902.08023    1632.2657    1082.9095    2.1789885    6.0915659    0.1175523 
  189600   -939.19728    46.318973   -892.87831    1658.9777    2846.0583    2.1648096    4.2973889   0.15731551 
  189700   -945.51772    47.519557   -897.99816    1701.9782   -2932.4953    2.1657819    5.2612366     0.127946 
  189800   -946.57876    45.264115   -901.31465    1621.1965   -1220.7753    2.1733693    4.7063336   0.14245339 
  189900   -941.46579    50.183021   -891.28277    1797.3738   -1993.6395    2.1578058    6.0614727   0.14475514 
  190000   -944.84052    48.255029   -896.58549    1728.3201     458.5676    2.1716389    6.0155895   0.12687193 
  190100   -947.57157    46.262129   -901.30944    1656.9417   -1123.3115     2.175288    7.2002891    0.1232963 
  190200   -943.40128    49.736639   -893.66464     1781.386   -24.252459    2.1659442    4.9539933   0.13291354 
  190300   -941.20772    46.938917   -894.26881    1681.1818    4716.4562    2.1750118     6.747053   0.13493187 
  190400   -945.14371    44.726795   -900.41692    1601.9516   -515.39266    2.1718193    4.6149071    0.1466419 
  190500   -943.12888    46.555307   -896.57358    1667.4423    -3455.976    2.1611847    7.2208899   0.14138185 
  190600   -944.03505    53.472735   -890.56231    1915.1994    792.84209    2.1678029    4.9041735   0.12866215 
  190700   -947.32678    47.397459   -899.92932    1697.6051    4632.2022    2.1905046    6.5550259   0.14817942 
  190800   -945.91794    47.423857   -898.49408    1698.5506   -7677.6618    2.1550515    6.7486831    0.1222965 
  190900   -942.09889    49.131681   -892.96721    1759.7186   -5013.3218    2.1475464    5.6360889   0.12861635 
  191000    -949.1108    46.202587   -902.90821    1654.8091    13277.191    2.2129644    6.1260804   0.12322534 
  191100   -945.04892    45.482366   -899.56656    1629.0134    479.42239    2.1740915    6.3110318   0.12561702 
  191200   -945.92177    49.006035   -896.91573    1755.2185   -13858.295    2.1414301    4.7540152   0.13843413 
  191300   -948.10924    49.438372   -898.67087    1770.7032   -499.46451    2.1807277    5.4295673   0.14763638 
  191400   -949.43762    44.663901   -904.77372     1599.699    12100.654    2.2149397    4.4167592   0.14650743 
  191500   -939.46723    42.713109   -896.75412    1529.8287    -4054.844    2.1563492    4.4455578   0.15168805 
  191600   -940.54058    42.842918   -897.69766     1534.478   -6456.5617    2.1507293    4.1414165   0.14419704 
  191700    -948.6786    45.619078   -903.05952    1633.9099    6339.5937    2.1975056    6.2837528   0.13356376 
  191800   -950.17224    47.146238     -903.026    1688.6073    3568.6026    2.1963848    5.3223624   0.14226783 
  191900   -944.08625    48.183552    -895.9027    1725.7601   -9540.9661    2.1474792     4.668927   0.13448326 
  192000    -946.9641    47.991823   -898.97227    1718.8931   -5401.7571     2.166265    4.6443962    0.1294862 
  192100   -946.28801    46.078593   -900.20942    1650.3681    5648.3635    2.1964977     3.721549     0.138161 
  192200   -940.93226    51.562859    -889.3694    1846.7946   -1370.5108    2.1560328    4.9051236   0.14861359 
  192300   -945.74316    49.620215   -896.12295    1777.2161   -51.631428    2.1678927    5.2798633   0.14056106 
  192400   -945.92931    46.523103    -899.4062    1666.2888    1727.8154    2.1788674    4.3842924   0.14951405 
  192500    -941.5889     45.24416   -896.34474    1620.4817    3124.1897    2.1759596    6.6081354   0.15456027 
  192600   -943.46811    52.848139   -890.61998    1892.8287   -7309.9276    2.1514895    5.9864815   0.13063088 
  192700   -946.32612    46.725813    -899.6003    1673.5492    286.30823    2.1749931    6.3054521   0.12414691 
  192800   -944.32516    46.178543   -898.14661    1653.9479    6297.0486    2.1858958    5.4265222   0.11555578 
  192900   -938.32777    47.095756   -891.23202    1686.7992   -7.0194153    2.1629618    5.0585279   0.12495923 
  193000   -942.34675    46.595232   -895.75152    1668.8722   -8189.9264    2.1428761    4.6949052   0.12696475 
  193100   -946.61011    46.761909    -899.8482     1674.842    1393.9175    2.1775907    5.1796061   0.13112879 
  193200   -941.32834    46.332465   -894.99587    1659.4609    19634.747     2.209642    5.3518016    0.1531558 
  193300   -942.69603    44.696519   -897.99952    1600.8672   -7831.4588    2.1487743    6.4590918   0.13279194 
  193400   -945.76092     40.05825   -905.70267    1434.7412   -13429.096    2.1471244    5.7538045    0.1232207 
  193500   -946.23088    47.582984    -898.6479    1704.2499    11043.946    2.2037822    6.7595625    0.1226216 
  193600   -947.68555    51.403996   -896.28156    1841.1047     3877.156    2.1842461    5.7192595   0.12882841 
  193700   -944.32994    44.847973   -899.48197    1606.2917   -9320.0163    2.1445564    6.7339541   0.11807707 
  193800   -948.36797    43.304231   -905.06374    1551.0005    1866.1908     2.184926    5.1530031   0.11949522 
  193900   -943.95469    47.567619   -896.38707    1703.6996    5365.6571    2.1825354    5.2043651   0.12878848 
  194000   -945.03647    46.958438   -898.07803    1681.8809   -2999.7871    2.1636609    4.8829752   0.12452322 
  194100   -948.96936    44.587595   -904.38177    1596.9659   -4046.8661     2.169825    4.8818552   0.12939097 
  194200   -949.33013    48.014799   -901.31533     1719.716    4867.1005    2.1907354    7.0221578   0.13817403 
  194300   -944.06934    47.972254   -896.09709    1718.1922    3168.4223     2.178197    6.3151883    0.1385521 
  194400   -943.03889     43.10889      -899.93    1544.0041   -6637.4083    2.1553887    5.9672342   0.15135541 
  194500   -944.15875    42.340468   -901.81828     1516.482    958.70775    2.1751918    4.9669911   0.13795701 
  194600   -941.99837    50.564604   -891.43377    1811.0407    5691.4696    2.1784612    5.3502151   0.14009661 
  194700   -940.69551    44.718882   -895.97663    1601.6682    2069.7364    2.1720181    4.7017019   0.14912249 
  194800   -943.71716    43.405533   -900.31163    1554.6288   -8222.3153    2.1538517    5.5342122   0.15082969 
  194900    -943.7187    49.016337   -894.70237    1755.5874    397.45195    2.1729363    4.1563914   0.13254785 
  195000   -938.40507    47.990376    -890.4147    1718.8412    12995.885    2.1882447    4.8912711   0.15741132 
  195100   -944.12326    45.242909   -898.88035    1620.4369   -6333.9164    2.1577066    5.0230165   0.14634321 
  195200   -943.47832    44.508984   -898.96934    1594.1504   -10768.399    2.1495489    5.5595263   0.16983867 
  195300   -943.48085    51.188211   -892.29264    1833.3761    11419.022    2.2024644     6.407378   0.16735542 
  195400   -945.56403    48.559611   -897.00442    1739.2292    5433.6599    2.1918371    5.4390553    0.1419079 
  195500   -947.70604    46.076422   -901.62962    1650.2903   -14230.209    2.1426024    5.2739377   0.12585497 
  195600   -945.09434    47.097045   -897.99729    1686.8454   -1328.9107        2.174    5.1425085   0.15137953 
  195700   -941.49311    47.059343   -894.43377     1685.495    10565.404    2.1960641    4.2794064   0.15221579 
  195800   -943.36877    46.268111   -897.10066     1657.156   -5145.1962    2.1590006      6.09276   0.13972071 
  195900   -948.78056    45.627651   -903.15291     1634.217   -2890.8805    2.1727098    5.4477988   0.13576672 
  196000   -942.21115     44.09015     -898.121    1579.1493    7270.4368     2.190772    6.1591651   0.15603367 
  196100   -942.88411    46.474304    -896.4098     1664.541    461.48714    2.1733618    6.3860103   0.14440074 
  196200   -950.36979     47.19724   -903.17255     1690.434     -8313.83    2.1635692    4.3345674   0.12982006 
  196300   -945.00981    41.893397   -903.11641    1500.4696    3522.0681     2.184128    5.7259119   0.13534064 
  196400   -943.49958    47.080399   -896.41918    1686.2491     7683.821    2.1918267    4.7918001   0.13790431 
  196500   -944.44406    45.986178   -898.45788    1647.0581   -5148.6344    2.1621888    5.0328461   0.13215136 
  196600   -948.76231    41.772878   -906.98943     1496.153   -6568.8764    2.1675419    5.6508413   0.11788933 
  196700   -948.78447    49.379227   -899.40524    1768.5848    2374.9605    2.1837522     6.069741   0.11987148 
  196800   -942.87763     46.59663     -896.281    1668.9223    7598.8271    2.1891745    6.2637009   0.13596557 
  196900   -946.52677    44.953408   -901.57337     1610.068   -7680.9419    2.1571032    7.7571915     0.129814 
  197000    -948.7648    44.554845   -904.20996     1595.793   -6494.7179    2.1648938     5.951586   0.11599672 
  197100    -947.3047    52.755435   -894.54927    1889.5084    4713.8465    2.1858598    5.8482618   0.13318301 
  197200   -947.37674    50.378858   -896.99788     1804.388    3554.5659    2.1811952    4.5740148   0.12757171 
  197300   -942.76037    41.484429   -901.27594    1485.8218   -15669.021      2.13395    4.6295259   0.13707548 
  197400   -940.00076    46.032979   -893.96778    1648.7344   -443.96504    2.1619758    5.5755281   0.13792579 
  197500   -942.00584    50.794089   -891.21175    1819.2601    22730.267    2.2162041    5.2699283   0.12604699 
  197600   -947.17615    47.667266   -899.50889    1707.2686   -6661.0868    2.1603932    5.5877949   0.11745013 
  197700   -946.01418    46.982587   -899.03159    1682.7459   -12441.386    2.1425376    5.9206737   0.11900689 
  197800   -943.84903    51.226849   -892.62218    1834.7599    5437.4583    2.1811289    6.9251555   0.12133785 
  197900   -945.62238    47.553862   -898.06851    1703.2069    3748.5587    2.1801494     5.252952    0.1293023 
  198000   -944.84199    43.230946   -901.61104    1548.3757   -4826.7577    2.1545861    3.9338315   0.13485479 
  198100   -944.21667    47.231036   -896.98563    1691.6444    1902.5115    2.1748353    4.4865979   0.13220465 
  198200   -945.40246    48.361335   -897.04113    1732.1276    6229.5068    2.1833019    4.2243248   0.12172656 
  198300   -947.96396    41.702294   -906.26166    1493.6249   -458.24901    2.1779092    5.8577445   0.12590608 
  198400    -947.2858    47.873889   -899.41191    1714.6691   -7396.9572    2.1558619    6.4752233   0.12870915 
  198500   -943.32725    47.037277   -896.28997    1684.7047     5082.273    2.1779919    5.6991414   0.13708376 
  198600   -945.67747    42.959448   -902.71802    1538.6516    6722.3285    2.1908942    5.2222116   0.13042085 
  198700   -945.79046    42.157275   -903.63319    1509.9207   -3002.0671    2.1654588    5.3571515   0.10799492 
  198800   -943.99211    47.096251   -896.89586    1686.8169   -4538.4565    2.1589338    5.4794225   0.12743715 
  198900   -942.24238    44.696955   -897.54543    1600.8828    8520.3376    2.1910904     5.161596   0.12601445 
  199000   -945.21903    41.049838   -904.16919    1470.2563    4043.5653    2.1900736    5.0633582   0.13896682 
  199100   -943.95882    45.641346   -898.31748    1634.7075   -10841.207    2.1456351    5.4495177   0.12896883 
  199200    -943.5419    47.517711   -896.02419    1701.9121    3737.8042    2.1767599    5.6163679   0.13014042 
  199300   -948.53916     51.05117   -897.48799    1828.4678    9356.2425    2.2030419    5.8671432   0.14432127 
  199400    -949.5517    46.878168   -902.67353     1679.006   -10047.661    2.1578479    5.9602164   0.13849583 
  199500   -940.68466    47.382643   -893.30202    1697.0744   -10185.926    2.1380024    6.9435816   0.14581058 
  199600   -944.46141    50.244833   -894.21658    1799.5877    13519.516    2.2012979    5.9954568   0.13379612 
  199700   -947.56576    48.311967    -899.2538    1730.3595    3058.6054    2.1846495      5.35547   0.11708767 
  199800   -945.04891     46.38702   -898.66189    1661.4149   -10333.415    2.1459238     3.832817   0.12493803 
  199900   -936.59032    47.093503   -889.49682    1686.7185    1072.1977    2.1527143    4.5701344   0.13882104 
  200000   -945.02921    46.439246   -898.58996    1663.2854    9167.0656    2.1958832    5.3964762   0.14373763 
  200100   -947.50117    47.800705   -899.70046    1712.0479   -3446.9517    2.1695287    6.8043297   0.14081283 
  200200   -937.17789    43.625187    -893.5527     1562.496   -2808.7153    2.1485833    6.7842572   0.15788323 
  200300   -941.87432    45.239064   -896.63526    1620.2992    3159.6814    2.1756403    5.6193619   0.14846073 
  200400   -948.07578    46.973176   -901.10261    1682.4088    3843.9454    2.1866781     6.219389   0.12571028 
  200500   -946.56116    49.256416   -897.30475    1764.1862   -1970.0785    2.1695826    5.9948458   0.12867885 
  200600   -943.73212    48.207473   -895.52465    1726.6168   -3333.2558    2.1574418    5.0891751   0.13136723 
  200700   -947.88018    42.393684    -905.4865     1518.388    6819.6973    2.1978554    3.6101311   0.12633982 
  200800   -947.60181    49.173394   -898.42841    1761.2126   -810.97362    2.1751402    5.9849789   0.12003641 
  200900   -944.72904    48.169805   -896.55923    1725.2677   -6061.8297    2.1543075    6.2881128   0.11957359 
  201000   -946.24419    44.113642   -902.13055    1579.9907    -621.7246    2.1775408    7.4596194   0.12752819 
  201100   -946.91749    43.825898   -903.09159    1569.6847    11030.322    2.2060039    6.9738228   0.14551484 
  201200   -941.75762    46.216645   -895.54098    1655.3126   -594.23223    2.1647041    6.9764912   0.14467689 
  201300   -943.08328    44.030236   -899.05304    1577.0034   -13780.108    2.1355002    5.3040896   0.14178102 
  201400   -947.97463    46.067785   -901.90685     1649.981    7963.1224    2.1999304    5.6939377   0.13515995 
  201500   -941.35208    49.749353   -891.60273    1781.8414    15638.758    2.2015201    5.4513938   0.14254972 
  201600   -941.77881     46.53452   -895.24429    1666.6978   -6935.6142      2.14841    4.1182336   0.12190288 
  201700   -946.80373    46.569166   -900.23456    1667.9387    -8057.685    2.1579273    6.0671422   0.13001827 
  201800    -945.2226    47.523041   -897.69956     1702.103    7550.8495     2.195922    5.3146975   0.13096686 
  201900   -942.93976    52.387558   -890.55221    1876.3323   -724.74917     2.163727    6.0523534   0.13396714 
  202000   -946.60854    46.705034    -899.9035    1672.8049   -4142.2113    2.1626855    5.2471188   0.12537429 
  202100   -944.24449    45.521999   -898.72249    1630.4329    2571.4932    2.1738095    6.3873579   0.13288392 
  202200   -944.47211    52.884808    -891.5873    1894.1421    4305.7285     2.173922    5.1030336   0.14495305 
  202300   -946.98387    48.616497   -898.36737    1741.2666    -4390.683    2.1644505    4.1187372   0.13243597 
  202400   -947.14345    46.250053    -900.8934    1656.5092   -6431.0119    2.1621926    4.7139474   0.12725624 
  202500    -939.7614    44.795197   -894.96621    1604.4015    7526.4292    2.1794103    5.0473853   0.13579316 
  202600   -947.93377    49.228364    -898.7054    1763.1815    1277.8071     2.180334    5.3380133   0.11890395 
  202700    -948.5653    44.786539   -903.77876    1604.0914   -6587.3067    2.1666637    6.4178872   0.13467446 
  202800   -943.81939    46.605738   -897.21365    1669.2485   -1083.8256    2.1689259    5.9689404   0.14130192 
  202900   -946.02925    50.240322   -895.78892    1799.4261    6094.2748    2.1876875     6.092274   0.13351859 
  203000   -947.24775    42.300447    -904.9473    1515.0486    1705.1441    2.1827402    5.8397413   0.12737544 
  203100   -941.84488    44.132125   -897.71275    1580.6527   -16608.008    2.1251109    5.1228893    0.1491876 
  203200   -946.77308      50.9659   -895.80718    1825.4137    6204.2459    2.1911784    5.7807894   0.13345033 
Loop time of 141.027 on 1 procs for 200000 steps with 217 atoms

Performance: 367.590 ns/day, 0.065 hours/ns, 1418.170 timesteps/s
100.0% CPU use with 1 MPI tasks x no OpenMP threads

MPI task timing breakdown:
Section |  min time  |  avg time  |  max time  |%varavg| %total
---------------------------------------------------------------
Pair    | 136.02     | 136.02     | 136.02     |   0.0 | 96.45
Neigh   | 1.8767     | 1.8767     | 1.8767     |   0.0 |  1.33
Comm    | 0.89782    | 0.89782    | 0.89782    |   0.0 |  0.64
Output  | 0.066648   | 0.066648   | 0.066648   |   0.0 |  0.05
Modify  | 1.8634     | 1.8634     | 1.8634     |   0.0 |  1.32
Other   |            | 0.3071     |            |       |  0.22

Nlocal:    217 ave 217 max 217 min
Histogram: 1 0 0 0 0 0 0 0 0 0
Nghost:    957 ave 957 max 957 min
Histogram: 1 0 0 0 0 0 0 0 0 0
Neighs:    4266 ave 4266 max 4266 min
Histogram: 1 0 0 0 0 0 0 0 0 0
FullNghs:  8532 ave 8532 max 8532 min
Histogram: 1 0 0 0 0 0 0 0 0 0

Total # of neighbors = 8532
Ave neighs/atom = 39.318
Neighbor list builds = 3190
Dangerous builds = 7
Total wall time: 0:02:23
