LAMMPS (3 Mar 2020)

# ---------- 1. Initialize simulation ----------
units metal
atom_style atomic
dimension 3
boundary p p p
read_data /home/modeler/RemLabs/Project/arrhenius_3/T1675.0/n3_T1675.0_timestep3.000000e-03_eqsteps3200_time600_rseed3329/20201205-094630/lammps.data
  orthogonal box = (0 0 0) to (17.469 17.469 17.469)
  1 by 1 by 1 MPI processor grid
  reading atoms ...
  217 atoms
  read_data CPU = 0.00101912 secs

pair_style meam/c
pair_coeff * * library.meam Li Si LiSi.meam Li Si
Reading potential file library.meam with DATE: 2012-06-29
Reading potential file LiSi.meam with DATE: 2020-11-07

group Li type 1
1 atoms in group Li
group Si type 2
216 atoms in group Si

velocity all create 1675.0 3329 dist gaussian

# ---------- 2. Specify equilibration ensemble  ----------
fix 1 all npt temp 1675.0 1675.0 0.15 tchain 2 iso 1.0 1.0 1.0 pchain 2
# fix 1 all nvt temp 1675.0 1675.0 0.15

# ---------- 3. Run equilibration -------------
timestep 0.003
run 3200
Neighbor list info ...
  update every 1 steps, delay 10 steps, check yes
  max neighbors/atom: 2000, page size: 100000
  master list distance cutoff = 6
  ghost atom cutoff = 6
  binsize = 3, bins = 6 6 6
  2 neighbor lists, perpetual/occasional/extra = 2 0 0
  (1) pair meam/c, perpetual
      attributes: full, newton on
      pair build: full/bin/atomonly
      stencil: full/bin/3d
      bin: standard
  (2) pair meam/c, perpetual, half/full from (1)
      attributes: half, newton on
      pair build: halffull/newton
      stencil: none
      bin: none
Per MPI rank memory allocation (min/avg/max) = 8.895 | 8.895 | 8.895 Mbytes
Step Temp E_pair E_mol TotEng Press Volume 
       0         1675   -951.04357            0   -904.27725   -114861.02    5330.9442 
    3200    1644.1355   -947.83321            0   -901.92863   -3094.7941     4643.216 
Loop time of 2.26654 on 1 procs for 3200 steps with 217 atoms

Performance: 365.949 ns/day, 0.066 hours/ns, 1411.842 timesteps/s
100.0% CPU use with 1 MPI tasks x no OpenMP threads

MPI task timing breakdown:
Section |  min time  |  avg time  |  max time  |%varavg| %total
---------------------------------------------------------------
Pair    | 2.1872     | 2.1872     | 2.1872     |   0.0 | 96.50
Neigh   | 0.030096   | 0.030096   | 0.030096   |   0.0 |  1.33
Comm    | 0.014542   | 0.014542   | 0.014542   |   0.0 |  0.64
Output  | 2.4342e-05 | 2.4342e-05 | 2.4342e-05 |   0.0 |  0.00
Modify  | 0.029737   | 0.029737   | 0.029737   |   0.0 |  1.31
Other   |            | 0.0049     |            |       |  0.22

Nlocal:    217 ave 217 max 217 min
Histogram: 1 0 0 0 0 0 0 0 0 0
Nghost:    957 ave 957 max 957 min
Histogram: 1 0 0 0 0 0 0 0 0 0
Neighs:    4124 ave 4124 max 4124 min
Histogram: 1 0 0 0 0 0 0 0 0 0
FullNghs:  8248 ave 8248 max 8248 min
Histogram: 1 0 0 0 0 0 0 0 0 0

Total # of neighbors = 8248
Ave neighs/atom = 38.0092
Neighbor list builds = 51
Dangerous builds = 0

# ---------- 4. Describe computed properties----------
compute msdli Li msd
compute msdsi Si msd
thermo_style custom step pe ke etotal temp press density c_msdli[4] c_msdsi[4]
thermo 100

# ---------- 3. Run production -------------
timestep 0.003
run 200000
Per MPI rank memory allocation (min/avg/max) = 9.664 | 9.664 | 9.664 Mbytes
Step PotEng KinEng TotEng Temp Press Density c_msdli[4] c_msdsi[4] 
    3200   -947.83321    45.904579   -901.92863    1644.1355   -3094.7941    2.1720523            0 7.1801522e-32 
    3300   -943.19692    48.413321    -894.7836    1733.9896    -8277.763    2.1422525  0.073109333   0.10819939 
    3400   -943.79311    50.110985   -893.68212    1794.7938    5241.2099    2.1780811  0.012811165   0.11390919 
    3500    -944.9148    44.841247   -900.07355    1606.0509    8580.1569     2.195102   0.21006985    0.1254894 
    3600   -942.99784     45.20586   -897.79198      1619.11   -6770.2723    2.1531108   0.19298626   0.15702898 
    3700   -937.97755      45.9662   -892.01135    1646.3426   -4028.8274    2.1469039   0.12283204   0.12587158 
    3800   -945.27718    44.244232   -901.03295     1584.668    11471.573    2.2057717   0.14293157   0.10941238 
    3900   -945.58594    47.269197   -898.31674    1693.0112    1327.6285    2.1792229   0.20473384   0.12223896 
    4000   -942.72723    47.751063   -894.97617    1710.2699   -12363.468    2.1401938   0.26323316   0.11960448 
    4100   -947.36532    42.973585   -904.39173     1539.158    2394.7108    2.1856565  0.085582631   0.10198749 
    4200   -943.17237    43.953044   -899.21933    1574.2387    10325.378    2.1977229  0.006586485   0.11247495 
    4300   -942.71737    46.990745   -895.72662    1683.0381   -4009.9522    2.1582273  0.065261034   0.11068588 
    4400   -946.03866    44.375804   -901.66286    1589.3804    -8568.566    2.1515632   0.36665993   0.12708465 
    4500   -942.50673    40.723974   -901.78276    1458.5851    9357.7575    2.1948934  0.064149506   0.13653577 
    4600    -941.4704    47.611827   -893.85857     1705.283    6800.1949    2.1845825   0.15576408   0.14558955 
    4700   -946.46558    46.782109   -899.68347    1675.5655   -9141.7282     2.154506  0.075198156   0.12403631 
    4800   -943.82983    41.269495   -902.56034    1478.1237   -3018.0916    2.1662896   0.32657045    0.1206219 
    4900   -944.78028    51.906466   -892.87381    1859.1014    4398.2991    2.1820695  0.055809117   0.11224936 
    5000   -945.60856    48.495172   -897.11339    1736.9212    3590.3325    2.1792484   0.28216378   0.11432408 
    5100   -946.45833    43.989161   -902.46917    1575.5322   -7954.0823    2.1597708   0.68466234   0.11960283 
    5200   -942.79371    48.564476   -894.22924    1739.4034    126.60605    2.1643073  0.096815384   0.12066322 
    5300   -945.58587    50.289016   -895.29685    1801.1702    7525.1939    2.1862387   0.09766984    0.1049303 
    5400   -948.92032     47.62113   -901.29918    1705.6162   -4707.7123    2.1698602   0.47731237   0.12174142 
    5500     -942.317    46.729777   -895.58722    1673.6911   -3777.4384     2.152096  0.099757218   0.12499296 
    5600   -945.04449    52.428813   -892.61567      1877.81    3424.8005    2.1752697   0.44903858   0.13490345 
    5700   -944.01968    42.863085    -901.1566    1535.2003    9550.0469    2.1951594   0.10158357   0.13907469 
    5800    -941.8615    44.479188   -897.38232    1593.0832   -4879.7678    2.1525447  0.035036309   0.12246253 
    5900   -941.45864    47.385048   -894.07359    1697.1606   -5871.3593    2.1512559  0.055776694   0.12123213 
    6000   -946.06103    42.822846   -903.23818    1533.7591    12290.172    2.2073245   0.14184796   0.12052343 
    6100   -942.50279    44.917607   -897.58518    1608.7858    2743.5432    2.1741131   0.25349485    0.1415192 
    6200   -942.04344    45.604798   -896.43865    1633.3985   -7614.5223    2.1477361   0.69243995   0.13900133 
    6300     -950.598    47.091831   -903.50617    1686.6586    -169.8731    2.1835996   0.28635189   0.11752214 
    6400   -945.80856    45.904333   -899.90422    1644.1267    9703.5608    2.1989697  0.026669297   0.12391616 
    6500   -940.72706    45.407038   -895.32003    1626.3154   -1114.6376    2.1632551 0.0037083268   0.12450947 
    6600    -949.4867    47.882904    -901.6038     1714.992   -10714.167    2.1592117  0.034191449   0.14715031 
    6700   -945.53187    44.864411   -900.66746    1606.8805    5725.8539    2.1904952     0.249745   0.14191266 
    6800   -944.31458    51.747382    -892.5672    1853.4036    5056.4697    2.1791247  0.026546379   0.13098431 
    6900   -942.59268    42.980432   -899.61225    1539.4032   -6265.3326    2.1525286 0.0053566024   0.12310048 
    7000   -943.86011    43.680266   -900.17984    1564.4687   -4250.6764    2.1599077  0.077743236   0.12330025 
    7100   -946.96402    56.225672   -890.73835    2013.7997    9054.0052    2.1928698  0.026533794   0.10330283 
    7200   -944.16972    47.011536   -897.15818    1683.7827    5749.4029    2.1838975   0.29997937   0.12867747 
    7300   -946.22326    44.422506   -901.80076    1591.0531   -19995.793    2.1259044   0.16853949   0.12736436 
    7400   -946.21233    51.110233    -895.1021    1830.5832   -2647.7734    2.1661335   0.27147921    0.1296085 
    7500   -946.93931    52.739205   -894.20011    1888.9271    13119.691    2.2104733   0.01236673   0.14817438 
    7600      -945.47    42.826928   -902.64307    1533.9052   -448.77877    2.1735064  0.036217994   0.12305882 
    7700   -944.57001    46.307537   -898.26247     1658.568   -6303.7402    2.1527345  0.059179949   0.12387709 
    7800   -942.07782    47.775748   -894.30207     1711.154    2195.8507    2.1746913   0.16818777   0.13729525 
    7900   -949.89534    46.158017   -903.73732    1653.2128    3358.1106    2.1934471  0.062979851   0.10910404 
    8000   -946.07374    46.850644   -899.22309    1678.0201   -6733.8993    2.1609363  0.023473579   0.12253261 
    8100   -938.46145    42.875118   -895.58633    1535.6312    549.24337    2.1627877  0.035121365   0.13085612 
    8200   -946.51126    44.153805   -902.35745    1581.4292    7634.4228    2.1941082   0.20202113   0.10923687 
    8300   -947.11582    46.407672   -900.70815    1662.1545    1230.3427    2.1800652   0.23248348    0.1193633 
    8400   -946.33868    51.073538   -895.26514    1829.2689    -8342.485    2.1529083  0.050276648   0.12492473 
    8500   -948.03937    47.637142   -900.40223    1706.1897   -851.40057    2.1759073   0.10626537   0.12302719 
    8600   -947.56306    45.563411   -901.99964    1631.9162     7939.462     2.198469  0.050333671   0.13196906 
    8700   -941.60938     48.73195   -892.87743    1745.4017   -3065.4419    2.1543767 0.0049896667   0.11892491 
    8800   -947.33927    47.637457   -899.70181     1706.201   -8274.6781    2.1516076   0.11662061   0.12410548 
    8900    -947.5905    48.293494   -899.29701    1729.6978    5678.3888    2.1907586   0.16259248   0.12871132 
    9000   -942.20652    52.359547   -889.84697    1875.3291    4745.5537     2.174949  0.049254769   0.12307101 
    9100   -942.50243    44.893303   -897.60913    1607.9153   -9352.0975    2.1475919  0.091225897   0.13257316 
    9200   -944.07553    43.789832    -900.2857     1568.393   -3437.7849    2.1608967   0.17677229    0.1191493 
    9300   -946.45574    53.036924   -893.41882    1899.5903    11565.936    2.1998735   0.12866799   0.11547252 
    9400   -942.12096    46.999159    -895.1218    1683.3394    532.81686    2.1679984   0.32832896   0.14701908 
    9500   -940.44266    37.991012   -902.45165    1360.7003    -8479.081    2.1457496   0.37110033   0.14869381 
    9600   -942.63458    45.088371   -897.54621    1614.9019    6443.8997    2.1815695 0.0066628809   0.13938278 
    9700   -945.29449    51.099689    -894.1948    1830.2056    6647.8356    2.1880645  0.040065438   0.12820571 
    9800   -946.90753    45.954928    -900.9526    1645.9389   -8870.5437    2.1551613   0.11562707   0.12587267 
    9900   -948.09118    45.850526   -902.24066    1642.1996   -4363.4665    2.1680443   0.19334364    0.1239841 
   10000   -940.44721    44.361251   -896.08595    1588.8592    7578.7782    2.1816304   0.17473559   0.13521504 
   10100   -947.34447    48.436155   -898.90832    1734.8074   -2804.5755    2.1719711   0.20537383   0.12301221 
   10200    -947.5396    41.628219   -905.91138    1490.9718   -1460.9487    2.1762817   0.20468677   0.11449395 
   10300   -947.30581    49.994089   -897.31172     1790.607   -2844.0446    2.1690642  0.043805996    0.1165893 
   10400   -945.65074    48.440442    -897.2103     1734.961    1666.0338    2.1802824    0.1176107   0.12481204 
   10500   -947.86772    43.188023   -904.67969    1546.8384   -1030.9153     2.176977   0.11372831   0.12548699 
   10600    -948.2213    50.524073   -897.69722    1809.5891   -5603.6844    2.1614511     0.110726   0.12928189 
   10700   -944.66019    48.878689    -895.7815    1750.6574    3907.2891    2.1831464    0.1514318   0.12779323 
   10800   -946.85684    46.358886   -900.49796    1660.4072    825.12585    2.1790613  0.012055225   0.12190148 
   10900    -950.7863    48.771813   -902.01449    1746.8295   -10751.701    2.1589785 0.0040838603   0.12475623 
   11000   -942.53193    49.868345   -892.66359    1786.1033   -4323.6909    2.1552511   0.20628043   0.13239703 
   11100   -946.77524    49.748784   -897.02645     1781.821    10987.512    2.2032729   0.15102574   0.12335553 
   11200   -945.63238    45.462455   -900.16993    1628.3003   -882.84203    2.1728925  0.082923326    0.1267804 
   11300   -939.83753    47.145671   -892.69186    1688.5869   -14599.912    2.1283493    0.1042777   0.15905297 
   11400   -941.05668     47.53571   -893.52097    1702.5567    7061.4323    2.1831671  0.052705554   0.13435152 
   11500   -946.04798    47.448502   -898.59948    1699.4333    9907.0244    2.2011776   0.16820077   0.12078255 
   11600   -944.17967    45.831568    -898.3481    1641.5205   -6213.3597    2.1559229  0.022871947    0.1364355 
   11700   -943.69321     51.30296   -892.39025     1837.486   -7266.5625    2.1498162   0.11353969   0.12226552 
   11800   -951.19716    50.054901   -901.14226     1792.785    3365.8775     2.191812  0.049643046   0.10927869 
   11900   -947.70716    47.018783   -900.68838    1684.0423   -357.92468    2.1786814  0.066096852    0.1229819 
   12000   -945.96968    48.654469   -897.31521    1742.6266   -2856.2896    2.1658051   0.10594457   0.12181074 
   12100   -942.38509    48.945354   -893.43973    1753.0451    2127.1402    2.1718872   0.18666007   0.14058418 
   12200   -949.25154    45.539757   -903.71178    1631.0689    687.37512    2.1869795  0.066114724   0.12649366 
   12300   -944.40008    43.633656   -900.76642    1562.7993   -2702.7545    2.1669608   0.11546639   0.12678339 
   12400   -941.85259    45.639758   -896.21283    1634.6506    1488.9765    2.1728446  0.077173683   0.13759174 
   12500   -945.83753    47.364925   -898.47261    1696.4398    2337.7908    2.1835989  0.029549498   0.14030491 
   12600   -948.06182     42.89284   -905.16898     1536.266   -10.848154    2.1859632   0.11941786   0.13426295 
   12700   -943.22023    45.544084   -897.67615    1631.2239    -424.5444    2.1674531   0.23681569   0.13254381 
   12800    -944.6768     48.05671   -896.62009    1721.2171   -1705.3806    2.1705047  0.014322017   0.12763383 
   12900   -949.19386    43.899719   -905.29414    1572.3287    2760.5116    2.1907445   0.12225118   0.12163339 
   13000   -945.54934    47.000852   -898.54849    1683.4001   -1629.0878    2.1695099     0.441857   0.13547596 
   13100   -942.67275    46.208691   -896.46406    1655.0277    1592.2219     2.171251   0.27913553   0.13679477 
   13200   -945.14805    43.699042     -901.449    1565.1412    3863.7293    2.1866475   0.19236118   0.14214893 
   13300    -947.5049    43.028635   -904.47627    1541.1297   -752.95863    2.1804106  0.065081476   0.13964323 
   13400   -940.15375    44.863183   -895.29057    1606.8365    -4904.765    2.1478734   0.23737733   0.13882053 
   13500    -946.2422     47.70381   -898.53838    1708.5775    3930.5831    2.1856073   0.16912295   0.12616083 
   13600    -948.7651    47.064449   -901.70066    1685.6779    5903.2529    2.2005749   0.18926969   0.13633162 
   13700   -940.60766    49.280384   -891.32728    1765.0447   -9540.2695    2.1412423   0.20768516   0.12310497 
   13800   -945.55879    48.166005   -897.39279    1725.1316   -4941.2255    2.1620955   0.02456338   0.12510438 
   13900   -942.69367    43.183009   -899.51066    1546.6588    10779.929    2.1944431   0.19245924   0.13181646 
   14000   -942.20704    47.438815   -894.76822    1699.0863    2984.0658    2.1714553   0.11866705    0.1309264 
   14100   -941.09917    48.035796   -893.06338     1720.468    -10363.95    2.1378529  0.049633506   0.12959352 
   14200   -946.38869     45.34674   -901.04195    1624.1558    285.28159    2.1789044  0.091624476   0.13095362 
   14300   -944.42264    47.730288   -896.69235    1709.5258    9792.9399    2.1980042    0.1076089   0.12656695 
   14400   -944.42547    50.910828   -893.51464    1823.4412   -5935.3898    2.1499307  0.055943021   0.12980004 
   14500   -943.28509    39.758977   -903.52612    1424.0224   -1985.4401    2.1649782    0.1502771   0.12024206 
   14600   -946.91665    47.117944   -899.79871    1687.5939    3198.4822    2.1844866   0.20654224   0.10993461 
   14700   -945.94921    50.803192   -895.14602    1819.5861    2904.9964    2.1757055  0.032653734   0.11520043 
   14800   -946.01093    45.498762   -900.51217    1629.6007    -6256.493     2.155121   0.31941323   0.11655723 
   14900   -948.86399    45.376188    -903.4878    1625.2105   -1368.3209     2.173632  0.046278168    0.1111889 
   15000   -944.65042    49.289666   -895.36076    1765.3771    8322.9167    2.1887416  0.052348284   0.12577873 
   15100   -944.06958    45.340989   -898.72859    1623.9498    554.13064    2.1723129   0.11478406   0.11614677 
   15200   -947.20811    41.668436   -905.53968    1492.4123   -7257.0589     2.160026   0.11466183   0.10738287 
   15300   -941.94328    45.202683   -896.74059    1618.9962    3475.2482    2.1761956   0.28815575   0.12854012 
   15400   -946.00818    50.617381    -895.3908     1812.931     14759.86    2.2128217   0.18675665   0.12912382 
   15500   -943.63483    41.821686   -901.81314    1497.9011   -9015.7806    2.1466904   0.24977514   0.13209167 
   15600   -940.57271    44.815908    -895.7568    1605.1433   -15403.182    2.1234117  0.066247956    0.1248176 
   15700   -941.68162    50.835901   -890.84572    1820.7576    13098.997    2.1964054  0.046140829   0.12454946 
   15800    -945.3936    47.383099    -898.0105    1697.0908    5476.0679    2.1858019  0.064917129   0.11179537 
   15900   -942.20025    42.578227   -899.62203    1524.9977   -6003.3067     2.152701    0.1062767   0.12424539 
   16000   -940.09148    49.010201   -891.08127    1755.3677    100.68822     2.159386    0.0731845   0.12504922 
   16100   -942.19575    47.059911   -895.13584    1685.5153    8454.4653    2.1850859   0.22573509    0.1184156 
   16200   -944.29624    44.779581   -899.51666    1603.8422   -3381.1977    2.1634362    0.1139854   0.12351792 
   16300   -946.49296    49.094946   -897.39801    1758.4029   -5303.9637    2.1601723   0.44990013   0.12449306 
   16400   -944.00266    54.376883   -889.62578    1947.5828    2951.9724    2.1725533  0.055192217   0.13143439 
   16500   -945.99275    49.242599   -896.75015    1763.6913    166.61702    2.1719759  0.072425436   0.12245732 
   16600   -943.18856    43.640681   -899.54787    1563.0509   -9116.2746    2.1446056  0.026865834   0.11896358 
   16700   -947.08586    49.884699   -897.20116     1786.689    830.50752    2.1750825   0.29626634   0.11705517 
   16800   -944.22826      46.3691   -897.85916     1660.773    12947.802    2.1975473    0.1686024   0.11811405 
   16900   -949.75929    43.068857   -906.69044    1542.5703   -3360.9758    2.1753222    0.1431839   0.11944905 
   17000   -946.98213    46.261152   -900.72098    1656.9067   -8284.6809    2.1531533  0.024408362   0.11907148 
   17100   -947.58505    50.751702   -896.83335    1817.7419    2004.3112    2.1779862  0.046431618   0.10981847 
   17200   -948.68927    49.440167    -899.2491    1770.7675    3440.4367    2.1842025  0.069117701   0.11289796 
   17300   -949.50028    42.539906   -906.96037    1523.6252   -1717.4235    2.1770867  0.026833846   0.10829185 
   17400   -943.36583    44.525359   -898.84047    1594.7369   -3491.9867    2.1593191   0.15579528   0.13312674 
   17500   -946.16768    49.480622   -896.68705    1772.2165     2394.526    2.1772503    0.3213672   0.11887063 
   17600   -950.48396    47.160006   -903.32396    1689.1004   -1995.9264    2.1802548   0.16482752   0.11273556 
   17700   -947.12616    43.952217   -903.17395     1574.209    -799.2997    2.1746591  0.041874569   0.11724289 
   17800   -945.03828    48.545764   -896.49252    1738.7332   -1490.1038    2.1664512  0.092659802   0.11863188 
   17900    -943.1558    44.381737   -898.77406    1589.5929    2322.9656     2.172226   0.27128907    0.1309302 
   18000   -945.90098     40.69634   -905.20464    1457.5953    1294.7266    2.1807824   0.24366793    0.1208537 
   18100   -946.13883    47.675511   -898.46332    1707.5639    1442.7186    2.1758377  0.042076546   0.12278414 
   18200   -942.18589    45.779976   -896.40592    1639.6727    4449.5365    2.1754107   0.17218277   0.12614588 
   18300   -944.84992    45.421751   -899.42817    1626.8424   -3336.0084    2.1633798   0.16832255   0.11231455 
   18400    -945.3689    43.802157   -901.56674    1568.8344   -1541.3892    2.1720021   0.21744804   0.11622077 
   18500   -939.88802    47.620077   -892.26794    1705.5785    10751.865    2.1825348   0.22802749   0.12914197 
   18600   -943.12246    49.678256    -893.4442     1779.295     5114.523    2.1734363  0.047084451   0.11398881 
   18700   -941.32562    43.222948   -898.10267    1548.0893   -13659.415     2.125608  0.010074921   0.14079446 
   18800   -943.67786    44.787933   -898.88992    1604.1413    1415.7232    2.1722298  0.052483271   0.13234895 
   18900   -949.73611    46.194389   -903.54172    1654.5155    21967.686    2.2339621  0.076136029   0.11682499 
   19000   -947.19071    47.918472   -899.27224    1716.2659   -4226.9765    2.1633074  0.054938783   0.12623299 
   19100   -942.77221    46.363385   -896.40883    1660.5683   -9658.2491    2.1407993  0.030538363   0.12670926 
   19200   -944.74555    47.031744   -897.71381    1684.5065    5044.2874    2.1804834    0.2276981   0.11784294 
   19300    -943.6729    44.783948   -898.88895    1603.9986    7950.9974    2.1900149  0.012853042   0.11746836 
   19400   -942.12242    51.842666   -890.27975    1856.8163    -3315.555    2.1516671   0.31384846   0.12947917 
   19500   -943.77554    50.573905   -893.20163    1811.3739   -3047.3751    2.1587224   0.17112084   0.12705573 
   19600   -945.62286    47.165136   -898.45772    1689.2841    1609.4189    2.1783124   0.15057037   0.14480078 
   19700   -943.65716     44.66613   -898.99103    1599.7788    3507.5254    2.1810032   0.29074095   0.13252249 
   19800   -938.84073    49.490566   -889.35016    1772.5726   -54.750699    2.1529516   0.12369775   0.13705367 
   19900   -941.98476    46.852908   -895.13185    1678.1013    2100.2577    2.1746574   0.13522745   0.14454337 
   20000   -944.50658    45.503749   -899.00283    1629.7793    -31.10901    2.1768885   0.13868651   0.12083821 
   20100   -942.33886    44.374197   -897.96466    1589.3228   -963.73103    2.1699265  0.090964827   0.14536149 
   20200   -938.09705    49.568727   -888.52832    1775.3721   -3940.0035    2.1553806   0.03017862   0.14853594 
   20300   -943.78199    46.101364   -897.68062    1651.1837    7400.7344    2.1901618  0.071924611   0.12562537 
   20400   -945.98717    46.783948   -899.20322    1675.6314   -5029.5845    2.1662106   0.04759279   0.13548548 
   20500   -940.48374    44.044799   -896.43894     1577.525   -5487.7765    2.1539733  0.060772108   0.14215167 
   20600    -939.6964    52.088865   -887.60753    1865.6343    5899.2767    2.1756215   0.13942475   0.14605268 
   20700    -943.7113    47.409221   -896.30208    1698.0264    7948.7039    2.1905859   0.18618582   0.16203839 
   20800   -942.44353    43.879161   -898.56437    1571.5924   -12365.953    2.1398818  0.014708114   0.13968574 
   20900   -947.56282    49.804209   -897.75861    1783.8062   -3479.9356    2.1654859  0.020354287   0.12617438 
   21000   -949.34585    48.222929   -901.12292    1727.1704    11177.523    2.2108382   0.18017617   0.11632875 
   21100   -950.90137    43.385855   -907.51551     1553.924    615.95083      2.18879   0.31685998    0.1149009 
   21200   -946.41358    46.517493   -899.89609    1666.0879   -11928.255    2.1480019  0.041303213   0.13472515 
   21300   -944.24705    46.811762   -897.43529    1676.6275    1344.8499    2.1753051  0.017664516   0.14400445 
   21400   -944.62905    47.043098   -897.58596    1684.9132    7790.9666    2.1876259   0.15487958   0.13521302 
   21500   -940.99132    51.697697   -889.29363     1851.624   -2506.6321    2.1574202    0.1246766   0.15256069 
   21600    -936.4351    45.462458   -890.97264    1628.3004   -1998.7495    2.1517333   0.16451448   0.14844963 
   21700   -946.73238    49.958668   -896.77371    1789.3383   -2152.1665    2.1701027  0.054973859   0.12653424 
   21800   -943.25945    44.168254    -899.0912    1581.9467    5264.8219    2.1837904  0.019432381   0.11886998 
   21900   -946.79031    46.613038   -900.17727      1669.51   -1299.8007     2.172599   0.19111401   0.12556797 
   22000     -941.141    51.306402   -889.83459    1837.6093   -8710.5492     2.142109    0.1485045   0.14957764 
   22100   -942.97926    45.923158    -897.0561     1644.801     6034.359    2.1851212   0.17531644   0.12998741 
   22200   -946.42364    47.374257   -899.04938    1696.7741    4226.4063    2.1846353   0.10715905   0.12538807 
   22300   -943.44445    47.650626   -895.79383    1706.6726    -10291.66    2.1437147  0.041864665   0.13504158 
   22400   -940.25129    49.883184   -890.36811    1786.6348   -5955.1733    2.1451343  0.034296147    0.1498861 
   22500   -945.44359    47.147019   -898.29657    1688.6353    18855.262    2.2224356   0.22958974   0.14443231 
   22600   -942.88437    44.249605   -898.63477    1584.8604     1355.899    2.1727432   0.12600288   0.12865255 
   22700   -944.82502    49.478328   -895.34669    1772.1343   -21002.438     2.115387   0.30244643   0.12825218 
   22800   -948.63412    43.107372   -905.52675    1543.9497    5462.8022    2.1983513  0.017715706   0.11951676 
   22900   -947.45575    45.960021   -901.49573    1646.1213     8022.965    2.2027379   0.13765877   0.13118586 
   23000   -943.71734    46.646123   -897.07122     1670.695   -3878.8459    2.1595061   0.29050531   0.12915161 
   23100   -944.62783    47.416206   -897.21163    1698.2766   -6931.1626     2.155277   0.09312605   0.12076606 
   23200   -949.28526     43.93793   -905.34733    1573.6973    7675.0877    2.2018984   0.20886804   0.11226153 
   23300   -943.17536    46.498666   -896.67669    1665.4136    1683.8144    2.1769758   0.21043655   0.12949606 
   23400   -942.50565    45.066705   -897.43894    1614.1259   -4161.9067    2.1556111  0.072942783   0.13355476 
   23500    -951.9372    49.296201     -902.641    1765.6111   -3288.0353    2.1750236     0.187706   0.11536884 
   23600   -950.57089    46.644357   -903.92654    1670.6317    6193.4396    2.1971722   0.25527653   0.11922376 
   23700    -942.1452    46.652544   -895.49266    1670.9249   -3740.9507    2.1535798  0.036518222   0.12819517 
   23800   -944.07256    44.868522   -899.20403    1607.0277    -7106.294    2.1502892   0.24974263   0.11429836 
   23900   -947.80703    48.420396   -899.38663     1734.243    6620.9392    2.1895337   0.11638107   0.10695522 
   24000   -942.45193    53.138247   -889.31369    1903.2193    972.48155    2.1623039   0.42426868   0.11344494 
   24100   -944.42214    47.419002   -897.00314    1698.3767   -7660.5425    2.1512626   0.29297151   0.12002258 
   24200   -942.96219    42.984756   -899.97743    1539.5581    3420.4181    2.1671747   0.24424699   0.11083859 
   24300   -943.17452    47.938261   -895.23626    1716.9747    13462.508    2.1968602   0.11492002    0.1120094 
   24400   -938.51591    47.156856   -891.35905    1688.9876    -2134.682    2.1474601   0.19022344   0.14397293 
   24500   -944.31869    43.538566   -900.78013    1559.3935   -14694.662    2.1344336  0.096903179   0.12585209 
   24600   -943.84841     45.34979   -898.49862     1624.265    12417.496      2.19977   0.13899133   0.13124437 
   24700   -940.86135    46.213382   -894.64797    1655.1958    10884.459    2.1913468  0.073868516    0.1246889 
   24800   -944.76819    49.936983    -894.8312    1788.5616     -14921.4    2.1309386   0.31013533   0.10760026 
   24900   -946.59244    43.611488   -902.98095    1562.0053    267.24139     2.172744   0.29194027   0.10607685 
   25000    -946.3171    50.243564   -896.07354    1799.5423     6984.676    2.1865799  0.054052365   0.10425904 
   25100   -945.72807     48.66256   -897.06551    1742.9164   -2072.3213    2.1672192  0.020922486   0.11312942 
   25200   -949.08734    43.749609   -905.33773    1566.9523   -5364.2513    2.1690791  0.099055458   0.12034919 
   25300    -946.3628    48.929462   -897.43334    1752.4759   -665.05194    2.1697189  0.059682579   0.12687432 
   25400   -944.63172    48.648121    -895.9836    1742.3993     4826.244    2.1797841  0.044849334   0.12332753 
   25500    -949.9944    45.528839   -904.46556    1630.6779   -2344.6959     2.173737  0.029220607   0.12559129 
   25600   -941.52755    43.793336   -897.73421    1568.5185   -4351.7039    2.1544275  0.084961656   0.12405071 
   25700   -942.40743    47.054877   -895.35255     1685.335    5732.2972    2.1795847   0.22265275   0.11823319 
   25800   -950.92531    49.490104   -901.43521     1772.556    416.13715    2.1849951   0.20137071   0.10708165 
   25900   -941.54531    43.607072   -897.93824    1561.8472   -5411.5193     2.151257   0.14521663   0.11171623 
   26000   -940.61824    46.922398   -893.69584    1680.5901   -2031.0105    2.1585935  0.037419782    0.1086348 
   26100   -947.27733    48.126178   -899.15116    1723.7052    6643.7237     2.191285  0.045126797   0.11533097 
   26200   -947.22039    46.546756   -900.67364     1667.136   -1159.6467    2.1729159  0.018043821   0.12359517 
   26300   -939.95814    48.161332   -891.79681    1724.9643   -13250.477    2.1257733   0.19111375   0.14654793 
   26400   -947.79042    47.525434   -900.26499    1702.1887    6373.6989    2.1942969    0.5023218   0.12312346 
   26500   -946.95598    47.909625   -899.04635     1715.949    11242.943    2.2030051   0.10358556   0.11097645 
   26600   -942.41453    47.372148   -895.04238    1696.6986   -9831.5466    2.1395803   0.84207716   0.12779224 
   26700   -940.32107    49.046787   -891.27428     1756.678   -9712.7685    2.1391295   0.34714732   0.13230054 
   26800   -946.73196    46.319177   -900.41279    1658.9849    13813.898    2.2082033  0.083183112   0.12702929 
   26900    -944.0196    46.329981   -897.68962    1659.3719    3539.6989    2.1773376   0.14723748   0.12334808 
   27000    -943.3701    48.901887   -894.46822    1751.4882   -9029.7802    2.1432572   0.16767027   0.11714698 
   27100   -944.93931    40.636556   -904.30276    1455.4541    4120.1824    2.1862618   0.29186681   0.11515148 
   27200    -946.3406    47.673849   -898.66675    1707.5044    3296.2131    2.1863752   0.15716177   0.12025084 
   27300   -942.15572    46.529922    -895.6258    1666.5331   -1258.1308    2.1637146  0.011150277    0.1264908 
   27400    -945.3341    41.592234   -903.74186     1489.683   -3317.1621    2.1689572  0.071375872   0.13118705 
   27500   -945.69819    45.329863   -900.36833    1623.5513    2685.5265    2.1809785   0.50514657    0.1249134 
   27600    -943.3925    48.560089   -894.83242    1739.2463    4383.7198    2.1793359  0.027927434   0.12672321 
   27700   -942.48797    40.918766    -901.5692    1465.5618   -2079.4259    2.1657358  0.020527158   0.12268309 
   27800   -944.51339     43.31995   -901.19344    1551.5635    -2110.146    2.1667371   0.13322599   0.11818719 
   27900   -945.35191    51.570761   -893.78115    1847.0776    1533.1966    2.1752113   0.16837094   0.10929191 
   28000   -944.12913     44.88947   -899.23966     1607.778    2761.5151    2.1763575   0.18896538   0.11234458 
   28100   -948.88005    46.464838   -902.41522     1664.202   -8213.7206     2.161009   0.26888854   0.10691732 
   28200   -943.09344    50.337173   -892.75626     1802.895   -1598.7654    2.1613565  0.035370764   0.12851806 
   28300   -947.96133     50.96282   -896.99851    1825.3034     14097.13    2.2106613  0.071767941   0.11836465 
   28400   -946.91928    45.532521   -901.38676    1630.8098   -4937.1672    2.1642273    0.1110429   0.13718842 
   28500   -941.13309     46.33145   -894.80163    1659.4245   -13266.473    2.1327952  0.025732669   0.13183059 
   28600   -942.46046    50.302132   -892.15833      1801.64    8777.2296    2.1877574  0.094466804   0.11011878 
   28700   -948.84722    48.118585   -900.72864    1723.4332     11461.15    2.2096125  0.015584213   0.12680918 
   28800   -944.79538    46.933454   -897.86192    1680.9861       -10418    2.1500486   0.15171443   0.11597308 
   28900   -941.91579    47.584479   -894.33131    1704.3035   -7162.6598    2.1505912  0.023556063   0.13477411 
   29000   -949.06522    45.940311   -903.12491    1645.4153    8120.7227    2.2070159   0.15747902   0.10798181 
   29100   -944.42655    46.548649    -897.8779    1667.2038    1305.5108    2.1769666  0.027527212   0.13057016 
   29200     -946.618    50.749781   -895.86822    1817.6731   -8803.6523    2.1510418  0.073684977   0.12367368 
   29300   -946.09043    43.050987   -903.03945    1541.9302    1783.5256    2.1804996  0.043079747   0.12191611 
   29400   -945.48371    45.659928   -899.82379     1635.373    6175.4718    2.1918011  0.082952419   0.12880151 
   29500   -942.35852    47.238119    -895.1204    1691.8981   -1626.7545    2.1606346  0.062629756   0.12172241 
   29600   -942.61842     40.69984   -901.91858    1457.7207   -4221.7885    2.1590493  0.061369099   0.12899984 
   29700   -945.24713    45.439337   -899.80779    1627.4723    4158.5255    2.1827329  0.023861073   0.12721664 
   29800   -941.81118    48.869534   -892.94165    1750.3295    4654.6577    2.1758176   0.14616509   0.11566514 
   29900   -944.85578    44.282355   -900.57343    1586.0334    -5708.513    2.1562954  0.070438625   0.10984472 
   30000   -944.36106    45.394166   -898.96689    1625.8544   -2318.0238    2.1606734   0.15042978   0.11515788 
   30100   -939.46384    48.897219   -890.56662    1751.3211    8763.8094    2.1796948   0.11428641   0.13002086 
   30200   -944.06402    45.402438   -898.66158    1626.1507    3730.7345     2.178677  0.069201845   0.12341751 
   30300   -943.84569    43.177683   -900.66801     1546.468    -14553.05    2.1306057  0.087174037   0.12653803 
   30400   -941.55286    48.480059    -893.0728    1736.3799    1313.5068    2.1672535   0.24574985   0.12586038 
   30500   -948.58809    50.511168   -898.07693    1809.1268    18208.516    2.2178116    0.4037039   0.13125624 
   30600   -945.26748    42.807427   -902.46005    1533.2068   -4742.9559    2.1588069    0.1239842   0.13131785 
   30700   -942.05086    44.877163    -897.1737    1607.3372   -8374.4397    2.1429296  0.043268046     0.130462 
   30800   -944.42706    49.849857    -894.5772    1785.4411    6743.1446    2.1829703 0.0044164135    0.1162502 
   30900   -949.52254    45.632582   -903.88996    1634.3936     5453.892    2.1957328  0.044636669   0.10394328 
   31000   -944.23974    46.649127   -897.59061    1670.8026   -8698.7362    2.1451771  0.021644934   0.11876649 
   31100   -941.64671    45.626716      -896.02    1634.1835   -3226.7508    2.1573169    0.1466579   0.12951797 
   31200   -945.50721    43.040078   -902.46714    1541.5395    10161.476     2.196226  0.070335789   0.11872216 
   31300   -943.60991    45.737263   -897.87265    1638.1429    2234.1067    2.1713117   0.34702284   0.11841303 
   31400   -941.25024    45.800927   -895.44931    1640.4231   -7026.7685    2.1487892  0.038585502   0.14052608 
   31500   -946.57893    45.435693   -901.14324    1627.3417    415.70905    2.1747289   0.13018796   0.12124186 
   31600   -947.17788    47.570159   -899.60772    1703.7906    8421.3726    2.1945637  0.085797115   0.12542803 
   31700   -939.66098    46.865205   -892.79577    1678.5417   -4016.6795    2.1490593  0.014508477    0.1284454 
   31800   -943.87726    42.870458    -901.0068    1535.4643   -2458.5503    2.1581484  0.060560624    0.1058319 
   31900   -944.43111    45.819829   -898.61128    1641.1001    6892.3735    2.1863725  0.043512634   0.12774046 
   32000   -941.52376    50.234827   -891.28894    1799.2293    1375.4549    2.1705223  0.040103208   0.12413018 
   32100   -947.94756    47.932996   -900.01457    1716.7861   -8207.2659    2.1523316   0.11958859   0.11341064 
   32200   -944.83044    44.649682   -900.18076    1599.1897   -4566.4416    2.1583519   0.14247588    0.1184027 
   32300   -943.86563    51.337326   -892.52831    1838.7168    13040.372     2.199307   0.22339513   0.12232376 
   32400   -951.21249    51.306273   -899.90622    1837.6046   -1109.9816     2.178117   0.14793044    0.1172156 
   32500   -946.74523    43.071066   -903.67416    1542.6494   -22235.466    2.1188801   0.32559195   0.12240337 
   32600   -944.14983    47.289248   -896.86058    1693.7294    2580.6527    2.1750582  0.098316225   0.12802144 
   32700   -946.92414    50.483811   -896.44033     1808.147    11181.919    2.2029076   0.43991405   0.12221025 
   32800   -949.58646    44.815788   -904.77067     1605.139   -5700.4684    2.1662359  0.021205769   0.11715985 
   32900   -944.90343    46.820341   -898.08309    1676.9348   -7128.3571    2.1523642   0.09590078   0.12467172 
   33000   -946.54851    51.159789   -895.38872    1832.3581    3153.8556    2.1821436    0.0629202   0.11128175 
   33100   -946.20237    45.249798   -900.95258    1620.6837    3822.1294    2.1813397  0.022574661   0.10509159 
   33200    -942.1768    43.169069   -899.00773    1546.1595   -4749.4279    2.1566819   0.19853116   0.12758598 
   33300   -941.74247    48.675865   -893.06661     1743.393   -2700.6265    2.1552566   0.14746591   0.13634985 
   33400   -947.61013    48.692756   -898.91737    1743.9979    4187.9333    2.1871156   0.15584161   0.13904521 
   33500   -943.28431    42.923749   -900.36057     1537.373    4584.7944    2.1760567   0.11721259     0.116344 
   33600   -940.05324    49.031189   -891.02205    1756.1194   -8959.9009    2.1359863  0.088851923   0.13036887 
   33700    -947.7262    48.298639   -899.42756    1729.8821    3701.1982    2.1851371   0.12581959   0.11121898 
   33800   -946.16917    46.892995   -899.27617     1679.537    6269.6864    2.1872627   0.29846775    0.1150764 
   33900   -942.88882     47.88938   -894.99944    1715.2239   -6126.9867    2.1503898  0.056908787   0.13546816 
   34000   -941.22888    49.364722   -891.86416    1768.0653   -7084.0589    2.1427916   0.29600212   0.12899099 
   34100   -948.01551    47.124206    -900.8913    1687.8182    12807.473    2.2090891   0.03572707   0.11301717 
   34200   -944.08006    46.860119   -897.21994    1678.3595    5198.5418    2.1805736  0.094454974   0.11627442 
   34300    -945.9177    49.306089   -896.61161    1765.9653   -16864.503    2.1294478   0.43080099   0.13288134 
   34400   -950.37465     44.11538   -906.25927    1580.0529   -12.345617    2.1825168  0.071093927   0.12187926 
   34500   -942.72448    43.623037   -899.10144     1562.419    12333.931    2.1959073   0.08206474   0.12102684 
   34600   -943.59889    46.903639   -896.69525    1679.9183   -1937.6427     2.161325  0.032677259   0.12440737 
   34700    -946.2186    45.836039   -900.38256    1641.6807   -5490.4108    2.1581706  0.047922779   0.11541393 
   34800   -947.01063    42.580183   -904.43044    1525.0677    5412.9395    2.1915876   0.20336058   0.11970012 
   34900   -941.67978    46.195713   -895.48407    1654.5629    1209.5333    2.1675022   0.15430511   0.13209444 
   35000   -946.40485    47.691467   -898.71338    1708.1354   -4760.0775    2.1618087   0.29272008   0.10626285 
   35100   -946.21725    42.465629   -903.75162    1520.9648    2894.1738    2.1808654  0.057826515   0.10821436 
   35200   -942.53331    47.017076   -895.51623    1683.9812    5601.1177    2.1798271  0.001568752   0.12795203 
   35300   -940.80363    45.230119   -895.57351    1619.9788    2091.4406    2.1685923  0.076299422   0.12532921 
   35400     -944.693    43.973557   -900.71944    1574.9733   -6150.2775    2.1567891   0.13699008    0.1401945 
   35500   -946.98403    49.064705   -897.91933    1757.3198    1264.1807    2.1762316   0.29968351   0.12776782 
   35600   -939.80598    48.972542   -890.83344    1754.0188    4429.0774    2.1720262   0.41658909   0.13259384 
   35700   -942.99635    44.693209   -898.30315    1600.7487   -5489.2671      2.14991   0.97016168   0.14046885 
   35800   -942.76001    44.657334   -898.10267    1599.4637   -838.76708     2.160394  0.033262775   0.11272829 
   35900    -942.0486     51.28132   -890.76728    1836.7109    13229.403    2.1941937    0.2001331   0.12583151 
   36000   -940.57203    47.585511   -892.98652    1704.3404    -2041.266    2.1554445   0.18493738   0.11649365 
   36100   -943.13277    43.391643   -899.74113    1554.1313   -13661.249    2.1293287   0.22861656   0.12591202 
   36200   -946.57986    49.288147   -897.29171    1765.3227    8314.1249    2.1889712   0.12553833   0.10521678 
   36300   -945.07574    47.324768   -897.75097    1695.0016    9801.9953     2.194091  0.054222281    0.1230942 
   36400   -935.38014    49.374603   -886.00554    1768.4192   -7305.1385    2.1249763  0.089681862   0.15155301 
   36500   -942.06189    47.308657   -894.75323    1694.4245    1400.9401    2.1670225  0.087560588   0.12749465 
   36600   -942.83287    44.922151   -897.91071    1608.9486    4859.9747    2.1793605   0.04636131   0.12497141 
   36700     -946.727    47.015017   -899.71199    1683.9074   -3002.2757    2.1689787  0.032945881   0.11403405 
   36800   -940.91934     49.35211   -891.56723    1767.6136   -1276.3638    2.1576878   0.17105057   0.12590007 
   36900   -941.89999    49.084778   -892.81521    1758.0388    3704.1756    2.1709134   0.19136628   0.12969119 
   37000   -943.39007    44.658108   -898.73197    1599.4915   -274.38211    2.1678907  0.022653146   0.12892071 
   37100   -946.80192    47.855127   -898.94679    1713.9971   -1996.2357    2.1701568   0.24804562    0.1247386 
   37200   -939.26866    49.573748   -889.69491    1775.5519    4654.9754    2.1719416   0.34604125   0.15616264 
   37300   -941.63605    46.036789   -895.59926    1648.8708    898.04973    2.1707819   0.28253643   0.14354521 
   37400   -940.60643    40.662878   -899.94355    1456.3968   -6320.5923    2.1508555   0.11034342   0.13981255 
   37500   -945.37229    49.054817   -896.31748    1756.9656    1915.8777    2.1781768   0.19781288   0.11539798 
   37600   -939.36568    50.114808   -889.25087    1794.9307    12144.938    2.1865583  0.088993576   0.12243658 
   37700   -940.31564    44.567087   -895.74855    1596.2314      -9615.6    2.1390441  0.014568434   0.12904766 
   37800   -942.63394    43.023559   -899.61038    1540.9479    -9567.898    2.1439984  0.037766975   0.12534687 
   37900   -944.90311    49.094745   -895.80836    1758.3957    15633.554    2.2051236   0.25875814   0.11881789 
   38000   -949.79894    48.859738    -900.9392    1749.9786     1649.647    2.1834907   0.23140734   0.12284029 
   38100   -945.50422    39.311441   -906.19278    1407.9933   -4247.9219    2.1633298    0.3093299   0.13241411 
   38200   -945.19397    46.556064    -898.6379    1667.4694   -21.903622    2.1706642   0.26863272   0.13430945 
   38300   -945.13413    48.378569   -896.75556    1732.7449    3726.5666    2.1799282   0.53388753   0.11852558 
   38400   -946.92474    45.214419   -901.71032    1619.4165   -1063.6689    2.1719972   0.18031445    0.1261031 
   38500   -946.75681    41.714512    -905.0423    1494.0625   -1902.3857    2.1755157     0.647821   0.11304169 
   38600   -942.87682     45.37588   -897.50094    1625.1995    3391.9583     2.176885   0.25001027   0.11823507 
   38700   -946.90961    48.890871   -898.01874    1751.0937   -1203.0998    2.1720073  0.081754954   0.10615888 
   38800   -946.25188    40.777123   -905.47476    1460.4887    145.70771    2.1774308     0.251542   0.10917159 
   38900   -946.01117    45.190802   -900.82037    1618.5706    1390.8022    2.1803302  0.097794447   0.14016046 
   39000   -946.24162    49.516536   -896.72508    1773.5027    3701.9769    2.1820061   0.13888206   0.14385076 
   39100   -946.31702    46.624399   -899.69262    1669.9169   -5141.6561    2.1591191   0.16222405   0.12517532 
   39200   -949.19971    44.708844   -904.49087    1601.3087   -3778.4857    2.1708311  0.064928697   0.11763003 
   39300   -947.41704     41.10514    -906.3119    1472.2371    14622.576    2.2175557   0.45630202   0.12401819 
   39400   -941.35774    43.301757   -898.05599    1550.9119    163.70483    2.1667537   0.25175135   0.13196707 
   39500   -942.74609    44.196525   -898.54957    1582.9593   -13130.046    2.1367992   0.12695723   0.13695271 
   39600   -945.00237    49.659571   -895.34279    1778.6258    5197.3263    2.1857864    0.2714697   0.12268337 
   39700   -937.88529    52.324855   -885.56044    1874.0865    11463.592    2.1811916   0.15909754   0.14060637 
   39800   -941.00721    46.194029   -894.81318    1654.5026   -4530.7682    2.1520583   0.19284675   0.15681186 
   39900   -943.49141    44.930635   -898.56077    1609.2524   -7004.6065     2.152489  0.049520137   0.13665223 
   40000   -945.77229    47.932896   -897.83939    1716.7825    6862.2199    2.1888503   0.14456426   0.12949846 
   40100   -941.40469     48.82401   -892.58068     1748.699    3926.6796    2.1769524   0.45161474     0.131057 
   40200   -940.16734    48.675585   -891.49175    1743.3829   -8020.6712    2.1409495  0.044295637   0.13802774 
   40300   -946.06254    47.333245    -898.7293    1695.3052   -2177.0481    2.1668622   0.62990578   0.12755515 
   40400   -947.23594    49.382179   -897.85376    1768.6906    6969.6467    2.1914723  0.014952171   0.12290857 
   40500   -940.74624    47.861594   -892.88465    1714.2287    1141.0437     2.165951   0.46410458   0.12708432 
   40600   -939.88918    48.486256   -891.40293    1736.6019   -8981.0927    2.1397307   0.12320863   0.14453674 
   40700   -948.56446    49.962383   -898.60208    1789.4714   -1675.9593    2.1756658   0.20568637   0.12376458 
   40800   -950.58352    52.879932   -897.70359    1893.9674    4231.5094    2.1917588   0.21577876   0.11457577 
   40900   -943.90798    52.161846   -891.74613    1868.2482   -4287.7827    2.1591804  0.088414495   0.12757994 
   41000   -937.67359    45.835433   -891.83816     1641.659   -4919.6635    2.1451747   0.11092483   0.14003358 
   41100   -944.86306    46.407513   -898.45555    1662.1488     3551.124    2.1840997   0.12037661   0.13291822 
   41200    -942.3109    44.569202   -897.74169    1596.3072    7558.2488    2.1906259   0.12236579   0.13587763 
   41300   -936.37361    44.972439   -891.40117    1610.7497   -1053.9641    2.1552659   0.57801314   0.14509454 
   41400   -940.37056      47.6426   -892.72796    1706.3851   -6523.8785    2.1510612   0.47304427    0.1431793 
   41500   -941.24261    42.587364   -898.65525    1525.3249    5088.6827    2.1806612   0.36934917   0.14363055 
   41600   -942.81929    45.048475   -897.77082     1613.473    5264.5374     2.183819   0.15937314   0.13404572 
   41700   -941.97776    50.039265   -891.93849     1792.225   -2115.1952    2.1575738  0.093377952   0.13107393 
   41800   -942.72168     51.72505   -890.99663    1852.6037   -4757.4991    2.1535312   0.70336666    0.1357866 
   41900   -945.91074    47.607085   -898.30365    1705.1132      2062.85    2.1811807   0.14886546   0.12632414 
   42000   -944.10104    46.020485   -898.08056    1648.2869    3091.9101    2.1795313  0.074694969   0.14016222 
   42100    -943.1432    47.601169   -895.54203    1704.9013   -3897.5492    2.1591515   0.11601695   0.12836728 
   42200   -940.50949    53.321959   -887.18753    1909.7992     -4773.24    2.1438583   0.61082668   0.13322471 
   42300   -942.92461    46.023288   -896.90132    1648.3873    10236.939    2.1898882   0.25487024   0.13913455 
   42400   -941.51893    43.171823   -898.34711    1546.2581    5178.2087    2.1779197  0.057359594   0.12563076 
   42500   -944.86528    46.003725   -898.86156    1647.6866   -8407.1735    2.1529298   0.26516408   0.12381002 
   42600   -948.94069     41.18898   -907.75171    1475.2399    1140.5883    2.1835807  0.042212058   0.12125829 
   42700   -950.46628    45.803032   -904.66325    1640.4985    4949.5894    2.1971559   0.25947513   0.10818055 
   42800   -941.21745    42.109638   -899.10781    1508.2145    3923.0856    2.1772711  0.076014078   0.12971826 
   42900   -939.25182    41.845739   -897.40608    1498.7626   -5369.6187    2.1533375   0.11356526   0.15503419 
   43000   -942.98529     49.62641   -893.35888     1777.438    1268.2618    2.1714479  0.052519359   0.13517843 
   43100   -940.27487    57.459761   -882.81511    2058.0002    10377.159    2.1828711   0.10369595   0.14610013 
   43200   -938.61129    45.207533   -893.40376    1619.1699   -3585.2663    2.1519155  0.042573768   0.15336786 
   43300   -943.07667    45.657999   -897.41867    1635.3039   -17529.474    2.1286759   0.20330886   0.13876771 
   43400   -949.08213    50.952739   -898.12939    1824.9423    8336.7236    2.2022539   0.18332554   0.14124526 
   43500   -951.21866    48.883496   -902.33516    1750.8295    11051.959    2.2113247   0.13064767   0.12271163 
   43600   -939.38457    47.967673   -891.41689    1718.0281   -9315.9911    2.1357494  0.099800666   0.13956494 
   43700   -940.78718    44.744057   -896.04312    1602.5699   -129.49556    2.1669832  0.011772156   0.13342986 
   43800   -946.80723    47.939453   -898.86778    1717.0173    8404.2233    2.1976886  0.038454409   0.13102279 
   43900   -946.91057    46.905836   -900.00474    1679.9969   -1633.6757    2.1754521  0.064256801   0.13633801 
   44000   -940.36126    50.040824   -890.32044    1792.2808   -10366.176    2.1330337   0.39199549    0.1463248 
   44100   -946.35338    47.605013   -898.74837    1705.0389    5938.4825    2.1910613   0.10997889   0.13911504 
   44200   -945.13099     45.93485   -899.19614    1645.2197    7789.9226    2.1906568   0.13363576   0.12817985 
   44300   -941.92146    48.314035   -893.60743    1730.4335   -6849.7277    2.1469798   0.29798191   0.13696045 
   44400   -942.38512    49.096258   -893.28886    1758.4499   -6404.3151    2.1502544  0.083762039    0.1265022 
   44500   -949.52967    49.692466   -899.83721    1779.8039     7693.229    2.1992301  0.036069229   0.12516866 
   44600   -944.81191    47.645122   -897.16678    1706.4755    1340.9735    2.1778758   0.22328597   0.12667249 
   44700   -939.63191    45.693419   -893.93849    1636.5726   -5575.6613    2.1432348   0.13359282   0.12969201 
   44800    -949.8375    45.563175   -904.27432    1631.9077     4755.302    2.1937858  0.077782207   0.11420862 
   44900   -946.16003    47.763373   -898.39665    1710.7108    5064.9353    2.1849879  0.013907545   0.11800951 
   45000   -940.78523    44.628166   -896.15706    1598.4191   -2985.1837    2.1614071   0.13386464    0.1375032 
   45100   -944.05322    40.188127   -903.86509     1439.393   -182.03604    2.1749444   0.15873939   0.14065139 
   45200   -945.59521    44.096073   -901.49913    1579.3614    3864.5769     2.186215   0.19429584   0.12427884 
   45300   -942.76203    47.118366   -895.64366     1687.609    1474.3808    2.1710625  0.070011168   0.12559866 
   45400    -947.4733    46.815154   -900.65815     1676.749   -3892.3519    2.1687514   0.06477746   0.12010688 
   45500   -946.97408    43.351354   -903.62272    1552.6883   -33.682298    2.1809835  0.067606384   0.12143657 
   45600   -939.09302    44.509932   -894.58309    1594.1844    2654.5684    2.1683754   0.14304063    0.1463836 
   45700   -942.85746    44.009134   -898.84832    1576.2476    1302.0726    2.1741605  0.085898293   0.12172758 
   45800    -946.9595    43.964247   -902.99525    1574.6399    -231.4152    2.1791502  0.034473848   0.12078363 
   45900   -944.99579    52.085308   -892.91048    1865.5068   -1693.0929    2.1646951  0.030441735    0.1255313 
   46000   -945.60002    48.505746   -897.09427    1737.2999    2637.8381    2.1803674    0.1017879   0.13156212 
   46100   -946.81323    45.503301   -901.30993    1629.7632   -391.06274    2.1781491   0.24513631   0.14152394 
   46200   -942.06708    49.435956   -892.63112    1770.6167   -3741.1808    2.1561306  0.083111398   0.13542764 
   46300   -944.27116    48.105926   -896.16523    1722.9798    1074.3335    2.1752052   0.12933498   0.11896905 
   46400   -948.27275     47.88889   -900.38386    1715.2064    1566.4405    2.1813204   0.16550029   0.11729113 
   46500    -943.1322    47.649519   -895.48268     1706.633   -2589.3728    2.1597939  0.081036137   0.12878234 
   46600   -942.11595    49.429683   -892.68627     1770.392    -5074.369    2.1532557  0.097684044   0.14047069 
   46700   -942.51734    41.397914   -901.11943    1482.7231    10933.565    2.1953281   0.10940921   0.13112123 
   46800   -944.44856    47.450778   -896.99779    1699.5148    4410.5246    2.1813141  0.047563534   0.13101357 
   46900   -945.53975    50.119786   -895.41996     1795.109   -12222.866    2.1412255   0.20910936   0.12420304 
   47000   -947.93779    42.812794     -905.125     1533.399    2316.1932    2.1846835    0.2115232   0.11984546 
   47100   -944.53837    46.374247   -898.16412    1660.9573    7910.5762    2.1954428   0.14989069   0.13541832 
   47200   -943.13514     46.51663   -896.61851     1666.057   -2558.5742    2.1622153   0.53952195   0.12302069 
   47300   -948.25973    45.459036   -902.80069    1628.1778    -9332.826    2.1562863  0.069250177   0.10762092 
   47400   -947.87448    45.613628   -902.26085    1633.7147    6270.0913     2.192125  0.039002215   0.10556349 
   47500   -940.09786    45.453474   -894.64438    1627.9786    9107.4096    2.1846829   0.10341725   0.12659445 
   47600   -946.56829    46.652332   -899.91596    1670.9173   -8980.8472    2.1552737   0.08690083    0.1186101 
   47700    -949.5052    46.591989   -902.91321    1668.7561   -6183.5949    2.1700121  0.054697166   0.12620938 
   47800   -941.63103    48.922334   -892.70869    1752.2206    7060.5125    2.1807607  0.071037557    0.1308207 
   47900   -943.15786    46.569778   -896.58809    1667.9606    4381.2351    2.1824251  0.010823392   0.12400603 
   48000   -945.84736    44.380161    -901.4672    1589.5364   -7310.8474    2.1588966  0.027111248   0.12879865 
   48100   -941.17577    47.629092   -893.54668    1705.9013   -598.28337    2.1619734   0.16443928   0.12987002 
   48200   -943.66622    49.795345   -893.87088    1783.4887    7710.5572    2.1896814  0.092671181   0.12367523 
   48300   -941.65854    41.397707   -900.26084    1482.7157    1959.3695    2.1740688   0.12710189   0.11943817 
   48400   -946.28166      49.1183   -897.16336    1759.2394   -8055.1889    2.1574333  0.076421403   0.11641002 
   48500   -938.52022    48.011199   -890.50902     1719.587    3935.1082    2.1700569  0.029338798   0.13323935 
   48600   -948.77031    48.123157   -900.64715     1723.597    9342.4274     2.200895  0.031661906   0.11495902 
   48700   -946.69523    47.640462   -899.05477    1706.3086   -9215.7196     2.150138  0.048247451    0.1296834 
   48800   -941.73273    46.306804   -895.42593    1658.5418   -9894.6943    2.1420802   0.28977641   0.14257534 
   48900   -950.17873    47.104803   -903.07393    1687.1232    20181.768    2.2356473   0.24699896   0.12449899 
   49000   -946.43813    44.391621   -902.04651    1589.9469    4027.4529    2.1902913   0.18347983   0.11991279 
   49100   -939.06004    41.087302   -897.97274    1471.5981   -19618.124    2.1142415   0.20767564    0.1454122 
   49200   -943.16251    47.148064   -896.01445    1688.6727    1516.3504    2.1721079  0.052339152   0.11560113 
   49300   -946.26467    43.267445   -902.99722     1549.683    12272.627    2.2067808  0.036331252   0.13022335 
   49400   -945.84549    44.536121   -901.30937    1595.1223   -3392.1315     2.167757  0.019415432    0.1170412 
   49500   -941.26675    45.078465   -896.18829    1614.5471   -6586.6821    2.1494578  0.026951804   0.12657876 
   49600    -944.7259    45.747032   -898.97887    1638.4928    2758.4109    2.1807131    0.2313103   0.12825773 
   49700   -950.54148     47.86729   -902.67419    1714.4327    4732.0608    2.1949806    0.1589078   0.11608208 
   49800   -940.17009    48.065088     -892.105    1721.5171   -7923.8215    2.1451498  0.061843992   0.14458332 
   49900   -948.52235    51.693225   -896.82912    1851.4639   -4491.0796     2.167382   0.21285921   0.13464386 
   50000   -948.09871    48.572274   -899.52644    1739.6827    6688.3666    2.1930559   0.17960962   0.12212719 
   50100    -942.4376    45.073156   -897.36444     1614.357   -1223.7745    2.1668644  0.062890898   0.14050838 
   50200   -940.88212    49.014244   -891.86788    1755.5125    -10722.47    2.1364352   0.13191946   0.13769206 
   50300   -945.53096    46.008726   -899.52223    1647.8657    4293.7953    2.1820036   0.09267764   0.11059798 
   50400   -947.36033    48.891139   -898.46919    1751.1033    9752.9486    2.1975069   0.12772211   0.10449687 
   50500   -941.71071    51.035577   -890.67513    1827.9093   -6807.4288    2.1444088   0.28326643   0.13060808 
   50600   -945.80103    47.282441   -898.51859    1693.4856   -9929.5535    2.1537435    0.2323717   0.13087259 
   50700   -950.29517    50.737678   -899.55749    1817.2396    3953.9535    2.1903682   0.19292101   0.12540846 
   50800    -945.8315    50.547167   -895.28433    1810.4162    7861.2823    2.1864696  0.099310387   0.13151069 
   50900   -940.18488    46.409911   -893.77497    1662.2347    -10357.31    2.1368056   0.10171002   0.13109598 
   51000   -948.53202    44.986816    -903.5452    1611.2646   -723.00901    2.1773295  0.036096558   0.13449562 
   51100   -948.25988    50.903659   -897.35622    1823.1845    10959.077    2.2043312  0.071862727    0.1225452 
   51200   -942.00398    45.651594   -896.35239    1635.0745   -1801.9697    2.1634106   0.10088103    0.1247695 
   51300   -943.48147    42.088723   -901.39275    1507.4654   -10569.975    2.1478591  0.011295608   0.11907976 
   51400   -949.35061    46.236273   -903.11434    1656.0156    3613.2761    2.1902427   0.24498176   0.10637801 
   51500   -942.60788    46.659919   -895.94796    1671.1891     5267.393    2.1821446   0.30486281   0.12507141 
   51600   -942.99213    44.486881   -898.50525    1593.3587    -3415.204    2.1647755  0.020209353   0.15006786 
   51700   -947.61469    41.821409   -905.79328    1497.8912    489.94357    2.1843335   0.24255327   0.12786121 
   51800   -945.25717    48.630166   -896.62701    1741.7562    1953.2638    2.1760125  0.011069231   0.12561656 
   51900   -944.18155    47.294634   -896.88691    1693.9223    2899.7511     2.174432   0.12426491   0.13897009 
   52000    -946.9232     44.11398   -902.80922    1580.0028   -2906.5758    2.1740933  0.047973216   0.12724163 
   52100   -947.73073    47.130649   -900.60008    1688.0489    54.987173    2.1768668  0.069007858   0.11980129 
   52200    -945.8704    51.438609   -894.43179    1842.3444    545.18592    2.1692038   0.22749584   0.11493575 
   52300   -943.37845    43.989713   -899.38874     1575.552   -1741.2064    2.1662357   0.13574411   0.10883117 
   52400   -946.29593    45.999006   -900.29693    1647.5176    933.45254    2.1751989   0.10767372   0.12005912 
   52500   -940.09677     49.88546   -890.21131    1786.7163    2842.3466    2.1634862   0.17580718   0.14438601 
   52600   -945.97077    48.683977    -897.2868    1743.6835    2597.5688    2.1771875   0.13404909   0.13610805 
   52700   -947.18476    46.648115   -900.53664    1670.7663    -5672.654    2.1657241   0.05359319   0.14273014 
   52800   -938.68201    45.782603   -892.89941    1639.7668   -1392.9245    2.1595072   0.13921871   0.13871104 
   52900   -942.54792    48.163125   -894.38479    1725.0285    5152.3662    2.1788911  0.020439411   0.11868405 
   53000   -946.10288    45.861975   -900.24091    1642.6096   -1845.4471    2.1705552   0.28427377   0.12369615 
   53100   -946.00981    48.702538   -897.30727    1744.3483   -5232.4899    2.1590688  0.060623422   0.12072599 
   53200   -938.35403    47.901038     -890.453    1715.6415    3636.8757    2.1634139   0.16345177   0.13774927 
   53300   -946.77158    46.078157   -900.69343    1650.3525    6065.1531    2.1926433   0.19223805   0.12614452 
   53400   -945.18302    45.574409   -899.60861      1632.31   -9198.5768    2.1471222 0.0094629539     0.116185 
   53500   -941.79381    46.003635   -895.79018    1647.6834   -3390.4861    2.1510859  0.032547264   0.13503093 
   53600   -947.42468    43.374398   -904.05028    1553.5137    13049.742    2.2081466    0.1170751   0.12191101 
   53700   -947.02017    45.019324   -902.00085    1612.4289    603.35816     2.175571   0.34180354   0.11827403 
   53800   -943.24929    45.640322   -897.60897    1634.6708   -9375.7738     2.140447 0.0093455662   0.13221881 
   53900   -945.06361    47.792129   -897.27148    1711.7407    2161.5471    2.1750554   0.12423874   0.11486633 
   54000   -948.40258    43.280975   -905.12161    1550.1676     11756.51    2.2090324  0.097793486   0.11589286 
   54100   -942.02157    45.790565     -896.231     1640.052   -7604.6257    2.1481327  0.060277083   0.14180622 
   54200   -944.58637    47.336027   -897.25034    1695.4048   -5784.9931    2.1575746   0.04924296   0.11748707 
   54300   -942.79078     41.64337   -901.14741    1491.5145    7278.6742    2.1879073  0.039417785   0.12524539 
   54400   -947.78006     45.09361   -902.68645    1615.0896    832.75379    2.1819756  0.012522497   0.11496566 
   54500   -940.29914    46.732505   -893.56663    1673.7888   -6786.8278    2.1417725    0.1973422   0.12973328 
   54600   -941.69563    43.317521   -898.37811    1551.4765    2249.7254    2.1708945  0.081312622   0.13529298 
   54700    -944.9835    45.137936   -899.84557    1616.6772    6854.1687    2.1863485   0.15362124   0.12962321 
   54800   -940.88611    50.841771   -890.04434    1820.9679   -3405.8494    2.1554642   0.12051211   0.13490883 
   54900    -944.8159    47.693279   -897.12262    1708.2003   -1623.0033    2.1674877   0.16794999   0.11410091 
   55000   -947.55519    47.629806   -899.92538    1705.9269    425.05343    2.1763134   0.20278366   0.09921615 
   55100   -941.52349     47.01924   -894.50425    1684.0587    5196.5361    2.1745478   0.12821038   0.12463441 
   55200   -940.41199    47.656109   -892.75588     1706.869   -2349.9041    2.1539402  0.058489645    0.1288343 
   55300   -946.43174    45.237476   -901.19427    1620.2423   -327.23846    2.1698275  0.057982025   0.12355222 
   55400   -945.86555    48.904904   -896.96064    1751.5963    6973.0076    2.1858367  0.057774217   0.10954561 
   55500   -942.12059    47.632939   -894.48765    1706.0391    1423.5042    2.1644601   0.44352984   0.10770306 
   55600   -945.26561    41.090503    -904.1751    1471.7128   -7117.1563     2.153675   0.11807163   0.12151938 
   55700   -947.75598    46.391154   -901.36483    1661.5629   -1370.5676    2.1720658  0.044600395   0.11587425 
   55800   -946.86828    51.432322   -895.43596    1842.1192    12991.953    2.2002528   0.22194601   0.12342786 
   55900   -945.96921    45.826726   -900.14248    1641.3471   -5521.5781     2.156885   0.14667316   0.11789381 
   56000   -949.79546    42.514694   -907.28077    1522.7221   -12456.959    2.1493675   0.10398556   0.10614377 
   56100   -946.24831     47.60035   -898.64796    1704.8719    5457.0194     2.187079   0.19838134   0.12927853 
   56200   -943.53996    47.027815   -896.51214    1684.3658    10989.178    2.1914922   0.44180749   0.13219575 
   56300   -946.29513    46.266654   -900.02848    1657.1037   -6561.2068    2.1556274   0.38937019   0.11555109 
   56400   -952.11024     44.75037   -907.35987     1602.796   -4268.6253    2.1780146   0.25545885   0.11687386 
   56500   -945.18551    47.356879   -897.82863    1696.1517    4396.4628    2.1777297  0.059018184   0.11879255 
   56600   -944.88044    47.477003   -897.40344    1700.4541     291.4405    2.1729723   0.04070504   0.12357294 
   56700   -943.95835    42.335541   -901.62281    1516.3056   -1473.0902    2.1650131   0.14656611   0.14145265 
   56800   -949.94713    43.466538   -906.48059    1556.8138    719.75954    2.1858623  0.064696736   0.12677893 
   56900   -947.13388    50.285136   -896.84874    1801.0312   -2524.1261    2.1674159  0.044394373   0.12080887 
   57000   -948.19494    50.275051   -897.91989      1800.67   -3008.5322    2.1688603  0.064931667   0.11578631 
   57100   -949.07134    47.427563   -901.64378    1698.6833   -3056.9501    2.1749489   0.21579434   0.12775503 
   57200   -951.22708    42.389304   -908.83777    1518.2311    842.72956    2.1892737   0.10212736   0.11326398 
   57300   -945.43602    46.549833   -898.88618    1667.2462   -4063.1885     2.160827  0.068306949   0.12899364 
   57400   -946.38496    48.155834   -898.22913    1724.7673    415.24731    2.1766832   0.21130776   0.11911391 
   57500   -946.46359    48.776823   -897.68677    1747.0089    5904.1614    2.1863596   0.17922639   0.11742285 
   57600    -947.9297    53.255522   -894.67418    1907.4197   -10276.993    2.1468375   0.32188225    0.1221145 
   57700   -936.83535    48.065313   -888.77004    1721.5252   -7313.2277    2.1309437  0.034883433   0.14027005 
   57800   -947.55665    51.037303   -896.51935    1827.9711    7689.9374    2.1917833  0.079306028   0.12842626 
   57900   -947.16256    49.241755    -897.9208    1763.6611    4834.5656    2.1865173  0.077223945   0.12719884 
   58000   -944.34566    44.290179   -900.05549    1586.3136   -10542.691    2.1421163   0.13318878   0.11750215 
   58100   -952.78845     43.05038   -909.73807    1541.9085   -845.70868    2.1843868   0.20768674   0.11402944 
   58200   -947.10094    45.572714   -901.52823    1632.2494    7699.2782    2.1962536  0.045136309   0.12552965 
   58300   -942.75569    44.332528   -898.42316    1587.8304    1588.5309    2.1723507   0.13760719   0.12526374 
   58400   -942.98339    44.927923   -898.05547    1609.1553   -8594.8063    2.1516019   0.23700701   0.15348334 
   58500   -946.46942    44.912147   -901.55727    1608.5902    1987.4489    2.1836464  0.085422367   0.13332888 
   58600   -952.29602    46.516957   -905.77907    1666.0687    7648.8221      2.20973   0.11069774    0.1249605 
   58700   -946.87424    48.288341    -898.5859    1729.5132   -5820.3807    2.1633491   0.02260336   0.13405856 
   58800   -944.76427    47.046095   -897.71817    1685.0205    -7312.989    2.1521516  0.093038046   0.12034079 
   58900   -943.46948    44.323445   -899.14603    1587.5051     8924.542    2.1922713  0.061990401   0.12329171 
   59000    -951.4073    44.007891   -907.39941    1576.2031     6240.296    2.2064466   0.20783564   0.12933235 
   59100   -943.38595    44.549977   -898.83597    1595.6186    -6989.992    2.1489741  0.044717565   0.13280711 
   59200   -941.56767    44.057076    -897.5106    1577.9647    1017.2902    2.1675167  0.088321879    0.1280139 
   59300   -944.92798    44.892311   -900.03567    1607.8798    7156.8954    2.1937298   0.24427482   0.14194032 
   59400   -950.07217    41.189977    -908.8822    1475.2756    1710.1826    2.1891511   0.15434941   0.11966041 
   59500   -943.27008    43.591045   -899.67903    1561.2731   -4721.0301    2.1598301  0.060072232   0.13546474 
   59600   -946.28869    48.589497   -897.69919    1740.2996    3292.6741    2.1827961   0.10664887   0.12915684 
   59700   -944.56832    46.335099   -898.23322    1659.5552    3012.0157    2.1821077   0.19876404   0.11245303 
   59800   -946.76097    43.553618   -903.20735    1559.9326   -5393.5306    2.1658433  0.041700845   0.13247592 
   59900   -949.90706    43.775434   -906.13163    1567.8773     560.6809    2.1854735  0.064806131   0.12774911 
   60000    -945.8948    46.630879   -899.26393     1670.149    9056.4517    2.1972617   0.13720218   0.13931433 
   60100    -944.1443    46.793984   -897.35032    1675.9908   -2633.8122    2.1675437  0.079527588   0.12818536 
   60200   -942.36886    45.564025   -896.80483    1631.9381   -7177.2586    2.1539558  0.063033387    0.1325428 
   60300    -950.2192    43.866741   -906.35246    1571.1476    7797.8416    2.2082628   0.11987604   0.13465824 
   60400   -945.45707     46.90218   -898.55489     1679.866    2163.5804    2.1829535  0.069165998   0.13595323 
   60500   -945.07493    47.576113   -897.49882    1704.0038   -9821.7738    2.1489518   0.13184034   0.12081149 
   60600    -947.5208    48.951964   -898.56884    1753.2818   -1667.8003    2.1715458  0.012662595   0.11433728 
   60700   -951.51933    45.405715   -906.11361     1626.268    12105.061    2.2165626   0.19491364   0.11068303 
   60800   -943.93691    46.906318   -897.03059    1680.0142   -7046.2828    2.1576063   0.28635126   0.14117781 
   60900   -945.74934     47.89071   -897.85863    1715.2716   -8614.4626    2.1552275  0.087782729    0.1430367 
   61000   -949.68577    49.378203   -900.30757    1768.5482    3870.9703    2.1935733  0.033682207   0.12716292 
   61100   -953.03422    44.464224      -908.57    1592.5472    2928.4219    2.1981291  0.046977788   0.11959408 
   61200   -943.70057    44.665771    -899.0348    1599.7659   -4456.2813    2.1609137   0.20293582   0.14488844 
   61300   -941.89843    44.015134    -897.8833    1576.4625    2372.7685    2.1792262   0.22738108   0.14939786 
   61400   -944.05437    45.903364     -898.151     1644.092    4940.4618    2.1831327   0.23818441   0.11928498 
   61500   -950.56633    46.841506   -903.72482    1677.6929   -5684.1686    2.1726375   0.36011947   0.10342166 
   61600   -950.48277    44.529779   -905.95299    1594.8952   -2071.9369    2.1820595   0.28567298   0.10446415 
   61700   -946.31166    47.320865   -898.99079    1694.8618    5466.6865    2.1901772   0.16026854   0.12676694 
   61800   -944.25657    47.227565   -897.02901    1691.5201   -1569.2771    2.1679883  0.096419141   0.13043558 
   61900   -942.68815    45.691691   -896.99646    1636.5107   -5373.9133    2.1568043   0.25716722    0.1348847 
   62000   -953.36106    46.891762    -906.4693    1679.4928    5778.0434    2.2020725   0.37110212   0.12473699 
   62100   -942.50848    43.673721   -898.83476    1564.2343    4058.2079    2.1769485  0.047040993   0.12873521 
   62200   -941.68679    44.263035   -897.42375    1585.3414   -6996.2484    2.1504172  0.026866023   0.12218744 
   62300   -944.73032    47.676413   -897.05391    1707.5962   -675.82947    2.1695341  0.053756865   0.10919703 
   62400   -949.55715    43.148434   -906.40871    1545.4204    13146.302    2.2154509  0.054014376  0.098894583 
   62500   -945.85102    47.285175   -898.56585    1693.5835   -5498.8824    2.1531687   0.12419236    0.1048869 
   62600   -943.12491    45.249508    -897.8754    1620.6733   -10330.097    2.1415808   0.13257259   0.12529596 
   62700   -945.24679    47.886169   -897.36062    1715.1089    11733.842    2.1993393   0.10871662   0.11673479 
   62800   -956.14005    49.221565   -906.91849     1762.938    6469.4771    2.2095392  0.054209574   0.11670764 
   62900     -941.835    43.240397    -898.5946    1548.7142   -11256.428    2.1378706  0.060063577   0.14371286 
   63000   -946.13656    48.561144   -897.57541    1739.2841   -2030.7546    2.1699443  0.081631702   0.12783442 
   63100   -946.78252     48.14569   -898.63684     1724.404    6733.4117    2.1932535   0.11523052   0.12222572 
   63200   -946.68937    41.466972   -905.22239    1485.1965   -1282.9256    2.1739884   0.28155166    0.1132693 
   63300   -944.39108    39.417577   -904.97351    1411.7946   -1184.0047    2.1756437    1.3609552    0.1289172 
   63400   -944.47896    45.760825   -898.71813    1638.9868    6105.2154    2.1881204   0.10080042    0.1212902 
   63500   -944.79926    47.115056    -897.6842    1687.4905    1101.4206    2.1722976   0.21318519    0.1211421 
   63600   -939.47873     47.94281   -891.53592    1717.1376   -1230.4651    2.1583656    1.9791121   0.15223927 
   63700   -938.99806     49.55126    -889.4468    1774.7464    1391.9817    2.1676098    2.6657348   0.16118232 
   63800   -944.19228      46.7257   -897.46658    1673.5451   -1609.3254     2.166758    4.6568149    0.1533272 
   63900   -940.62667    44.606188   -896.02048    1597.6319    4154.1577    2.1806913    2.1460837   0.16241009 
   64000    -938.7911    48.444731   -890.34637    1735.1146    501.93047    2.1604205   0.13599118   0.13758335 
   64100   -944.74283    45.657637    -899.0852     1635.291   -3582.6397     2.162177  0.068157054   0.12625474 
   64200   -945.09328    45.350809   -899.74247    1624.3015    -937.3506    2.1693849   0.16112814   0.12431815 
   64300   -946.85043    49.977642   -896.87279    1790.0179     8175.142    2.1963337  0.021379958   0.11660363 
   64400   -948.99534    49.360118   -899.63522    1767.9004   -3391.5644    2.1704936 0.0079048024   0.11718808 
   64500   -948.49307    41.219368   -907.27371    1476.3283   -8587.3864    2.1602396  0.017509809   0.11595853 
   64600   -944.66128    44.690108   -899.97117    1600.6376    5140.4314    2.1863927   0.27530116   0.13054835 
   64700   -942.37961    45.963615     -896.416      1646.25    10196.798    2.1953175  0.087762745    0.1339411 
   64800   -944.51521     44.37292   -900.14229    1589.2771   -8497.5106    2.1523527  0.041940543   0.11346246 
   64900   -949.45338    42.301525   -907.15186    1515.0872   -4446.3673    2.1714714  0.076225307   0.11465076 
   65000   -944.34201     46.42106   -897.92095     1662.634      7997.24    2.1917464  0.012775141   0.13495324 
   65100   -945.44227    48.068397   -897.37388    1721.6357    2825.5461    2.1797345   0.15501309   0.13232182 
   65200   -945.39844    44.007228   -901.39121    1576.1793     -8604.35    2.1534732   0.14683215   0.12702644 
   65300   -949.65464    43.206686   -906.44796    1547.5068       1901.4    2.1884585   0.10080298    0.1039287 
   65400   -944.83972    48.524721     -896.315    1737.9795    3953.7642    2.1780326   0.04191994   0.10859931 
   65500   -944.71643     46.97024   -897.74619    1682.3037   -2303.6156    2.1683017   0.23741802   0.12101192 
   65600   -946.38323    46.263333    -900.1199    1656.9848   -2007.3762     2.174335   0.22208518   0.12333986 
   65700   -950.62983    42.415439   -908.21439    1519.1672    434.75591    2.1916683  0.038619076   0.12413972 
   65800   -946.41574    45.014955   -901.40078    1612.2724    740.52823     2.180265  0.026639424   0.12250826 
   65900   -945.46849    47.072733   -898.39576    1685.9746    1417.3879    2.1780457  0.014561866   0.12016973 
   66000   -943.63413    45.676034    -897.9581    1635.9499   -1771.4564    2.1716669   0.02988354   0.14609873 
   66100   -943.18055    47.248042   -895.93251    1692.2535   -408.19226    2.1671801   0.24451197   0.12165503 
   66200   -940.42442     53.94535   -886.47907    1932.1268   -5301.3386    2.1468576   0.44851513   0.11207597 
   66300   -943.08329    47.302486   -895.78081    1694.2035    5659.3146    2.1789431  0.034503748   0.10221051 
   66400   -945.03492    46.750358   -898.28457    1674.4283      1660.62    2.1756531   0.10894632  0.095405896 
   66500   -947.80606    47.506254    -900.2998    1701.5018   -7596.1921    2.1590711  0.051892455   0.11403477 
   66600   -950.44336    42.227774   -908.21559    1512.4457    1610.1886    2.1840673   0.11566467   0.11978947 
   66700   -949.49399    44.710567   -904.78343    1601.3704    5745.3901    2.1984602    0.0533144   0.12592703 
   66800   -946.77187    47.470577    -899.3013    1700.2239    682.42771    2.1789171  0.016253097   0.12309654 
   66900   -943.63058    45.696353   -897.93422    1636.6777   -11724.228    2.1399711  0.045099584   0.12910793 
   67000   -941.30733    48.542169   -892.76516    1738.6044    2057.2855    2.1710753   0.08596491   0.12012791 
   67100   -947.67786    46.166827   -901.51103    1653.5283    14965.301    2.2196809   0.10785486   0.11681647 
   67200   -945.01862    43.471423    -901.5472    1556.9887   -11608.654    2.1456475   0.18941476   0.13638961 
   67300   -943.72218    45.209594   -898.51258    1619.2437   -7095.0592    2.1503209    0.2889566   0.10597991 
   67400   -941.38758    47.522253   -893.86533    1702.0748    11036.118    2.1927633  0.059738437   0.11808933 
   67500    -941.3047    39.158852   -902.14585    1402.5281    3659.3264    2.1789186   0.16956009   0.13235252 
   67600   -946.80904    44.837566   -901.97148     1605.919   -6943.1766    2.1581171   0.29994662    0.1297145 
   67700   -943.71031    47.650554   -896.05976      1706.67    3331.5729    2.1712859   0.19015468   0.12736361 
   67800   -944.20953    44.590049   -899.61948    1597.0539    6305.5488    2.1847676   0.14302517   0.12953655 
   67900   -944.97921    39.444675   -905.53454    1412.7652    1250.1514    2.1803862    0.3978401   0.12677594 
   68000   -944.79838     48.04775   -896.75063    1720.8962    -5670.319    2.1533647   0.11970585   0.11435198 
   68100   -944.47072    46.792524   -897.67819    1675.9385    3303.2356     2.175473   0.21960987    0.1201334 
   68200   -948.08043    43.797666   -904.28276    1568.6736    6534.7301    2.1954211   0.31598991   0.11372326 
   68300   -944.39777    48.959598   -895.43817    1753.5553   -5674.3746    2.1560957  0.098107067   0.12519819 
   68400   -940.07358    43.765299   -896.30828    1567.5143    477.26387    2.1639857  0.081690507   0.13398908 
   68500   -945.94752    45.544012   -900.40351    1631.2214    5026.7514    2.1862095 0.0090019378   0.12791122 
   68600   -946.05751    44.559248   -901.49826    1595.9507    3406.3664    2.1800895  0.084494333   0.12809193 
   68700   -940.58293    48.148449   -892.43448    1724.5028   -11587.994    2.1306946  0.044023406   0.13675525 
   68800   -943.90319    44.692814   -899.21037    1600.7345    3193.6335    2.1803706   0.27818119   0.13446518 
   68900   -947.53498     48.96008    -898.5749    1753.5725    14198.139    2.2113344  0.023667955   0.12318035 
   69000   -942.82932    50.497601   -892.33172    1808.6409   -8909.2087    2.1421939  0.066878715   0.13192414 
   69100   -938.48395    43.646259   -894.83769    1563.2507    -10352.65    2.1317097  0.021608213   0.12850526 
   69200   -942.02467    42.843784   -899.18088     1534.509    10770.851    2.1929915  0.010599229   0.12678981 
   69300   -941.64596    44.548922   -897.09703    1595.5808    11011.296    2.1890393  0.033307862   0.14487524 
   69400   -937.27612    45.282389   -891.99373     1621.851   -5729.7196    2.1398796   0.27445816    0.1513863 
   69500   -948.65771    45.980051   -902.67766    1646.8387   -2319.3866    2.1758263  0.033557609   0.11960148 
   69600   -945.91338    47.108855   -898.80453    1687.2683    6016.9059    2.1824006  0.004808319   0.11133306 
   69700   -941.68411    47.087551   -894.59656    1686.5053    1719.1262    2.1654067   0.17975326   0.11772242 
   69800   -946.65027     45.02187    -901.6284    1612.5201   -5824.6214    2.1655222   0.14692997   0.13647598 
   69900   -945.99785    43.969431   -902.02842    1574.8256    1789.5641     2.178735  0.034896097   0.12770531 
   70000   -948.29196    52.690932   -895.60103    1887.1981    272.58964    2.1770101   0.20017552   0.13056027 
   70100   -946.34203    47.199046   -899.14298    1690.4987   -2783.0374    2.1666554  0.049794875   0.11536009 
   70200   -950.16076    45.310809   -904.84995    1622.8689   -2143.0543    2.1740807  0.044148304   0.11030689 
   70300   -944.97017    49.031997   -895.93817    1756.1483    3126.4459    2.1743409  0.059347862   0.11899445 
[...]
  186800    -946.8274    44.366413   -902.46099     1589.044    1666.0741    2.1815988    86.053893   0.13861999 
  186900   -943.86237    45.672442   -898.18993    1635.8213    2587.0416    2.1767969    81.588302   0.12793389 
  187000   -941.27812    47.150663   -894.12746    1688.7658   -1869.0516    2.1600147    84.544481   0.13001682 
  187100   -950.39314    46.589261   -903.80388    1668.6584   -2220.3433    2.1777417    79.739889   0.11022884 
  187200   -943.72104    43.793508   -899.92753    1568.5247    2122.0382    2.1743292     82.86972   0.11019709 
  187300    -941.8873    46.745788   -895.14152    1674.2646    -626.3099    2.1689896    84.094959    0.1272614 
  187400    -948.2237    45.522849   -902.70085    1630.4634   -2148.1762     2.173034      82.0702     0.106493 
  187500   -947.37309    46.136331   -901.23676    1652.4361   -3679.3557    2.1634285    81.350012   0.11743907 
  187600   -942.78045    47.791984   -894.98846    1711.7355    8321.5053    2.1870262    80.202424   0.12907824 
  187700   -947.83793    47.742848   -900.09508    1709.9757   -211.65986    2.1782541    82.593073   0.13408997 
  187800    -946.9696    41.929857   -905.03974    1501.7754   -11391.422    2.1516601    80.523734   0.13458625 
  187900   -942.33028    46.667598   -895.66268    1671.4641    1880.3395    2.1708678    83.866524   0.13268558 
  188000   -945.91353    50.333487   -895.58005     1802.763    13311.137    2.2036556    84.690552   0.12430401 
  188100   -946.58866    45.297789   -901.29087    1622.4025   -7085.7723    2.1627425    85.889908    0.1349445 
  188200   -937.63744    43.272825   -894.36462    1549.8757   -5740.1557    2.1415943    88.957024   0.13442941 
  188300   -943.71296    51.101071   -892.61189     1830.255    4540.2746    2.1829342    81.150907   0.13446465 
  188400   -943.32761    44.739643   -898.58797    1602.4118    4377.4403    2.1847515    84.083135   0.13201425 
  188500    -946.9016    47.613087   -899.28851    1705.3281   -8773.6314    2.1537722    77.503849   0.13614395 
  188600   -942.45768    52.217461   -890.24022    1870.2401   -5716.8305    2.1549761    79.922043   0.15383575 
  188700   -946.75751     48.38715   -898.37036    1733.0522    8593.7665    2.2010444    85.439858   0.15968016 
  188800   -945.23049    45.425364   -899.80513    1626.9718   -2754.7661    2.1662981    83.818146   0.14070447 
  188900   -944.85886    49.188277   -895.67058    1761.7457   -9121.7667    2.1483711    81.665824   0.13896229 
  189000    -941.6842    51.792426   -889.89177    1855.0169    5586.3017    2.1755957    82.497946   0.12270194 
  189100   -946.77301    46.017798   -900.75522    1648.1907    8275.3634    2.1997546    81.512634   0.12808994 
  189200   -941.16066    41.854461   -899.30619     1499.075   -7056.3461    2.1547048    79.511561   0.15210745 
  189300   -941.13648     45.05552   -896.08096    1613.7253   -2166.7709    2.1629774      79.7553   0.13282021 
  189400   -945.60765    42.568038   -903.03961    1524.6327    8623.6533    2.1989989    83.728679   0.12658167 
  189500   -948.53603    45.201188   -903.33484    1618.9426    242.73035    2.1830729    77.065561   0.12649025 
  189600    -948.4848    50.862266   -897.62253    1821.7019   -6406.5435    2.1609437    83.869434   0.13106661 
  189700   -943.86343    46.741053   -897.12238     1674.095   -247.30823    2.1711043    83.855819   0.14796153 
  189800   -950.50838    44.641134   -905.86724    1598.8835    4844.3083    2.1958751    78.187342   0.13103819 
  189900    -944.1973    46.641969   -897.55533    1670.5462   -2056.2416    2.1656876    80.330412   0.13087644 
  190000   -943.88472    47.029935   -896.85479    1684.4417   -558.06152    2.1675425     84.27338   0.12910161 
  190100   -945.34572    43.597568   -901.74815    1561.5068    4657.1234    2.1848818     82.94116   0.13254464 
  190200   -948.98229    43.795913   -905.18638    1568.6108    1958.9059    2.1874514    81.256009   0.12620089 
  190300   -943.09997    47.546084   -895.55389    1702.9283   -7269.0377    2.1492629    92.271927   0.11837925 
  190400     -947.859    49.329336   -898.52966    1766.7979   -1448.8548    2.1739059    82.514111    0.1203032 
  190500   -944.92984    44.501496   -900.42835    1593.8822    8905.1981    2.1964301    81.382438   0.12823899 
  190600    -941.0516    51.230466   -889.82114    1834.8895    -3897.818    2.1503439    83.611224   0.12619613 
  190700    -941.1732    45.125454   -896.04775    1616.2301   -2441.7473    2.1554419    84.877467   0.13276643 
  190800   -944.58221    45.163922   -899.41829    1617.6079    8812.9205    2.1913898     80.62522   0.13074634 
  190900   -948.05192    50.859775   -897.19215    1821.6127    7974.0665    2.1946874    90.135993   0.12706779 
  191000    -942.2842    50.280467   -892.00373     1800.864   -17249.374    2.1218581    82.442071   0.13975983 
  191100   -943.20366    40.733637   -902.47003    1458.9312   -1948.6683    2.1674098    85.928456   0.13285806 
  191200   -948.37097    50.224317   -898.14665    1798.8529    12291.949    2.2093573    78.255404   0.11666755 
  191300   -944.41739    48.911643   -895.50575    1751.8377   -2290.4308    2.1657028    85.473557    0.1199952 
  191400   -944.32789     50.44535   -893.88255    1806.7695   -15979.943    2.1320499    85.423758   0.13212041 
  191500   -946.52674    43.490018   -903.03672    1557.6547    8674.9262    2.1957853      81.8667   0.13059641 
  191600    -942.9332    45.988682   -896.94452    1647.1478    9716.6202    2.1892703    78.914816   0.12942671 
  191700   -945.18271    48.012571   -897.17014    1719.6362   -6948.7484    2.1516319    83.795103    0.1345703 
  191800   -946.75138    40.669095   -906.08228    1456.6195   -557.53112    2.1726081    83.644976   0.12778347 
  191900   -944.89412    44.857803   -900.03632    1606.6438    6450.1645     2.189271    86.232278   0.12813078 
  192000   -944.10994    48.124369   -895.98557    1723.6404    3417.2627    2.1777552    82.481371    0.1244945 
  192100   -947.55103    46.166466   -901.38457    1653.5154   -7958.1558    2.1557536    85.121058    0.1175757 
  192200   -948.43387      44.6442   -903.78967    1598.9933   -297.61649    2.1789236    80.428664    0.1068734 
  192300   -942.82938    48.085274   -894.74411    1722.2401     4264.796    2.1810792    78.045845   0.13271482 
  192400   -944.23079    45.851277   -898.37951    1642.2265   -5215.8849    2.1616497     81.12823   0.13799831 
  192500   -949.45262    46.865285   -902.58733    1678.5445   -6630.2472    2.1646971     83.46647   0.13850919 
  192600    -949.3581    45.437582   -903.92052    1627.4094    7165.4172    2.2007419    85.943819    0.1343665 
  192700    -945.1202    50.524391    -894.5958    1809.6005   -427.33732    2.1687476     80.54285   0.14591454 
  192800   -943.35576    45.461769   -897.89399    1628.2757   -14204.943    2.1356378    87.906024   0.14135092 
  192900   -945.86731    46.601149   -899.26616    1669.0842    4302.0727    2.1826461    86.209941   0.11976659 
  193000   -949.28491    45.240271   -904.04464    1620.3424    20063.697    2.2335393    81.901268   0.12366718 
  193100   -942.75328    49.248783   -893.50449    1763.9128    -13534.05    2.1331827    82.095792   0.12925422 
  193200   -943.78367    47.385086   -896.39858    1697.1619   -8101.7035    2.1487248    84.936292   0.14151557 
  193300    -943.6843     45.67309   -898.01121    1635.8444     11540.35    2.1987316    77.318588   0.12835243 
  193400   -947.03612    44.928665   -902.10745    1609.1818    2554.9276    2.1856859    87.888056   0.13583914 
  193500   -941.41141    49.769521   -891.64189    1782.5637   -7678.7007    2.1415406    88.270141    0.1537267 
  193600   -943.36913    47.450609   -895.91852    1699.5087     2545.819    2.1733958     87.16306   0.13917146 
  193700   -947.75711    48.116976   -899.64013    1723.3756    2925.0661    2.1842141    86.397276   0.13757885 
  193800   -946.20805    48.424572   -897.78348    1734.3925    -3854.755    2.1603552    84.419498   0.12014567 
  193900   -944.61253    53.884114   -890.72842    1929.9335    -8949.217    2.1424664    81.979418    0.1164474 
  194000   -945.98058    46.756447   -899.22413    1674.6464    5365.4243    2.1875763    82.476454    0.1222255 
  194100   -945.99872    46.927439   -899.07128    1680.7707    3757.5878    2.1783815    82.467144   0.10733759 
  194200   -942.27561    50.613268   -891.66234    1812.7837   -9717.1509    2.1360609    78.910706   0.11936599 
  194300   -946.03363    48.456213   -897.57742    1735.5258   -2057.9023    2.1630729    80.195038   0.11124162 
  194400   -945.15651    45.479376   -899.67713    1628.9063    5963.3269    2.1863173    82.891966    0.1162003 
  194500   -943.09399    46.290758   -896.80324    1657.9671    1266.5036    2.1671387    79.442507   0.13217417 
  194600   -938.97913    48.282645   -890.69649    1729.3093   -8167.7129    2.1342073    78.305165   0.14429103 
  194700   -947.44142    48.183457   -899.25796    1725.7567    1350.5304    2.1762226    78.899935   0.12248889 
  194800   -949.83219    50.358284    -899.4739    1803.6511     5059.684    2.1888487    84.786203   0.10805129 
  194900      -947.53    49.711464   -897.81853    1780.4844   -8612.0208    2.1551925    83.852513   0.11103508 
  195000   -943.60216     48.16003   -895.44213    1724.9176   -7204.8786    2.1460428    83.790273   0.11838673 
  195100   -952.96805    47.055842   -905.91221    1685.3696    12250.378    2.2164585    77.557419   0.11692876 
  195200   -944.93791    45.348627   -899.58929    1624.2234    2220.3032    2.1777812    87.877238   0.12448257 
  195300    -943.2598    45.757415   -897.50239    1638.8647   -11681.003     2.139414    85.138471   0.11885365 
  195400   -944.56999    47.642848   -896.92714    1706.3941    2684.9624    2.1734679    85.177968   0.11580207 
  195500   -950.01238    44.012967   -905.99941    1576.3849     12998.08    2.2190436     79.97705   0.12478629 
  195600   -944.99525    47.115393   -897.87986    1687.5025   -8936.7592    2.1540468    83.538238   0.12574849 
  195700   -943.81951    46.388463   -897.43105    1661.4665   -5337.6225    2.1568642    82.750217   0.14702113 
  195800   -948.75672    49.822858   -898.93386    1784.4741    5008.9344    2.1917414    83.220905   0.12451326 
  195900   -948.92555    41.004736   -907.92081     1468.641    3345.5839    2.1907733    82.589373   0.11153154 
  196000   -941.92767    41.867064    -900.0606    1499.5264   -4672.7257    2.1585772    87.869751   0.13771707 
  196100   -945.87705    48.149647    -897.7274    1724.5457    792.37966    2.1799377    83.866875   0.13600304 
  196200   -945.70038    47.776653   -897.92372    1711.1864    2811.6202    2.1830127    85.227085   0.12370114 
  196300   -945.03746    43.779836   -901.25762     1568.035   -3147.8794    2.1635765    81.569785   0.13813296 
  196400    -948.5253    41.725543   -906.79975    1494.4576    1322.9607    2.1886958    81.260941   0.12209473 
  196500   -942.63285    43.046689   -899.58616    1541.7763    6297.7208    2.1890455    77.299525   0.14570699 
  196600   -945.36534    47.925631   -897.43971    1716.5223   -4625.3575    2.1627586    82.996964   0.13141042 
  196700   -946.84597    50.668597   -896.17738    1814.7654   -6744.0731    2.1585257     82.89888   0.12426958 
  196800   -951.50252    45.366541   -906.13598     1624.865     6842.911    2.2068684    80.794475   0.12580474 
  196900      -944.96    45.721471   -899.23853    1637.5773    35.602235    2.1743512    80.142453   0.14207422 
  197000   -944.10799    48.109533   -895.99846     1723.109   -9904.7037    2.1481868    76.643732   0.14438896 
  197100   -942.74719     47.59414   -895.15305    1704.6495    4163.0374    2.1826477    80.829143   0.13517539 
  197200   -947.32763    43.810304   -903.51733    1569.1262    13330.744    2.2185799    81.933457   0.14220674 
  197300   -941.17473    44.510751   -896.66398    1594.2137   -12206.522    2.1368134    79.757373   0.13968713 
  197400   -942.59723    45.375238   -897.22199    1625.1765    -13441.13    2.1331324    89.179482   0.13890242 
  197500   -949.75238    51.838551   -897.91383    1856.6689     20139.15    2.2305267    76.950921   0.13037625 
  197600   -949.18041    43.993966   -905.18645    1575.7043     4857.539    2.1968366    79.409489   0.11668913 
  197700   -941.99776    47.603068   -894.39469    1704.9692   -14249.907    2.1296783    80.765849   0.13831881 
  197800   -946.26303    49.442591   -896.82043    1770.8543    1093.3235    2.1748434    84.140354   0.11942226 
  197900     -945.745    45.675231   -900.06977    1635.9211    9336.7702    2.1984183    81.527595   0.12443492 
  198000   -939.80347    45.794834   -894.00864    1640.2049   -1345.9129    2.1574638    79.606218   0.14126048 
  198100   -941.88873    48.682374   -893.20635    1743.6261   -7476.6728    2.1443659    76.419875   0.13932313 
  198200   -947.51022    47.861942   -899.64827    1714.2412    3241.8868    2.1848058    80.294259   0.11223876 
  198300   -946.26202    47.859374   -898.40265    1714.1492    7659.2077     2.189227    74.788215   0.14624749 
  198400   -938.73354    48.715188   -890.01835    1744.8014    -4455.104    2.1425694    60.728356    0.1582057 
  198500   -946.01667     46.73464   -899.28203    1673.8653   -5060.9254    2.1651475    65.405441   0.14320033 
  198600   -945.27881    47.193039   -898.08577    1690.2835    3526.1282    2.1801185    55.892965   0.14030042 
  198700   -939.49366    47.689425   -891.80424    1708.0623     5004.746    2.1673239    61.892617   0.12172154 
  198800   -940.20808    46.402044   -893.80604    1661.9529   -7947.7129    2.1444901    68.926909   0.14640927 
  198900   -944.98004     46.05224    -898.9278    1649.4242   -3686.3144    2.1670395    66.167669   0.14227704 
  199000   -945.96959     51.14246   -894.82713    1831.7375     10052.23    2.1943911    58.151563   0.13941375 
  199100   -943.29452    44.413445   -898.88107    1590.7285   -1283.7214    2.1657127    64.362752   0.15011842 
  199200   -948.48463    44.103684   -904.38095     1579.634   -8323.3909    2.1540113    61.298935   0.13595071 
  199300    -942.9944    45.871934   -897.12247    1642.9663    5980.8456    2.1848858    54.815237   0.14355396 
  199400   -944.53518    48.774115   -895.76107    1746.9119    8755.0279    2.1824411    50.959811   0.14423624 
  199500   -947.50252    46.295593   -901.20692    1658.1403   -9635.4879    2.1497999    58.251518   0.13468285 
  199600   -947.27653    44.294408   -902.98212    1586.4651   -5261.1436    2.1673207    65.481342   0.14934856 
  199700   -945.09685    50.175985   -894.92086    1797.1218    9627.4243    2.1956752    59.597198   0.16930122 
  199800   -943.51544    46.264035   -897.25141      1657.01    195.76842    2.1693899    58.334046   0.14662591 
  199900   -950.70035    46.828154    -903.8722    1677.2146   -12402.477    2.1562116    67.860203   0.14974609 
  200000   -943.83893    46.197269   -897.64166    1654.6186     3417.871    2.1766142    59.790853   0.14950544 
  200100   -938.24748     44.34369   -893.90379    1588.2302     11337.72    2.1917319    67.348882   0.16487288 
  200200   -939.65104    39.395231   -900.25581    1410.9943   -5160.1227    2.1496233    62.126922   0.18119286 
  200300   -938.89731    43.406898   -895.49041    1554.6777   -7293.2297    2.1407169    70.665664   0.17142141 
  200400   -941.31124    51.443796   -889.86744    1842.5302      13540.4    2.1951788    52.928684   0.14710539 
  200500   -944.31327    48.249189   -896.06408     1728.111    10110.884    2.1956543    51.812259   0.14882339 
  200600   -941.38707    43.894011   -897.49306    1572.1243   -28645.194    2.0900835    49.037938   0.13785093 
  200700    -943.5542    49.814485   -893.73972    1784.1742   -3258.6503    2.1588158    80.602724   0.13532442 
  200800   -950.41278    52.539299   -897.87348    1881.7671    12502.419    2.2136913    75.229454   0.13734641 
  200900   -948.98141    44.370697   -904.61071    1589.1975   -2938.9375    2.1768681    86.209301   0.12516686 
  201000   -940.45725     44.76194   -895.69531    1603.2104    -9810.079    2.1393446     87.34415   0.12966763 
  201100   -944.45544    47.884111   -896.57133    1715.0352    4856.1178    2.1851643       85.642   0.12598173 
  201200   -949.42085    47.669014   -901.75184    1707.3312     8328.782    2.2043381    80.409351   0.12655811 
  201300   -940.65283    47.314185   -893.33865    1694.6225   -5501.6395    2.1439912    89.320134   0.13588442 
  201400   -940.67079    44.585098   -896.08569    1596.8765   -3551.9677    2.1573851    88.882863    0.1603778 
  201500   -947.01768    46.794699   -900.22298    1676.0164    6783.8262     2.193231    85.343648   0.11614563 
  201600   -938.87492    44.074143   -894.80078     1578.576     5614.605    2.1738133    84.642153   0.12753749 
  201700   -942.86329    48.592688    -894.2706    1740.4139   -10054.965    2.1425837    81.667174   0.13425107 
  201800   -945.66169    43.751731   -901.90996    1567.0283   -11.972773    2.1745346    85.936544   0.11305878 
  201900   -940.83494    44.776552   -896.05839    1603.7337    11628.703    2.1896547    83.913982    0.1385862 
  202000     -940.123    45.202187   -894.92081    1618.9784   -861.77849    2.1590699    83.640903   0.13912139 
  202100   -946.12634    41.841209   -904.28513    1498.6004   -5864.3588    2.1615395    84.802963   0.12872144 
  202200   -946.59945     48.18119   -898.41826    1725.6755    2905.8027    2.1813186    82.332846   0.11920502 
  202300   -942.29811    47.748304   -894.54981    1710.1711    6636.0925    2.1793613    83.349397   0.12708918 
  202400   -947.79158      44.7753   -903.01628    1603.6889   -6493.4636    2.1591453    85.191834   0.13379142 
  202500   -945.68462    44.667951   -901.01667     1599.844   -4887.0728    2.1575707    86.195528    0.1255685 
  202600   -946.03398    51.456463   -894.57751    1842.9839    7646.9085    2.1879395    81.322946   0.11947047 
  202700   -948.95956    48.602433   -900.35713    1740.7629    1553.0567    2.1813374    87.404961   0.11653896 
  202800   -947.19309    42.844899   -904.34819    1534.5489   -9926.2886    2.1529251    85.132528   0.12865349 
  202900    -939.7206    44.839245   -894.88135    1605.9791   -223.76038    2.1611994    88.274917   0.13898831 
  203000     -948.026    51.347685   -896.67831    1839.0878    10901.775    2.1981939    81.555398   0.12561262 
  203100   -946.19954     44.02772   -902.17182    1576.9133   -651.24008    2.1680269    81.818801   0.11593101 
  203200   -942.26818    48.944187   -893.32399    1753.0033   -4749.3792    2.1498215    88.588582    0.1351363 
Loop time of 141.623 on 1 procs for 200000 steps with 217 atoms

Performance: 366.043 ns/day, 0.066 hours/ns, 1412.203 timesteps/s
100.0% CPU use with 1 MPI tasks x no OpenMP threads

MPI task timing breakdown:
Section |  min time  |  avg time  |  max time  |%varavg| %total
---------------------------------------------------------------
Pair    | 136.44     | 136.44     | 136.44     |   0.0 | 96.34
Neigh   | 2.0429     | 2.0429     | 2.0429     |   0.0 |  1.44
Comm    | 0.91048    | 0.91048    | 0.91048    |   0.0 |  0.64
Output  | 0.068746   | 0.068746   | 0.068746   |   0.0 |  0.05
Modify  | 1.8571     | 1.8571     | 1.8571     |   0.0 |  1.31
Other   |            | 0.3082     |            |       |  0.22

Nlocal:    217 ave 217 max 217 min
Histogram: 1 0 0 0 0 0 0 0 0 0
Nghost:    953 ave 953 max 953 min
Histogram: 1 0 0 0 0 0 0 0 0 0
Neighs:    4139 ave 4139 max 4139 min
Histogram: 1 0 0 0 0 0 0 0 0 0
FullNghs:  8278 ave 8278 max 8278 min
Histogram: 1 0 0 0 0 0 0 0 0 0

Total # of neighbors = 8278
Ave neighs/atom = 38.1475
Neighbor list builds = 3466
Dangerous builds = 24
Total wall time: 0:02:23
