LAMMPS (3 Mar 2020)
Reading data file ...
  orthogonal box = (0 0 0) to (12.27 12.27 12.27)
  1 by 1 by 1 MPI processor grid
  reading atoms ...
  108 atoms
  read_data CPU = 0.000839814 secs
Reading potential file /usr/share/lammps-stable/potentials/Ag_u3.eam with DATE: 2007-06-11
Neighbor list info ...
  update every 1 steps, delay 10 steps, check yes
  max neighbors/atom: 2000, page size: 100000
  master list distance cutoff = 7.55
  ghost atom cutoff = 7.55
  binsize = 3.775, bins = 4 4 4
  2 neighbor lists, perpetual/occasional/extra = 1 1 0
  (1) pair eam, perpetual
      attributes: half, newton on
      pair build: half/bin/atomonly/newton
      stencil: half/bin/3d/newton
      bin: standard
  (2) compute rdf, occasional, copy from (1)
      attributes: half, newton on
      pair build: copy
      stencil: none
      bin: none
Setting up Verlet run ...
  Unit style    : metal
  Current step  : 0
  Time step     : 0.005
Per MPI rank memory allocation (min/avg/max) = 3.723 | 3.723 | 3.723 Mbytes
Step PotEng KinEng TotEng Temp Press Density c_msdall[4] 
       0       -307.8    40.109423   -267.69058         2900    23191.601    10.472245            0 
     100   -282.16383    29.317816   -252.84602     2119.743    104608.62    10.472245   0.15121853 
     200   -271.55369    41.627437   -229.92625    3009.7558    142090.38    10.472245   0.22217891 
     300    -260.5169    44.891808   -215.62509     3245.777    175649.74    10.472245   0.32941217 
     400   -259.30253    36.019991   -223.28254     2604.325    174057.93    10.472245   0.76225089 
     500   -252.93129    39.942842   -212.98845    2887.9558    197288.38    10.472245    1.7304791 
     600   -255.50902    46.176964   -209.33206    3338.6966    190465.16    10.472245     2.092299 
     700   -253.86764    35.033886   -218.83375    2533.0275    188056.56    10.472245    2.9254903 
     800   -247.48284    35.288645    -212.1942    2551.4471    214158.41    10.472245    3.4082422 
     900   -253.21647    43.786736   -209.42974    3165.8779     202452.1    10.472245    5.4317558 
    1000   -255.79599    38.000549   -217.79544    2747.5238     190427.7    10.472245     7.010826 
    1100   -247.42816     37.08142   -210.34674    2681.0687    211630.94    10.472245    8.5023098 
    1200   -252.66525    39.945619   -212.71963    2888.1566    197849.29    10.472245    10.037171 
    1300   -254.65233    38.666976   -215.98535    2795.7079    195379.91    10.472245    11.665772 
    1400   -248.21602     43.71501   -204.50101    3160.6919    220069.14    10.472245    12.793754 
    1500   -249.48576    41.678802   -207.80696    3013.4695    210312.51    10.472245    14.894134 
    1600   -256.12599    38.337933   -217.78806    2771.9173    191566.58    10.472245     17.05777 
    1700   -254.05278    41.014467   -213.03831    2965.4367     198880.2    10.472245     17.99848 
    1800   -254.89283    46.439745   -208.45309    3357.6963    194367.55    10.472245    19.682377 
    1900   -256.44652    40.837036   -215.60948     2952.608    188546.22    10.472245     21.55683 
    2000   -252.45661     40.85587   -211.60074    2953.9698    197359.28    10.472245     23.62786 
    2100    -247.9303    46.438957   -201.49135    3357.6393     219124.4    10.472245    25.502252 
    2200   -250.91854    38.976178   -211.94236    2818.0639    202948.73    10.472245     27.74526 
    2300   -254.43811    37.832038   -216.60607      2735.34    195282.73    10.472245    28.770791 
    2400   -249.04374    42.479881   -206.56386    3071.3893    210993.14    10.472245    30.582719 
    2500     -251.737    41.297738   -210.43926    2985.9178    204873.07    10.472245    32.568589 
    2600   -257.07667    35.281291   -221.79538    2550.9154    182000.21    10.472245    35.146466 
    2700   -256.01467    38.304917   -217.70975    2769.5302    190642.94    10.472245    36.582263 
    2800   -250.70224    42.422309   -208.27993    3067.2268    208749.58    10.472245    38.661779 
    2900   -255.27019    38.529879   -216.74031    2785.7955    189799.67    10.472245    40.794924 
    3000   -254.77526    40.154845   -214.62042    2903.2841     192811.9    10.472245    43.253479 
    3100   -250.22452    38.537376   -211.68715    2786.3375    204794.82    10.472245    44.141309 
    3200   -251.29622    46.209548   -205.08667    3341.0526    205288.46    10.472245    46.427458 
    3300   -249.72431    33.938426   -215.78589    2453.8232    209131.29    10.472245    48.037464 
    3400    -252.3888    43.190646   -209.19816    3122.7792    205886.69    10.472245    49.388072 
    3500   -253.53024    37.699367   -215.83087    2725.7476    195912.13    10.472245    52.868339 
    3600   -254.22184    36.730299   -217.49154    2655.6818    195555.05    10.472245    53.109778 
    3700    -254.6849    42.485936   -212.19896    3071.8272    191956.33    10.472245    55.735078 
    3800   -257.62274    40.187219   -217.43553    2905.6248     183447.2    10.472245    57.116224 
    3900   -261.27543    34.394001   -226.88143    2486.7623     170437.8    10.472245    58.765375 
    4000   -262.10613    45.811944   -216.29418    3312.3049    174129.25    10.472245    59.268954 
    4100   -253.14612    41.997003   -211.14911    3036.4762    195873.75    10.472245    62.545465 
    4200   -255.46378    43.462499   -212.00128    3142.4348    194994.57    10.472245    63.371281 
    4300   -256.97472    36.164146   -220.81057    2614.7477    184996.33    10.472245    64.094538 
    4400    -249.9913    37.805643   -212.18565    2733.4316    207161.53    10.472245    65.657573 
    4500   -249.51746    40.091009   -209.42645    2898.6686     204412.1    10.472245    66.928784 
    4600   -253.99461    35.234272   -218.76034    2547.5158    193647.13    10.472245    68.351405 
    4700    -257.1679     38.12573   -219.04217    2756.5746    186487.99    10.472245    69.131232 
    4800   -252.60097      41.0266   -211.57437    2966.3139    203373.38    10.472245    71.817983 
    4900   -254.06798    42.101639   -211.96634    3044.0416    194631.81    10.472245    76.689717 
    5000   -257.80825    37.696384   -220.11186    2725.5319    184878.38    10.472245    78.938236 
    5100   -254.17403    41.261619   -212.91241    2983.3063    194603.06    10.472245    81.316084 
    5200   -253.63576    39.680616   -213.95515    2868.9963    193726.36    10.472245     83.94484 
    5300    -256.8698    36.303197   -220.56661    2624.8015    182712.33    10.472245    83.385551 
    5400   -251.61478    41.133144   -210.48163    2974.0173    199751.63    10.472245    86.660466 
    5500   -251.39273    36.756148   -214.63658    2657.5508    203007.25    10.472245    86.426408 
    5600   -253.62835    39.855539   -213.77281    2881.6436    191248.92    10.472245    86.186592 
    5700     -250.156    40.849114   -209.30689    2953.4813    205964.49    10.472245    84.917236 
    5800   -255.32564    36.859387   -218.46625    2665.0152     190624.2    10.472245    87.635707 
    5900   -256.39167    42.209148   -214.18252    3051.8148    187621.76    10.472245    87.695433 
    6000    -252.8795    43.164535   -209.71496    3120.8914    201900.43    10.472245     89.19741 
    6100   -255.31398    41.180847   -214.13314    2977.4663    192032.58    10.472245    90.515235 
    6200   -254.16628    35.593153   -218.57313    2573.4637    190201.46    10.472245     92.67801 
    6300   -255.85451    38.682278   -217.17223    2796.8143    188143.41    10.472245    93.108409 
    6400   -252.47204    39.826428   -212.64561    2879.5388    200838.05    10.472245    94.098992 
    6500   -256.06636    38.062297   -218.00406    2751.9883    188967.66    10.472245    96.994289 
    6600   -251.89797    39.230226   -212.66774    2836.4321    200287.02    10.472245    99.030344 
    6700   -251.28748    38.372071   -212.91541    2774.3856    204122.03    10.472245    101.79797 
    6800   -258.84449    37.600943   -221.24355    2718.6313    181090.11    10.472245    105.75476 
    6900   -256.43799    43.125813   -213.31217    3118.0916    185068.21    10.472245    106.71339 
    7000   -254.58605    40.008513   -214.57754     2892.704    193248.18    10.472245    110.75389 
    7100   -253.21903     43.49745   -209.72158    3144.9618    195939.83    10.472245    111.92018 
    7200   -252.70858    42.853894   -209.85469    3098.4313    198661.83    10.472245    111.89781 
    7300    -254.1323    37.902368   -216.22993     2740.425    192736.49    10.472245    113.24324 
    7400   -253.49077    42.998772   -210.49199    3108.9064    198572.23    10.472245    118.41788 
    7500   -251.85235    41.402759    -210.4496     2993.511    202306.05    10.472245    120.95815 
    7600   -257.38513    37.497199   -219.88793    2711.1304    187101.76    10.472245    122.34219 
    7700     -256.986    45.138862   -211.84714    3263.6396    188392.42    10.472245    124.00545 
    7800   -254.52484    44.421331   -210.10351    3211.7605    195977.83    10.472245    127.03616 
    7900   -254.88731    41.040116   -213.84719    2967.2911     194552.4    10.472245    128.66366 
    8000   -249.48913    41.996457   -207.49267    3036.4367    206226.83    10.472245    129.62683 
    8100   -249.45239    43.249241   -206.20315    3127.0158    208670.92    10.472245    134.58526 
    8200   -256.01081    40.040741   -215.97007    2895.0341    190186.57    10.472245    136.35595 
    8300   -251.95476    41.705822   -210.24894    3015.4232    204561.27    10.472245    136.78454 
    8400   -251.43944    42.883683   -208.55576    3100.5852    202654.77    10.472245    136.75197 
    8500   -250.61485    38.351479   -212.26337    2772.8968    203238.57    10.472245    137.17883 
    8600    -250.8732    46.014133   -204.85907    3326.9236    210346.25    10.472245    137.77061 
    8700   -248.83123    38.100148   -210.73108     2754.725    210992.19    10.472245    138.12123 
    8800    -254.4009    38.956075   -215.44482    2816.6104    192516.89    10.472245    137.72838 
    8900   -252.42051     41.67786   -210.74265    3013.4014    204313.48    10.472245     139.3672 
    9000   -257.16107     48.31454   -208.84653    3493.2481    188744.74    10.472245    143.09544 
    9100   -255.37725    39.334559   -216.04269    2843.9756    192007.63    10.472245    150.72662 
    9200   -248.59046    39.136917   -209.45354    2829.6857    213286.66    10.472245    152.55171 
    9300    -248.6877    37.810073   -210.87763    2733.7519    205086.76    10.472245     155.5979 
    9400   -256.07714    38.157488   -217.91965    2758.8708    189611.54    10.472245    156.42093 
    9500   -249.89836    42.672675   -207.22569    3085.3288    211747.05    10.472245    157.71792 
    9600   -254.43249     40.72163   -213.71086    2944.2639    195625.74    10.472245    160.19711 
    9700   -256.82693    40.346371   -216.48056    2917.1319    189175.18    10.472245    159.88743 
    9800     -248.924    44.070725   -204.85328    3186.4109    212966.85    10.472245    163.47171 
    9900   -252.62873    36.865865   -215.76286    2665.4836    196903.06    10.472245    167.68581 
   10000    -254.7268    42.846383   -211.88042    3097.8882       197748    10.472245    171.05588 
   10100      -249.62    42.880286   -206.73971    3100.3395    209697.06    10.472245    171.18625 
   10200   -255.49086     41.93269   -213.55817    3031.8262    194245.93    10.472245    170.65447 
   10300   -251.73874    38.883984   -212.85475    2811.3981    199582.76    10.472245    172.90314 
   10400   -257.29381    41.163383   -216.13043    2976.2036    185232.81    10.472245    173.88207 
   10500   -255.90456    38.643742   -217.26082     2794.028    191312.47    10.472245    173.73455 
   10600   -246.68062    38.173067   -208.50755    2759.9972    210656.97    10.472245    174.14813 
   10700   -257.21754    38.600753   -218.61679    2790.9199    185706.33    10.472245    176.17364 
   10800   -255.03527    40.113523   -214.92174    2900.2965    191612.36    10.472245    179.11318 
   10900   -255.82136    42.074069    -213.7473    3042.0482    193510.41    10.472245    183.45903 
   11000   -256.54168    37.634104   -218.90758     2721.029    187657.93    10.472245    187.07749 
   11100   -255.15999     46.11298   -209.04701    3334.0705    197307.95    10.472245    188.49101 
   11200   -253.21927     35.20813   -218.01114    2545.6257    198439.19    10.472245    192.67413 
   11300   -259.70768    42.373798   -217.33388    3063.7193    177780.68    10.472245    196.06232 
   11400   -253.75109    45.373652   -208.37744    3280.6154    202423.43    10.472245    199.04647 
   11500   -252.70839    36.346709   -216.36168    2627.9475    193923.51    10.472245    200.69018 
   11600   -252.75596    37.877849   -214.87812    2738.6523    194852.09    10.472245    201.62769 
   11700   -255.75895    45.376167   -210.38279    3280.7972    190950.78    10.472245    206.55859 
   11800   -257.75888    36.565412   -221.19347    2643.7602    182552.98    10.472245    211.76011 
   11900   -254.16673    40.495657   -213.67107    2927.9256    194487.86    10.472245    213.78303 
   12000   -252.93505    38.321661   -214.61339    2770.7409    192644.49    10.472245    218.45954 
   12100   -254.63302    39.379392   -215.25363    2847.2171    192791.43    10.472245    221.31867 
   12200   -258.86145    39.699018   -219.16243    2870.3268    179556.42    10.472245    222.95507 
   12300   -253.90646    44.686177   -209.22029    3230.9094    200483.91    10.472245    224.99006 
   12400   -253.40857    37.073402   -216.33517     2680.489    196921.27    10.472245    225.62038 
   12500   -257.94554    32.093591   -225.85195    2320.4376    176613.09    10.472245    224.95186 
   12600   -254.71233    39.222188   -215.49014    2835.8509    191592.08    10.472245    227.06558 
   12700   -257.04737    47.855628   -209.19174    3460.0678    187991.74    10.472245    229.54404 
   12800   -259.90578    40.428883    -219.4769    2923.0976    175912.92    10.472245    229.00861 
   12900   -254.58652    38.255471   -216.33105    2765.9551    191371.43    10.472245    229.38526 
   13000    -251.4624     38.77069   -212.69171    2803.2067    199657.89    10.472245    231.34982 
   13100   -256.43991    42.948877   -213.49103    3105.2988    186558.05    10.472245    231.66985 
   13200    -255.3784    36.872106   -218.50629    2665.9348    187556.89    10.472245     230.4524 
   13300   -247.56939    38.790761   -208.77863    2804.6579    213695.69    10.472245    229.64949 
   13400   -255.44099    41.342933   -214.09806    2989.1855    190899.37    10.472245    228.92317 
   13500   -254.44609    40.592134   -213.85396    2934.9011    192670.28    10.472245    226.86998 
   13600   -250.54637    37.883369     -212.663    2739.0514    206288.96    10.472245    229.21139 
   13700   -249.89438    44.566054   -205.32833    3222.2243    207120.65    10.472245    226.20633 
   13800   -252.86489    35.763254   -217.10164    2585.7624    198917.89    10.472245    230.41769 
   13900   -253.11307    37.339136   -215.77394    2699.7021    196223.34    10.472245    233.73538 
   14000   -252.47862    43.701543   -208.77708    3159.7182    199995.79    10.472245    238.50089 
   14100   -253.42383    40.028216   -213.39562    2894.1286    201017.51    10.472245     241.7227 
   14200   -255.74935    36.847275   -218.90208    2664.1395     188630.4    10.472245    248.95461 
   14300   -248.66768     40.47679   -208.19089    2926.5615    211286.03    10.472245    248.83592 
   14400   -257.61706    41.250715   -216.36634    2982.5179     190837.3    10.472245     252.0967 
   14500   -256.24029    39.023949   -217.21634    2821.5178     181316.7    10.472245    254.57899 
   14600   -252.83933    37.447107   -215.39222    2707.5087    196342.49    10.472245     258.2691 
   14700   -248.57125    46.281911   -202.28934    3346.2845    212927.59    10.472245    258.13381 
   14800   -254.48732    43.495585   -210.99174     3144.827    195166.47    10.472245    261.05087 
   14900   -251.92248    34.571317   -217.35117    2499.5827    198261.29    10.472245    266.52047 
   15000   -251.06164    44.665373   -206.39626    3229.4052    208396.31    10.472245    269.89973 
   15100   -251.53011    39.940093   -211.59002    2887.7571    201191.57    10.472245    273.33496 
   15200   -254.55332    39.316823   -215.23649    2842.6932    192818.83    10.472245    275.29216 
   15300   -254.23344    40.722638    -213.5108    2944.3368    193786.23    10.472245    277.55299 
   15400   -252.64293    36.251393   -216.39153    2621.0559     192108.9    10.472245    278.49025 
   15500    -254.6968    46.109757   -208.58704    3333.8374    197039.01    10.472245     276.9051 
   15600   -248.74607    38.272871    -210.4732    2767.2132    210686.31    10.472245    280.80441 
   15700   -253.79738    35.496097   -218.30128    2566.4464    195764.52    10.472245    281.43424 
   15800   -253.77667    40.714306   -213.06236    2943.7344    196877.28    10.472245    289.65751 
   15900   -253.13538    38.464106   -214.67128    2781.0399    200091.44    10.472245    298.21939 
   16000   -258.88746     37.80418   -221.08328    2733.3258    179658.84    10.472245    299.91239 
   16100   -259.44217    40.536965    -218.9052    2930.9123    179335.94    10.472245     303.1348 
   16200    -253.8045     40.06392   -213.74058    2896.7101    196723.99    10.472245    299.29722 
   16300   -254.63535    46.819953   -207.81539    3385.1862    196783.93    10.472245    300.51691 
   16400   -251.65806    39.762085   -211.89598    2874.8867    201163.38    10.472245    307.79294 
   16500   -254.99602     39.00673   -215.98929    2820.2729    187683.76    10.472245    310.46202 
   16600   -254.61862    40.672954   -213.94567    2940.7446    193936.33    10.472245    315.94796 
   16700   -245.57814    39.081449   -206.49669    2825.6752    217945.02    10.472245    314.47959 
   16800   -258.22329     40.75419    -217.4691    2946.6181    186175.29    10.472245    312.94685 
   16900   -254.17064    41.206091   -212.96455    2979.2915    197882.03    10.472245    319.02176 
   17000    -247.4634    47.518249   -199.94515    3435.6745    220009.83    10.472245    315.72611 
   17100   -247.50739    39.481752   -208.02563     2854.618    214746.92    10.472245    318.72112 
   17200   -255.70684    38.424365   -217.28247    2778.1666    189128.78    10.472245    326.03625 
   17300   -258.28869    40.971126   -217.31756     2962.303     181327.4    10.472245     328.2036 
   17400   -251.04859    42.185606   -208.86299    3050.1126    206898.27    10.472245     327.5855 
   17500    -255.9505    38.273329   -217.67717    2767.2464    186930.33    10.472245    332.71969 
   17600   -255.33184    40.427326   -214.90451    2922.9851    187923.79    10.472245    334.80243 
   17700   -251.07129    37.002323   -214.06897    2675.3498    200469.06    10.472245    336.60763 
   17800   -246.62111     41.72688   -204.89423    3016.9457    223899.71    10.472245    336.41872 
   17900   -255.78936    39.016635   -216.77273     2820.989    189071.11    10.472245     339.5259 
   18000   -245.67827    35.450965   -210.22731    2563.1832    216491.45    10.472245    336.52836 
   18100   -249.51284    38.874898   -210.63794    2810.7411    207661.09    10.472245    339.76035 
   18200   -252.00773    37.269305   -214.73842    2694.6532    200919.28    10.472245    343.34919 
   18300   -251.33737    39.394884   -211.94248    2848.3373    202742.32    10.472245    347.87223 
   18400   -248.85242    39.028916    -209.8235     2821.877    212012.63    10.472245    352.37017 
   18500    -254.0177    40.280901    -213.7368    2912.3982    194178.33    10.472245    354.22268 
   18600   -256.81738    38.791824   -218.02555    2804.7347    186046.19    10.472245    351.76282 
   18700    -249.0349    42.210159   -206.82474    3051.8879     208341.2    10.472245    354.74055 
   18800   -250.94639    35.265517   -215.68088    2549.7749    202615.64    10.472245    358.17233 
   18900   -252.07691     40.75218   -211.32473    2946.4728    202655.61    10.472245    363.46444 
   19000   -253.28077    50.931829   -202.34894    3682.4839    203097.78    10.472245    368.36983 
   19100   -254.57504    39.468597   -215.10644    2853.6669    196470.68    10.472245    366.69557 
   19200   -259.34082    40.731439   -218.60938    2944.9731    180173.08    10.472245    368.90868 
   19300   -255.45066    39.873545   -215.57711    2882.9455    196852.32    10.472245    368.40221 
   19400   -252.16275    40.867338   -211.29541    2954.7989    201469.62    10.472245    377.21333 
   19500   -251.88085    36.081345   -215.79951    2608.7611    197921.27    10.472245    376.81403 
   19600   -242.92608    39.368206   -203.55788    2846.4083    223660.25    10.472245    371.07539 
   19700   -253.09834    38.490505   -214.60784    2782.9486     198003.8    10.472245    374.71006 
   19800   -251.29025    34.863946    -216.4263    2520.7404    197864.08    10.472245    372.94448 
   19900   -250.88792     45.77306   -205.11486    3309.4935    209415.13    10.472245     370.3684 
   20000   -253.88089    39.937254   -213.94363    2887.5518    196058.71    10.472245    372.50913 
   20100   -256.18348    40.598556   -215.58493    2935.3654    186088.51    10.472245    371.32158 
   20200   -253.86549     40.65711   -213.20838     2939.599    198470.51    10.472245    374.55503 
   20300   -250.62783    45.099254   -205.52857    3260.7758    206718.97    10.472245    373.38668 
   20400     -255.876    40.938004     -214.938    2959.9083    191452.49    10.472245    379.43754 
   20500   -257.29429    43.311629   -213.98266    3131.5266     188413.6    10.472245    379.11959 
   20600   -257.41339    34.602641   -222.81075    2501.8475    182507.42    10.472245    379.01819 
   20700   -255.10416    39.549306   -215.55486    2859.5023    191686.83    10.472245    377.75079 
   20800   -256.44113    39.384815   -217.05632    2847.6092    191291.24    10.472245    377.29424 
   20900   -256.55463    41.530352   -215.02427    3002.7363     187696.6    10.472245    378.21782 
   21000    -250.3905    41.123941   -209.26656    2973.3519    207498.51    10.472245    382.99981 
   21100    -255.3903    36.578537   -218.81176    2644.7091    190156.62    10.472245    382.53748 
   21200   -253.47591     45.67242   -207.80349     3302.217    199672.68    10.472245    385.84965 
   21300   -254.28436    40.698567   -213.58579    2942.5964    192640.74    10.472245    384.88648 
   21400    -259.0468    41.860802   -217.18599    3026.6286    184445.24    10.472245    390.36204 
   21500   -252.29933    45.255201   -207.04413    3272.0512    198112.29    10.472245    388.00763 
   21600   -247.76271    38.821483   -208.94122    2806.8791    217567.68    10.472245    386.26063 
   21700   -250.34369    34.512848   -215.83084    2495.3553    203209.79    10.472245    387.23747 
   21800   -252.85191      33.2763   -219.57561    2405.9501    196293.14    10.472245    385.79473 
   21900   -250.80391    41.718822   -209.08509    3016.3631    208085.36    10.472245    388.01311 
   22000   -253.25435    39.553084   -213.70127    2859.7754    194434.83    10.472245     385.5436 
   22100   -256.36937     37.53786   -218.83151    2714.0703     185357.5    10.472245    385.00007 
   22200   -251.77042    38.827676   -212.94274    2807.3269    202665.13    10.472245    389.55141 
   22300   -255.65715    42.377774   -213.27938    3064.0068    188940.62    10.472245    391.63523 
   22400   -252.23498    36.613267   -215.62171    2647.2202    196893.57    10.472245    392.00199 
   22500   -255.72462    43.931048   -211.79358    3176.3119    191351.56    10.472245    396.92822 
   22600   -247.74494    42.828989   -204.91595    3096.6306    212479.33    10.472245    401.39426 
   22700     -248.302    36.645317   -211.65669    2649.5375    207728.63    10.472245    400.79767 
   22800   -254.38404     37.04655   -217.33749    2678.5475    192076.11    10.472245    403.63809 
   22900   -253.01643    46.946555   -206.06988    3394.3398    203370.52    10.472245    404.63662 
   23000   -248.01358    35.431199   -212.58238     2561.754    207164.74    10.472245    408.33453 
   23100   -251.33043     38.44068   -212.88975    2779.3462    201403.93    10.472245    411.13397 
   23200   -251.18939    36.025767   -215.16363    2604.7427    203299.27    10.472245    418.22078 
   23300   -257.11674    35.030495   -222.08625    2532.7823    182727.59    10.472245     417.9084 
   23400   -254.94248    43.533563   -211.40892    3147.5729    190389.41    10.472245    417.63295 
   23500   -251.82931    36.235415   -215.59389    2619.9007    200843.69    10.472245    420.28414 
   23600   -246.37409    42.589655   -203.78444    3079.3262    220511.19    10.472245    419.17613 
   23700   -254.85753    43.067629    -211.7899    3113.8849    197715.92    10.472245    419.82816 
   23800   -255.98503    41.764208   -214.22082    3019.6446    191168.56    10.472245    427.77034 
   23900   -254.56124     33.79328   -220.76796    2443.3289    189791.34    10.472245    430.28642 
   24000   -250.57494    40.406736    -210.1682    2921.4964     203709.8    10.472245     433.9666 
   24100   -251.08877    42.114419   -208.97435    3044.9656    206219.29    10.472245    439.45024 
   24200   -259.25763     39.51713    -219.7405    2857.1759    178293.44    10.472245    442.47601 
   24300   -250.41369    34.745745   -215.66794    2512.1942    204626.23    10.472245    448.43074 
   24400   -250.14389    39.980077   -210.16381     2890.648    205301.48    10.472245    447.23272 
   24500   -253.23371    34.901371   -218.33233    2523.4463    191600.27    10.472245    450.99451 
   24600   -256.05813    42.351707   -213.70642    3062.1221    192025.74    10.472245    446.88229 
   24700     -248.421    36.182866   -212.23814    2616.1012    209403.27    10.472245    452.76249 
   24800   -256.88698    34.854409   -222.03258    2520.0508    182288.38    10.472245    450.27026 
   24900   -253.48969    37.555833   -215.93386    2715.3698    194292.09    10.472245    451.70772 
   25000   -250.63437    38.068468    -212.5659    2752.4345    200171.06    10.472245    450.56131 
   25100   -257.14478    37.362217   -219.78256    2701.3709    186156.27    10.472245     449.5222 
   25200   -251.68966    38.511537   -213.17813    2784.4693    206084.84    10.472245    451.85208 
   25300   -250.43259    39.386423   -211.04616    2847.7255    205561.87    10.472245    454.66331 
   25400   -254.30615     38.45196   -215.85419    2780.1618    198061.97    10.472245     454.2391 
   25500   -251.73565    41.583027   -210.15263    3006.5449    202903.49    10.472245    449.77021 
   25600   -252.56685    42.987572   -209.57928    3108.0965    203341.05    10.472245    453.17418 
   25700   -258.09774    37.645183   -220.45256      2721.83     183290.9    10.472245     454.9079 
   25800   -255.08916    40.187545   -214.90161    2905.6484    190687.36    10.472245    457.19362 
   25900   -253.19135    44.736142    -208.4552     3234.522    204335.22    10.472245    461.33304 
   26000   -256.88452    44.455061   -212.42946    3214.1992    186899.95    10.472245    462.34759 
   26100   -255.98769    35.810476   -220.17721    2589.1767    189596.71    10.472245    467.27823 
   26200   -256.83461    43.192904    -213.6417    3122.9425    187679.81    10.472245    471.82068 
   26300   -255.76729    45.087928   -210.67936    3259.9569    190930.27    10.472245    474.81874 
   26400   -258.35395    40.414592   -217.93936    2922.0644    184554.38    10.472245    471.88205 
   26500    -255.3196    39.124436   -216.19516    2828.7832    192508.92    10.472245    477.30665 
   26600   -253.35227    39.382113   -213.97015    2847.4139     197110.1    10.472245    480.75331 
   26700   -255.56572     43.04956   -212.51616    3112.5784    193842.04    10.472245    477.68118 
   26800   -256.59076    35.963559    -220.6272    2600.2449    183070.88    10.472245    482.00496 
   26900   -248.37258     37.42524   -210.94734    2705.9276    209730.59    10.472245     484.8312 
   27000   -252.81472    38.330824    -214.4839    2771.4034    196406.64    10.472245    492.23407 
   27100   -256.09483    39.991584   -216.10324      2891.48    186591.97    10.472245    493.47926 
   27200   -253.37045    46.284609   -207.08584    3346.4796    198168.37    10.472245    492.22573 
   27300   -254.73579    37.121801   -217.61399    2683.9884    192377.05    10.472245    495.94673 
   27400   -257.76726    42.627957    -215.1393    3082.0956    190944.86    10.472245     496.7977 
   27500   -248.24219    40.914446   -207.32775    2958.2049    210633.04    10.472245    498.02359 
   27600   -254.37029    39.426287   -214.94401    2850.6077    191203.34    10.472245    494.81638 
   27700   -256.33891    37.772393   -218.56652    2731.0275    188785.95    10.472245    492.96493 
   27800    -256.0076    35.345773   -220.66182    2555.5776    185758.68    10.472245    498.04197 
   27900   -250.04881    39.407864   -210.64095    2849.2757    211756.54    10.472245    495.21099 
   28000   -255.45466    37.684325   -217.77034      2724.66    188453.98    10.472245     492.0965 
   28100   -252.97341     37.69431    -215.2791     2725.382    194661.45    10.472245    495.61188 
   28200   -250.03569    38.164819   -211.87087    2759.4008    204480.68    10.472245    500.34587 
   28300   -255.30555    39.702448   -215.60311    2870.5748    191350.36    10.472245    497.90062 
   28400   -255.91894    33.512836   -222.40611    2423.0522    186722.58    10.472245    502.52695 
   28500   -252.39385    40.771296   -211.62255    2947.8549    197768.18    10.472245    504.27044 
   28600   -255.72378    40.371468   -215.35231    2918.9464    188237.59    10.472245    505.97491 
   28700   -256.23613    35.247067   -220.98906    2548.4409    186582.59    10.472245    509.22562 
   28800   -249.86857    41.489834   -208.37874    2999.8068    212906.16    10.472245    512.07339 
   28900   -254.62064     39.94957   -214.67107    2888.4423    199164.03    10.472245    514.48973 
   29000   -255.89327    38.392419   -217.50085    2775.8568    185374.73    10.472245    520.36675 
   29100   -245.19757    41.335991   -203.86158    2988.6836    216523.59    10.472245    525.00723 
   29200   -253.65602    41.214985   -212.44103    2979.9346    198904.95    10.472245    523.62449 
   29300   -255.74353    37.319457   -218.42408    2698.2793    189981.84    10.472245    528.87816 
   29400    -250.0656    43.724827   -206.34077    3161.4017    208411.31    10.472245    528.90469 
   29500   -253.53773    40.248794   -213.28893    2910.0768    195083.42    10.472245    533.05469 
   29600   -254.21324    37.013869   -217.19937    2676.1846    192709.14    10.472245    542.12865 
   29700   -248.05512    39.917595   -208.13752    2886.1304    209376.23    10.472245    542.59964 
   29800   -253.77311    39.070538   -214.70257    2824.8863    199027.49    10.472245    541.37246 
   29900   -256.97368     39.14988    -217.8238    2830.6229    184794.93    10.472245    542.43327 
   30000   -249.65928    35.737928   -213.92135    2583.9312    202387.28    10.472245    544.72096 
   30100   -247.70305    44.312052   -203.39099    3203.8593    214570.26    10.472245    540.27011 
   30200   -256.84158    45.344946   -211.49663    3278.5399    187249.98    10.472245    540.95334 
   30300   -254.64785    39.366677   -215.28118    2846.2978    192211.74    10.472245    545.23021 
   30400   -253.71807    39.638176    -214.0799    2865.9278    198280.34    10.472245    544.22665 
   30500   -249.58724    39.019959   -210.56728    2821.2293    209895.85    10.472245    543.24159 
   30600    -258.6325    37.284045   -221.34846    2695.7189    180735.68    10.472245    548.64418 
   30700   -251.60364    37.303912   -214.29972    2697.1553    197764.04    10.472245    547.84212 
   30800   -254.79029    39.374719   -215.41557    2846.8792    194767.31    10.472245    545.29524 
   30900   -258.88758    35.695358   -223.19222    2580.8533    179946.34    10.472245    550.90356 
   31000    -254.8493    40.569191   -214.28011    2933.2423    192422.63    10.472245    546.75592 
   31100    -252.5431    42.949543   -209.59355    3105.3469    204708.97    10.472245    546.74505 
   31200   -259.38919    38.645965   -220.74322    2794.1887    178199.78    10.472245    544.53632 
   31300   -255.33524    40.633955   -214.70129    2937.9248    191719.28    10.472245    544.41045 
   31400   -250.56234    35.282812   -215.27953    2551.0253    203022.54    10.472245      549.336 
   31500   -250.23429    42.938101   -207.29619    3104.5197    209652.92    10.472245    548.45419 
   31600    -247.0032    36.906101    -210.0971    2668.3928    211513.08    10.472245    549.11807 
   31700   -258.39413    41.140048   -217.25408    2974.5164    181409.11    10.472245    550.42761 
   31800    -255.6913    45.638968   -210.05233    3299.7983    193186.97    10.472245     550.1258 
   31900   -249.82707    45.528245   -204.29882    3291.7928    211852.98    10.472245    550.67569 
   32000   -256.78318    42.995252   -213.78793    3108.6518    196672.08    10.472245    550.75213 
   32100   -256.03638    42.666495   -213.36988     3084.882    192461.68    10.472245    552.49939 
   32200   -255.52311    48.674416    -206.8487     3519.268    196807.15    10.472245    553.34731 
   32300   -253.37509    38.437331   -214.93776     2779.104    199846.21    10.472245    557.27868 
   32400   -256.97496    42.580512   -214.39445    3078.6652    186089.79    10.472245    562.37042 
   32500   -247.47707    39.216444   -208.26062    2835.4356     213141.5    10.472245    564.97213 
   32600   -252.80035    38.900218   -213.90013    2812.5718     196813.2    10.472245    567.30889 
   32700   -253.56052    42.213937   -211.34659     3052.161    196561.67    10.472245    566.81481 
   32800   -253.00196    37.418627   -215.58334    2705.4495    196145.72    10.472245    566.35178 
   32900   -260.36301    37.084612    -223.2784    2681.2995    175157.48    10.472245     571.6164 
   33000   -252.56064     40.83864     -211.722     2952.724    201666.68    10.472245    572.35258 
   33100   -250.38446     40.72171   -209.66275    2944.2697    202344.94    10.472245    580.47524 
   33200   -255.29181    37.068579   -218.22323    2680.1402    190846.92    10.472245      583.403 
   33300    -255.0136    38.571331   -216.44227    2788.7926     191475.2    10.472245    581.45803 
   33400   -251.00698    41.067712   -209.93927    2969.2864     201231.6    10.472245     579.7567 
   33500   -254.46392     41.75232    -212.7116    3018.7851    195091.88    10.472245    576.75298 
   33600   -253.92864    35.950028   -217.97861    2599.2666    197165.28    10.472245     580.3281 
   33700   -251.70948     43.08322   -208.62626    3115.0121    206585.79    10.472245    583.62488 
   33800   -254.61307    37.463591   -217.14948    2708.7005    188114.51    10.472245    581.47283 
   33900   -255.61275     41.00708   -214.60567    2964.9026     188196.6    10.472245    584.95869 
   34000   -248.70183    38.545474   -210.15636     2786.923     210643.6    10.472245    581.03947 
   34100   -258.27524     37.07903   -221.19621    2680.8959    179181.78    10.472245     584.6745 
   34200   -257.05471    40.998691   -216.05602    2964.2961    190405.75    10.472245    582.62217 
   34300   -254.56204     42.89859   -211.66345    3101.6629    197705.35    10.472245    581.08854 
   34400   -258.61366    35.585501   -223.02815    2572.9104    180984.95    10.472245    581.98225 
   34500   -258.51445    41.343383   -217.17107    2989.2181    188035.97    10.472245    585.39144 
   34600   -249.81883    38.826212   -210.99262     2807.221    202338.75    10.472245    593.36629 
   34700   -257.27589    36.766453   -220.50944    2658.2959    184614.25    10.472245    595.56002 
   34800   -254.61816    37.627475   -216.99069    2720.5497    190204.27    10.472245    595.42544 
   34900   -249.04594    36.966517   -212.07942    2672.7609    207551.17    10.472245    601.76489 
   35000   -256.29207    40.149909   -216.14216    2902.9273    187784.54    10.472245    601.30067 
   35100   -259.66769    38.552794    -221.1149    2787.4523    178756.01    10.472245    603.44428 
   35200   -256.66657    43.826701   -212.83987    3168.7674    190242.24    10.472245     604.8591 
   35300   -254.19168    37.218854   -216.97283    2691.0054    189481.48    10.472245    606.49991 
   35400   -251.69206    43.228485   -208.46357    3125.5151    201954.36    10.472245    609.47327 
   35500   -253.77123    37.771348   -215.99988     2730.952    191489.88    10.472245    618.91909 
   35600   -250.97782    37.854774   -213.12304    2736.9839    198044.15    10.472245    622.10807 
   35700   -249.06086    35.951808   -213.10905    2599.3952    208010.83    10.472245    620.38946 
   35800   -257.60324    34.627572   -222.97567      2503.65    187182.46    10.472245    627.55966 
   35900   -250.77438    39.274846   -211.49953    2839.6582    202601.75    10.472245    631.78727 
   36000   -254.07362    40.122198   -213.95143    2900.9236    192989.58    10.472245    632.02688 
   36100    -253.4532    44.977474   -208.47573    3251.9708    198587.45    10.472245    625.78851 
   36200   -253.92458    44.264133   -209.66044    3200.3947    197954.15    10.472245    623.11217 
   36300   -257.80695    43.019944   -214.78701    3110.4371       185141    10.472245     627.4372 
   36400   -257.75085    41.267988   -216.48286    2983.7668    185208.38    10.472245    628.20035 
   36500    -250.6668    44.316682   -206.35012    3204.1941    205915.63    10.472245    635.49026 
   36600   -253.32024    38.572551   -214.74769    2788.8808    197267.36    10.472245      639.835 
   36700   -253.67697    36.712006   -216.96497    2654.3592    190605.91    10.472245    635.05519 
   36800    -252.4864    47.516832   -204.96957    3435.5721    204090.42    10.472245    634.18394 
   36900   -256.48256    44.569015   -211.91354    3222.4384    191558.48    10.472245    634.63044 
   37000   -257.18932    35.921708   -221.26761     2597.219    187842.03    10.472245     635.0369 
   37100    -256.9966    38.220284   -218.77632    2763.4111    189930.63    10.472245    634.54857 
   37200   -253.02207    43.433742   -209.58833    3140.3556    197215.44    10.472245    639.10549 
   37300   -252.65364     37.43606   -215.21758    2706.7099    198522.75    10.472245     641.7127 
   37400   -257.38774    36.530776   -220.85696    2641.2559    183486.16    10.472245    642.07123 
   37500   -249.60633    40.411561   -209.19477    2921.8452    213579.22    10.472245    645.33027 
   37600   -250.86317    36.884043   -213.97913    2666.7979    200490.96    10.472245     643.7991 
   37700   -257.22184    40.574659   -216.64718    2933.6376    184531.57    10.472245    641.19849 
   37800   -248.83589     41.52914   -207.30675    3002.6487    209288.98    10.472245    644.32095 
   37900   -252.84822    37.015421    -215.8328    2676.2968    196416.53    10.472245    646.00919 
   38000   -254.74219    38.843808   -215.89839    2808.4933    194691.28    10.472245    649.73891 
   38100   -249.81971    42.049494   -207.77022    3040.2715    212652.13    10.472245    648.86841 
   38200   -250.26643    45.363463   -204.90297    3279.8787    206152.58    10.472245    644.08581 
   38300   -254.91906    40.693474   -214.22559    2942.2282    193436.56    10.472245     640.3579 
   38400   -258.20546    38.722269   -219.48319    2799.7057    183635.97    10.472245    639.47721 
   38500   -251.57155    36.340558   -215.23099    2627.5027    203001.43    10.472245    634.41709 
   38600   -257.13056    47.525005   -209.60555    3436.1629    188280.51    10.472245    636.35185 
   38700   -256.26725    36.747165   -219.52009    2656.9013    186252.51    10.472245    640.39569 
   38800   -260.81639    32.272048   -228.54434    2333.3404    171025.49    10.472245    640.42187 
   38900   -254.64321    38.073903   -216.56931    2752.8274    191856.09    10.472245    641.16024 
   39000    -250.7551    39.190481   -211.56462    2833.5584    203558.09    10.472245    637.50142 
   39100   -255.38434    43.805493   -211.57885    3167.2341    192719.31    10.472245    639.07726 
   39200   -254.24178    34.228073   -220.01371    2474.7654    193268.74    10.472245    642.34031 
   39300   -251.91059    42.606579   -209.30401    3080.5499    200518.93    10.472245    645.23528 
   39400   -252.68824    41.333398   -211.35485    2988.4961    195956.24    10.472245    652.23498 
   39500   -251.75246    36.495372   -215.25709    2638.6961    197567.25    10.472245    661.63789 
   39600   -246.72151    42.651124   -204.07039    3083.7706    218566.64    10.472245    662.08549 
   39700   -252.72027    39.921038   -212.79923    2886.3794    199808.39    10.472245    672.80239 
   39800   -256.72656    43.273675   -213.45288    3128.7824    189289.08    10.472245    669.08243 
   39900   -256.59966    43.443661     -213.156    3141.0728    190096.74    10.472245    676.00392 
   40000   -252.58737    37.369646   -215.21773    2701.9081    197933.65    10.472245    681.64907 
   40100   -256.47046    43.782049   -212.68841     3165.539    193467.05    10.472245    676.83078 
   40200   -249.99502    39.996054   -209.99896    2891.8032    204323.77    10.472245    678.60277 
   40300    -255.9702    38.093515   -217.87669    2754.2454     187094.7    10.472245    673.38694 
   40400   -252.74665    39.922709   -212.82394    2886.5002    198549.71    10.472245    676.86271 
   40500   -253.46269    42.347764   -211.11492     3061.837    197026.85    10.472245    673.39574 
   40600   -254.56016    35.886107   -218.67405    2594.6449     191468.7    10.472245    675.75921 
   40700   -248.75449    40.278292   -208.47619    2912.2096    212573.42    10.472245    675.88475 
   40800   -249.14364    41.284571   -207.85907    2984.9658    209391.87    10.472245    680.68332 
   40900   -258.47276    37.572047   -220.90071    2716.5421    182803.77    10.472245    683.03821 
   41000   -255.46062    38.234277   -217.22635    2764.4228    187445.92    10.472245    689.85716 
   41100   -249.29663    39.092509   -210.20412    2826.4749    209080.57    10.472245    687.66743 
   41200   -249.43826    36.492086   -212.94618    2638.4585    205388.32    10.472245    682.09847 
   41300    -259.4516    36.853373   -222.59823    2664.5804    180116.31    10.472245    682.96961 
   41400   -254.08259    41.021764   -213.06082    2965.9642    194176.33    10.472245    687.78091 
   41500   -255.40561    39.016464   -216.38914    2820.9766     188663.4    10.472245    687.18157 
   41600   -259.40369    33.730875   -225.67281    2438.8169    175661.98    10.472245    693.73359 
   41700   -254.59056    40.136527   -214.45403    2901.9597    192170.86    10.472245    695.10973 
   41800   -249.34418    39.127412   -210.21676    2828.9985    208155.84    10.472245     695.7972 
   41900   -258.30551    43.835245   -214.47026    3169.3852    186074.04    10.472245    689.69368 
   42000   -251.29057    37.790297   -213.50027     2732.322    205387.57    10.472245    689.59323 
   42100   -246.64784    41.112191   -205.53565    2972.5023    218956.37    10.472245     687.7049 
   42200   -256.02006    39.135368   -216.88469    2829.5736    187504.08    10.472245    690.46517 
   42300   -259.88274    47.002359   -212.88038    3398.3746     181262.6    10.472245     692.4815 
   42400   -244.72281    43.941772   -200.78104    3177.0873    229036.33    10.472245    690.97168 
   42500   -248.10616    39.529817   -208.57634    2858.0932    212370.87    10.472245    696.44286 
   42600   -253.58004    36.849974   -216.73006    2664.3346    200901.86    10.472245    695.11611 
   42700   -254.86073    44.841046   -210.01968    3242.1068    195709.13    10.472245    693.06369 
   42800   -247.41015    38.572373   -208.83778    2788.8679    213002.76    10.472245    695.68773 
   42900   -250.65427    38.929288   -211.72498    2814.6737    201776.61    10.472245    691.62966 
   43000    -258.0674      36.4613    -221.6061    2636.2326     183064.6    10.472245    692.16163 
   43100   -255.06189    39.641231   -215.42065    2866.1487    189897.69    10.472245    689.88492 
   43200   -247.54573    37.482202   -210.06353    2710.0461    212238.61    10.472245    689.57263 
   43300   -253.16283     37.95696   -215.20587    2744.3722    200322.75    10.472245    688.73878 
   43400   -255.00763    37.459123   -217.54851    2708.3774    188768.56    10.472245    690.59616 
   43500   -249.01514    37.439027   -211.57612    2706.9244    207572.81    10.472245    695.68308 
   43600   -252.87763    36.536257   -216.34138    2641.6522    199206.44    10.472245    693.60634 
   43700   -255.29918    35.239589   -220.05959    2547.9003    185653.56    10.472245    693.30919 
   43800   -252.71873    40.371243   -212.34749    2918.9302    196931.87    10.472245    693.95975 
   43900   -247.24636    33.889926   -213.35644    2450.3166    210345.24    10.472245     691.7868 
   44000   -252.37926    45.947948   -206.43131    3322.1383    201517.27    10.472245    688.45688 
   44100   -254.01577    36.647916   -217.36785    2649.7254    191054.42    10.472245    688.25895 
   44200   -253.92267    44.045226   -209.87744    3184.5673    195281.75    10.472245    690.51822 
   44300    -255.9127    38.457928   -217.45477    2780.5932    191484.77    10.472245    690.33064 
   44400    -254.7245    38.531491   -216.19301    2785.9121    191470.82    10.472245     690.5002 
   44500   -250.81873     41.26678   -209.55195    2983.6795    205103.38    10.472245    689.64739 
   44600   -252.91871    37.080065   -215.83864    2680.9707    195154.67    10.472245    694.20758 
   44700   -257.05817    38.615298   -218.44287    2791.9715     187524.1    10.472245    689.10621 
   44800   -254.54436    42.646391   -211.89797    3083.4284    191783.34    10.472245     689.1056 
   44900   -251.49555    35.702688   -215.79286    2581.3833    205410.18    10.472245    696.92278 
   45000   -249.46157    41.033629   -208.42794    2966.8222    209170.34    10.472245    699.89992 
   45100   -252.36373    37.510479   -214.85325    2712.0906    203170.38    10.472245    703.71464 
   45200   -256.15947    38.337362   -217.82211    2771.8761    186490.79    10.472245    704.24767 
   45300   -256.58333    46.784617   -209.79871    3382.6313    189853.64    10.472245    700.89839 
   45400   -251.04143    49.011894   -202.02954    3543.6684    206383.42    10.472245    705.84459 
   45500   -251.59772    37.378118    -214.2196    2702.5206    199724.15    10.472245    703.85949 
   45600   -256.70165    42.094061   -214.60759    3043.4937    190303.45    10.472245    715.31656 
   45700    -250.7951    46.419716   -204.37539    3356.2481    210811.49    10.472245    715.20825 
   45800   -250.26133    40.039257   -210.22207    2894.9268    206157.02    10.472245    713.77032 
   45900   -250.10552     35.52705   -214.57847    2568.6843    201533.66    10.472245    711.77543 
   46000   -252.82625    39.599569   -213.22668    2863.1364    200664.97    10.472245    716.48673 
   46100    -254.6189    42.371126   -212.24777    3063.5262    195505.82    10.472245    722.05664 
   46200   -259.06209    42.352278   -216.70981    3062.1634    183593.17    10.472245    723.33144 
   46300   -256.64297    34.981075   -221.66189    2529.2091     186891.5    10.472245    725.88465 
   46400   -252.87815    39.168339   -213.70981    2831.9575    199184.28    10.472245    730.34031 
   46500   -252.21574    42.639012   -209.57673    3082.8948    205401.43    10.472245     730.7421 
   46600   -254.47676    37.350788   -217.12598    2700.5446    195343.07    10.472245    740.66326 
   46700   -255.58746    43.665715   -211.92174    3157.1278    191072.37    10.472245    741.45449 
   46800   -254.45076    37.785188   -216.66557    2731.9526    193025.62    10.472245    738.91695 
   46900   -258.98485    39.725922   -219.25893     2872.272     181058.2    10.472245    741.86303 
   47000   -255.78345    43.438051    -212.3454    3140.6672    191557.07    10.472245     744.1177 
   47100    -251.5253    43.050237   -208.47506    3112.6274    203766.42    10.472245    740.67106 
   47200   -255.29656    36.633175   -218.66338    2648.6595     188739.3    10.472245    746.98095 
   47300   -255.21909    37.811087     -217.408    2733.8252    190097.42    10.472245    747.07748 
   47400   -249.20141    40.733893   -208.46751    2945.1505    209159.69    10.472245    745.99501 
   47500   -258.68379    42.651644   -216.03214    3083.8082    184956.48    10.472245    743.70191 
   47600   -248.64869    34.346068   -214.30263    2483.2967    210915.54    10.472245    742.88678 
   47700   -251.22927     38.39628   -212.83299     2776.136    200939.92    10.472245    742.58305 
   47800   -258.67025    42.240245   -216.43001    3054.0631    182623.02    10.472245    742.64691 
   47900   -258.39324    41.725511   -216.66773    3016.8467    181366.61    10.472245    740.62144 
   48000   -255.89604    46.029736   -209.86631    3328.0517    194120.74    10.472245    731.89377 
   48100   -252.17662    34.111453   -218.06517    2466.3335    195379.99    10.472245    731.57057 
   48200   -248.83004    43.805522   -205.02452    3167.2362    212244.82    10.472245    736.99046 
   48300   -251.73478    35.603639   -216.13114    2574.2218    195773.71    10.472245    739.32045 
   48400     -255.129    39.294807   -215.83419    2841.1015     186280.9    10.472245    745.24015 
   48500   -249.30963     43.91325   -205.39638    3175.0251    210178.57    10.472245    746.57729 
   48600   -251.40255     36.02258   -215.37997    2604.5122    200174.88    10.472245    750.19061 
   48700   -253.78065    38.446557    -215.3341    2779.7711    195549.31    10.472245    752.89991 
   48800   -248.04143    40.452602   -207.58883    2924.8126    214355.43    10.472245     752.5025 
   48900   -250.03439    45.942334   -204.09205    3321.7324    208504.17    10.472245    753.63412 
   49000   -256.21244    39.180726   -217.03172    2832.8531    185202.94    10.472245    758.41992 
   49100   -255.86274    41.956256   -213.90648    3033.5301    189315.89    10.472245     761.7849 
   49200   -250.94514    42.347905   -208.59723    3061.8472    207124.57    10.472245    762.76502 
   49300    -254.6636    36.738031   -217.92557    2656.2409    191188.54    10.472245    760.66936 
   49400   -253.09925     43.47264   -209.62661     3143.168    204231.85    10.472245     755.4893 
   49500   -256.54916     36.71803   -219.83113    2654.7948    186376.47    10.472245    752.09042 
   49600   -251.52633    33.017344   -218.50898     2387.227    198534.62    10.472245    748.15102 
   49700   -253.99612    41.328022    -212.6681    2988.1074    197056.95    10.472245    753.59418 
   49800   -254.40616    38.425803   -215.98036    2778.2705    194175.14    10.472245    750.10656 
   49900    -259.8822    38.133657   -221.74854    2757.1477    179335.14    10.472245    750.88795 
   50000   -250.97709    40.302982    -210.6741    2913.9947    198604.04    10.472245    757.85679 
   50100    -251.8638    37.388751   -214.47505    2703.2894    195515.07    10.472245    756.31965 
   50200   -258.12131    35.495584   -222.62572    2566.4092    182753.55    10.472245    756.45841 
   50300   -247.92241    36.092699   -211.82971    2609.5819    211373.44    10.472245    757.62883 
   50400   -251.73461    40.000626   -211.73398    2892.1337    203326.89    10.472245    761.45207 
   50500   -255.20756    38.749559     -216.458    2801.6788    197065.11    10.472245    766.25936 
   50600   -254.35742    40.298734   -214.05868    2913.6876    192803.21    10.472245    765.05662 
   50700   -248.40594    42.040654   -206.36529    3039.6323    211803.93    10.472245    763.12381 
   50800    -254.9103     37.83506   -217.07524    2735.5585    190569.95    10.472245    773.65575 
   50900   -255.86913     41.88574   -213.98339    3028.4316    189721.62    10.472245    782.63085 
   51000   -253.07119    43.258435   -209.81275    3127.6805    200592.69    10.472245     782.3553 
   51100    -246.9835    40.142963   -206.84054     2902.425    214091.58    10.472245    778.79003 
   51200   -257.06514    39.612503   -217.45264    2864.0716    184869.72    10.472245    774.54249 
   51300    -251.6866    38.537411   -213.14919    2786.3401    201475.39    10.472245    777.05658 
   51400   -243.13039    44.017156   -199.11324    3182.5378    223786.06    10.472245    772.69234 
   51500   -250.80107    42.904621   -207.89645     3102.099    204067.18    10.472245    774.05883 
   51600   -255.65692    37.587702   -218.06922     2717.674     189277.4    10.472245    771.81614 
   51700   -253.56207    40.904536   -212.65753    2957.4884    193223.61    10.472245    770.72531 
   51800   -250.76393    38.062136    -212.7018    2751.9766    202514.91    10.472245    779.67301 
   51900    -258.4884    35.456558   -223.03185    2563.5876    176638.42    10.472245    780.32376 
   52000    -251.5898    38.601055   -212.98875    2790.9417    203526.37    10.472245     783.5423 
   52100   -253.68153    41.691891   -211.98964     3014.416    202200.85    10.472245    775.71329 
   52200   -256.26706    38.214443   -218.05262    2762.9887    184735.41    10.472245    775.68385 
   52300   -251.48395    37.185467   -214.29849    2688.5915    201700.14    10.472245    769.87279 
   52400   -251.44251    41.782258   -209.66026    3020.9496    202748.63    10.472245    764.97097 
   52500   -253.58327    41.561411   -212.02186    3004.9819    190356.54    10.472245    765.45533 
   52600   -255.91046    40.775413   -215.13504    2948.1526    190178.33    10.472245     760.0749 
   52700   -252.46107    36.506389   -215.95468    2639.4926    198654.71    10.472245    763.17931 
   52800   -251.08178    41.766997   -209.31478    3019.8463    206563.23    10.472245    758.97208 
   52900   -255.19249    35.766985    -219.4255    2586.0322    194140.06    10.472245    759.32091 
   53000   -253.63076    40.090873   -213.53989    2898.6588    196247.03    10.472245    755.90547 
   53100   -257.84774    44.686278   -213.16146    3230.9167    184078.57    10.472245    752.65148 
   53200   -253.89636    33.025002   -220.87136    2387.7807    190730.47    10.472245     755.7759 
   53300   -253.78782    38.725226   -215.06259    2799.9195    194517.76    10.472245    759.17464 
   53400    -254.0857    43.744954   -210.34074    3162.8569    198013.95    10.472245    758.20065 
   53500   -254.64632    46.068185   -208.57814    3330.8316    195828.22    10.472245    759.88066 
   53600    -253.3204    35.988028   -217.33237     2602.014    191764.33    10.472245    765.34216 
   53700   -259.17578    49.523282    -209.6525    3580.6428     182952.9    10.472245    765.76949 
   53800   -252.18302    43.311282   -208.87174    3131.5015    198405.05    10.472245    762.29859 
   53900   -254.62396    38.097884   -216.52607    2754.5613    194338.48    10.472245    765.41496 
   54000   -249.69015    41.856786   -207.83336    3026.3382     211156.7    10.472245    769.84778 
   54100   -252.23148    45.265594   -206.96589    3272.8025    202315.67    10.472245    772.88601 
   54200   -254.69184    39.607563   -215.08428    2863.7144    192737.76    10.472245    777.38502 
   54300   -250.14121    34.622037   -215.51917    2503.2498    198578.57    10.472245    778.00581 
   54400    -250.2024    43.431278   -206.77112    3140.1774    206686.55    10.472245    782.83699 
   54500   -252.15774    36.738127   -215.41961    2656.2478    197652.69    10.472245    779.71406 
   54600   -250.88979    40.818276   -210.07151    2951.2516    203167.42    10.472245    781.50874 
   54700   -255.73134    41.958349   -213.77299    3033.6814    190915.23    10.472245    786.71654 
   54800    -258.5537    38.464131   -220.08956    2781.0418    183191.03    10.472245    778.00004 
   54900   -249.90356    41.049083   -208.85447    2967.9395    209624.65    10.472245    772.95001 
   55000   -253.75204    39.095669   -214.65638    2826.7033    201603.11    10.472245    773.37484 
   55100   -257.21111    40.844739   -216.36637     2953.165    185744.89    10.472245    773.47497 
   55200   -247.24347    39.641213   -207.60226    2866.1474    211027.94    10.472245    777.49563 
   55300   -252.93062    37.110366   -215.82025    2683.1616    198814.96    10.472245    773.57773 
   55400   -248.37089    36.081571   -212.28932    2608.7774    208149.59    10.472245    777.13502 
   55500   -252.05556    41.654214   -210.40135    3011.6918    201600.41    10.472245    781.12836 
   55600   -254.82876     42.51359   -212.31517    3073.8266    191334.88    10.472245    779.45967 
   55700   -253.87326    35.510625   -218.36263    2567.4967    193097.81    10.472245    782.60816 
   55800   -252.14728    42.051078    -210.0962     3040.386     201559.1    10.472245    787.95232 
   55900   -251.58157    36.736335   -214.84523    2656.1183    195536.85    10.472245    787.08556 
   56000   -255.41702    31.940451   -223.47657    2309.3653    184732.18    10.472245    794.98263 
   56100   -256.69916    37.756906   -218.94226    2729.9078    184320.43    10.472245    793.00997 
   56200   -251.73761    39.266578   -212.47103    2839.0604     206313.7    10.472245    794.13523 
   56300   -250.73466    41.509395   -209.22527    3001.2211    205730.87    10.472245    788.54558 
   56400   -255.99388     36.81706   -219.17682    2661.9549    188211.88    10.472245    792.27172 
   56500   -253.55335    40.182341   -213.37101    2905.2721    196119.03    10.472245     798.8385 
   56600   -252.90069    42.711633   -210.18906    3088.1455    198976.92    10.472245     806.6364 
   56700   -255.05225    44.440005   -210.61224    3213.1107    198732.88    10.472245    808.16445 
   56800   -257.82859    36.342233   -221.48636    2627.6239     181263.3    10.472245    813.01011 
   56900   -249.80876    35.219336   -214.58943    2546.4359    205335.08    10.472245    813.04996 
   57000   -250.70581    40.042621   -210.66318    2895.1701    204057.67    10.472245    817.03851 
   57100   -255.33618     37.91645   -217.41973    2741.4432    192370.15    10.472245    817.43092 
   57200   -254.92027     35.19446   -219.72581    2544.6373    188410.34    10.472245     821.8434 
   57300   -253.71076    41.201945   -212.50882    2978.9917    195710.43    10.472245    823.99581 
   57400   -257.28722    40.973112    -216.3141    2962.4466    184548.52    10.472245    832.80588 
   57500   -255.55128    34.943304   -220.60798    2526.4781    186308.34    10.472245    832.84849 
   57600   -254.96106    45.198487   -209.76258    3267.9506    200741.11    10.472245    834.76179 
   57700   -251.41632    35.357292   -216.05903    2556.4104    199437.28    10.472245    835.09428 
   57800   -252.93105    38.753817   -214.17723    2801.9867     199943.7    10.472245    837.52051 
   57900   -252.25615    42.237207   -210.01894    3053.8435     204307.2    10.472245    830.50666 
   58000   -251.00686    32.485504   -218.52135    2348.7738     199854.5    10.472245    835.02914 
   58100   -256.34282    39.001468   -217.34135    2819.8924    184168.46    10.472245    832.99916 
   58200   -250.30247    42.643723   -207.65875    3083.2355    203707.51    10.472245    835.79591 
   58300   -252.07729    40.205584   -211.87171    2906.9527    203344.63    10.472245     834.4999 
   58400    -253.1439    38.709354   -214.43455    2798.7719    198208.58    10.472245    834.78897 
   58500   -254.73066    43.261163    -211.4695    3127.8778    193491.14    10.472245    837.72044 
   58600   -254.55074    38.834214   -215.71653    2807.7996    191391.56    10.472245     836.9229 
   58700   -257.53407    43.998015   -213.53606    3181.1538    188860.47    10.472245    835.03296 
   58800   -249.56263    42.202274   -207.36036    3051.3177    212561.94    10.472245    838.16929 
   58900   -251.92617    38.269924   -213.65624    2767.0001     204328.9    10.472245    848.47803 
   59000   -251.45331    40.159206   -211.29411    2903.5994    203392.01    10.472245    849.57672 
   59100   -247.80499    40.709183    -207.0958     2943.364    211262.79    10.472245    845.24142 
   59200   -255.34157    40.052052   -215.28952    2895.8519    191014.13    10.472245    846.03293 
   59300   -259.27541    37.945166   -221.33024    2743.5194     178930.7    10.472245    837.57877 
   59400   -255.63284    36.633315   -218.99953    2648.6697    191939.33    10.472245    851.19254 
   59500   -253.78456    39.072113   -214.71245    2825.0002    195321.09    10.472245    848.71075 
   59600   -248.60693    41.102569   -207.50436    2971.8066    210411.42    10.472245     845.8116 
   59700   -255.42159    44.732522   -210.68906    3234.2603    193099.13    10.472245    847.29668 
   59800   -256.93301    39.932478   -217.00053    2887.2065    183301.69    10.472245    850.45167 
   59900    -250.5194    42.110976   -208.40843    3044.7167    205686.26    10.472245    855.33598 
   60000   -248.83203    39.903149   -208.92888    2885.0859    210699.07    10.472245    856.58936 
   60100   -256.92481    37.613263   -219.31155    2719.5221       184817    10.472245    858.12021 
   60200   -253.03518    42.409016   -210.62616    3066.2656    200488.83    10.472245    856.96388 
   60300   -249.46151    39.534638   -209.92687    2858.4417    209022.95    10.472245    855.39734 
   60400   -258.79486    33.533466   -225.26139    2424.5438    179636.19    10.472245    850.66995 
   60500   -256.76138     40.55651   -216.20487    2932.3254    186347.63    10.472245    857.26304 
   60600   -252.94943    40.249319   -212.70011    2910.1148     195736.8    10.472245    861.36675 
   60700   -258.38262    41.699086   -216.68354    3014.9361    190079.78    10.472245    868.14376 
   60800   -247.14695    41.411974   -205.73498    2994.1773    217479.68    10.472245    870.10779 
   60900   -253.83353    37.815694   -216.01784    2734.1584     194096.2    10.472245    869.42801 
   61000   -251.33693    35.744409   -215.59252    2584.3998    199211.55    10.472245    868.72925 
   61100   -249.79533    42.788668   -207.00666    3093.7154    210949.92    10.472245    873.23356 
   61200   -244.65738    43.917943   -200.73943    3175.3644    223599.34    10.472245    874.89157 
   61300   -249.04451    35.762707    -213.2818    2585.7228    207602.89    10.472245    881.04876 
   61400   -258.56732    40.763736   -217.80359    2947.3083    181578.28    10.472245    879.71789 
   61500   -251.81457    38.393202   -213.42137    2775.9134    201907.32    10.472245    875.78063 
   61600   -254.36791    44.857787   -209.51012    3243.3172    197385.34    10.472245    876.09377 
   61700   -253.35725    35.867532   -217.48972    2593.3019    193003.09    10.472245    881.22375 
   61800   -254.80104    40.548431   -214.25261    2931.7413    193162.53    10.472245    878.43543 
   61900   -251.99955    47.556439   -204.44311    3438.4357    204936.67    10.472245    878.98219 
   62000   -248.77393    40.228893   -208.54504     2908.638    208350.96    10.472245    882.52702 
   62100   -250.05789    38.002086    -212.0558    2747.6349    201279.93    10.472245    888.89553 
   62200   -257.80775    43.095793   -214.71196    3115.9212    186223.65    10.472245    897.54259 
   62300   -258.17653    39.078578   -219.09795    2825.4676    188347.75    10.472245    904.47551 
   62400   -250.61673    41.808467   -208.80827    3022.8446    205891.27    10.472245    903.43803 
   62500   -250.43818    37.355084    -213.0831    2700.8552    202556.32    10.472245    905.49981 
   62600   -250.91718     39.32442   -211.59276    2843.2426     202544.1    10.472245    908.46254 
   62700   -254.49851    49.838341   -204.66017    3603.4223    196596.79    10.472245    904.24767 
   62800    -250.2113    35.562962   -214.64834    2571.2808       201883    10.472245    913.20968 
   62900   -255.00763    46.209136    -208.7985    3341.0227     193943.8    10.472245    924.34867 
   63000    -256.0053    42.558459   -213.44684    3077.0707     191276.3    10.472245    927.27638 
   63100   -254.61855    37.781981   -216.83657    2731.7208    190584.77    10.472245    931.74258 
   63200   -250.01575    40.074787   -209.94097    2897.4958    207265.83    10.472245    939.10715 
   63300   -253.25695    40.857368   -212.39958    2954.0781    198312.87    10.472245    934.26456 
   63400   -249.80908    38.372448   -211.43664    2774.4129    202980.25    10.472245    929.52357 
   63500   -252.76987     38.26427    -214.5056    2766.5914    199161.17    10.472245    928.25118 
   63600    -253.9188    35.468774   -218.45003    2564.4708    194743.28    10.472245    926.75999 
   63700   -255.41775    47.488952    -207.9288    3433.5563    197552.01    10.472245     930.5311 
   63800   -257.62369    39.820299   -217.80339    2879.0957    187508.44    10.472245    941.06723 
   63900   -250.70999    35.873506   -214.83648    2593.7339     202588.7    10.472245    947.59475 
   64000   -256.85078    44.097194   -212.75359    3188.3246    193731.34    10.472245    944.81799 
   64100   -257.72369     35.33444   -222.38925    2554.7582    182460.16    10.472245    947.71418 
   64200    -257.8399    40.744727   -217.09517    2945.9339    186953.94    10.472245    950.48743 
   64300   -256.62911    41.550466   -215.07865    3004.1906    186968.51    10.472245    943.81313 
   64400   -256.13036    39.685835   -216.44453    2869.3736    187148.74    10.472245    947.18952 
   64500   -251.99909    40.820014   -211.17907    2951.3773    196303.32    10.472245    952.81638 
   64600   -253.82407    38.601219   -215.22285    2790.9535    192785.55    10.472245    955.91169 
   64700   -258.22172    39.620033   -218.60169     2864.616    187947.74    10.472245      955.539 
   64800   -251.82861    37.543036   -214.28558    2714.4446    201526.93    10.472245    961.37144 
   64900   -250.48302    40.136462   -210.34655     2901.955    206872.67    10.472245    966.52056 
   65000   -246.58023    40.005183   -206.57504    2892.4632    217901.68    10.472245    963.63431 
   65100   -254.89374    37.917302   -216.97644    2741.5048    193071.48    10.472245    961.48011 
   65200   -256.85062    42.676241   -214.17438    3085.5866    189185.11    10.472245    958.52369 
   65300   -248.44912    42.444041   -206.00508     3068.798    214292.57    10.472245    960.72437 
   65400   -253.34873    38.072742   -215.27599    2752.7435    196808.98    10.472245    957.99355 
   65500   -251.50605    40.949522   -210.55652     2960.741    200413.36    10.472245    966.16575 
   65600   -254.62466    43.035835   -211.58882    3111.5861    193407.54    10.472245    968.69942 
   65700   -259.10649    43.402636   -215.70385    3138.1066    180744.92    10.472245    974.78071 
   65800   -253.43738    40.777853   -212.65952     2948.329    200938.32    10.472245    974.66632 
   65900    -256.8686    43.384352   -213.48425    3136.7846    187496.71    10.472245     975.2359 
   66000   -258.45887    37.227555   -221.23131    2691.6346    180199.42    10.472245    982.96386 
   66100   -251.67937    37.251425   -214.42794    2693.3604    202151.09    10.472245    987.00412 
   66200   -252.36368     35.78853   -216.57515    2587.5899    197045.07    10.472245    985.54452 
   66300   -251.97033    43.414281   -208.55605    3138.9486    203149.71    10.472245    986.99377 
   66400   -255.46305    40.914256    -214.5488    2958.1912     193450.7    10.472245    985.82821 
   66500   -257.60509    37.091479   -220.51361     2681.796    183491.67    10.472245    982.63252 
   66600   -255.50681     43.63991    -211.8669     3155.262     191854.7    10.472245    983.65675 
   66700   -249.06418    35.435588   -213.62859    2562.0714    206361.69    10.472245     982.3482 
   66800   -248.75535     32.81637   -215.93898    2372.6961     203543.7    10.472245      986.791 
   66900   -252.10618    41.516047   -210.59013     3001.702    199226.41    10.472245     992.8458 
   67000   -257.95076    43.976153   -213.97461    3179.5731    185529.34    10.472245    996.36329 
   67100   -254.77841     35.65179   -219.12662    2577.7033    191775.65    10.472245    1003.9505 
   67200   -254.89921     42.13488   -212.76433     3046.445    193027.25    10.472245    1002.5091 
   67300   -251.68851    38.777391   -212.91112    2803.6911    205142.91    10.472245    1010.7962 
   67400   -255.55893    39.494328    -216.0646    2855.5273    189781.77    10.472245    1010.3146 
   67500   -255.90855    37.586735   -218.32182     2717.604    187154.97    10.472245    1011.5522 
   67600   -255.13595    47.076853   -208.05909    3403.7606    193758.83    10.472245    1010.5832 
   67700   -252.27239    32.900534   -219.37186    2378.7814    195251.27    10.472245    1009.9399 
   67800   -254.65593    40.831388   -213.82454    2952.1997     191975.1    10.472245    1005.0809 
   67900   -258.12484    45.955366   -212.16948    3322.6746    186973.45    10.472245    1002.4468 
   68000   -261.59857     40.42932   -221.16925    2923.1293    171069.66    10.472245    1002.5906 
   68100   -252.62621    38.196022   -214.43019    2761.6569     197887.2    10.472245    1007.0567 
   68200   -250.19023    37.692776   -212.49745    2725.2711    202414.53    10.472245    1000.6406 
   68300   -256.04474    34.874919   -221.16983    2521.5338    186627.88    10.472245    1003.9052 
   68400   -252.82904    40.160888   -212.66815     2903.721    196552.61    10.472245    1005.4571 
   68500   -254.71978    41.607942   -213.11184    3008.3462    195606.47    10.472245    1007.3239 
   68600   -260.41804    43.585817   -216.83222     3151.351    179125.63    10.472245    1008.2192 
   68700   -255.64684    39.858542    -215.7883    2881.8608    187454.89    10.472245    1012.3738 
   68800   -252.96367    42.128029   -210.83564    3045.9497    200049.02    10.472245    1006.0542 
   68900   -259.74355    42.548836   -217.19472    3076.3749    178391.57    10.472245    1008.0855 
   69000   -257.48184    42.622248   -214.85959    3081.6828    187377.35    10.472245    1012.2652 
   69100   -248.88665    36.730451    -212.1562    2655.6928    208535.11    10.472245    1010.2958 
   69200   -252.22565    48.012364   -204.21328    3471.4001    205095.63    10.472245    1011.7631 
   69300   -254.19982    38.956363   -215.24345    2816.6312    192795.98    10.472245    1009.8161 
   69400   -254.64569    38.664921   -215.98077    2795.5593    192424.42    10.472245    1011.7272 
   69500   -247.06557    43.645304   -203.42027     3155.652    214332.23    10.472245    1019.5049 
   69600   -252.22199    41.680208   -210.54178    3013.5713    202838.27    10.472245    1022.6227 
   69700   -253.14144    37.521187   -215.62025    2712.8648    199912.98    10.472245    1027.0019 
   69800   -254.15686    37.266243   -216.89062    2694.4318    192497.06    10.472245    1029.4623 
   69900    -252.2902     42.78336   -209.50684    3093.3316    199207.81    10.472245    1030.6958 
   70000   -252.65027    38.852935   -213.79733    2809.1531    199162.66    10.472245    1036.4145 
   70100   -256.17963    38.848746   -217.33089    2808.8503    188210.65    10.472245    1034.5623 
   70200   -254.22543    42.559921   -211.66551    3077.1764    195054.35    10.472245    1039.8903 
   70300   -259.23922    45.928278   -213.31095    3320.7161    185092.38    10.472245    1041.9345 
   70400   -255.10717    37.866355   -217.24082    2737.8212    193021.41    10.472245    1043.0276 
   70500   -251.69378     42.92474   -208.76904    3103.5536    200940.67    10.472245    1050.3038 
   70600   -251.58684    38.504587   -213.08226    2783.9668    206014.16    10.472245     1052.833 
   70700   -254.16467    37.893412   -216.27126    2739.7775    192806.06    10.472245    1060.8183 
   70800   -251.49859    39.579496    -211.9191    2861.6851     206169.6    10.472245    1065.1067 
   70900   -254.11035    41.205524   -212.90482    2979.2505    198344.62    10.472245    1056.5839 
   71000   -253.62024    38.647981   -214.97226    2794.3345    193277.87    10.472245    1055.3919 
   71100   -249.42163     40.75338   -208.66825    2946.5595    209867.23    10.472245    1051.7247 
   71200   -255.23262    43.118608   -212.11401    3117.5707    191103.29    10.472245    1052.6277 
   71300   -252.29167    34.850396   -217.44127    2519.7607    200571.34    10.472245    1051.0029 
   71400   -251.82025    43.695433   -208.12481    3159.2765    202492.98    10.472245    1050.7614 
   71500   -257.37011    43.322614    -214.0475    3132.3208    182850.26    10.472245    1052.2342 
   71600   -258.13053    35.197407   -222.93312    2544.8504    179252.67    10.472245    1050.5512 
   71700   -254.08312    38.373295   -215.70983    2774.4741    191674.78    10.472245    1053.9758 
   71800    -249.6131    38.532461   -211.08064    2785.9821     206768.2    10.472245    1062.8364 
   71900   -256.43985    38.102586   -218.33726    2754.9012    182785.06    10.472245    1060.6881 
   72000    -259.5874    40.226361   -219.36104    2908.4548    179100.28    10.472245    1056.3302 
   72100    -249.6417    37.162209   -212.47949    2686.9099    205164.01    10.472245    1062.8129 
   72200   -251.01894    36.327354   -214.69158     2626.548    200020.28    10.472245    1063.4885 
   72300   -260.14417    37.871923   -222.27225    2738.2238    178672.27    10.472245     1070.878 
   72400   -253.06592    42.769795   -210.29613    3092.3508    198371.32    10.472245     1068.179 
   72500   -254.22463    39.271246   -214.95338     2839.398    196232.31    10.472245    1072.5582 
   72600   -253.05727    38.808713   -214.24855    2805.9558    204362.97    10.472245    1067.5947 
   72700   -247.61644    40.595534   -207.02091    2935.1469    218336.13    10.472245    1065.0129 
   72800   -257.89714    40.013684   -217.88345    2893.0779    186507.24    10.472245     1071.634 
   72900   -256.00662    40.349057   -215.65757    2917.3261    189913.06    10.472245    1059.6158 
   73000   -253.32345    42.093191   -211.23026    3043.4308    197585.85    10.472245    1068.6512 
   73100    -250.0384    41.776493    -208.2619    3020.5328    205292.68    10.472245    1067.4873 
   73200   -254.93069    37.453596    -217.4771    2707.9778    191259.07    10.472245    1069.7713 
   73300    -252.1049    42.652109   -209.45279    3083.8418    202419.59    10.472245    1070.0929 
   73400    -251.3965    44.302621   -207.09388    3203.1775    201241.06    10.472245    1065.1474 
   73500   -250.02993    37.831648   -212.19828    2735.3118    203423.75    10.472245    1072.5016 
   73600   -252.14392    37.117727   -215.02619    2683.6938     199832.8    10.472245    1074.4224 
   73700   -252.12806    39.159536   -212.96852     2831.321    197372.13    10.472245    1073.2303 
   73800   -255.92038    44.861316   -211.05907    3243.5724    191297.53    10.472245     1079.936 
   73900   -255.46163    38.236808   -217.22482    2764.6058    190842.87    10.472245    1071.2377 
   74000   -250.46277    46.177297   -204.28548    3338.7207    209032.18    10.472245    1072.0055 
   74100   -253.35256    40.407141   -212.94542    2921.5257    193603.52    10.472245     1070.442 
   74200   -253.34039    36.151828   -217.18857    2613.8571     196033.5    10.472245    1069.3255 
   74300   -248.66966    41.352988   -207.31668    2989.9125     214370.3    10.472245    1080.1188 
   74400   -258.69104    38.303429   -220.38761    2769.4227    181523.47    10.472245    1080.9096 
   74500   -249.56349    37.360776   -212.20272    2701.2668    207001.54    10.472245    1076.9884 
   74600   -251.91487    39.035491   -212.87938    2822.3523    197680.96    10.472245    1074.8744 
   74700   -256.61926    35.751908   -220.86735    2584.9421    186632.19    10.472245    1075.3061 
   74800   -254.89347    41.420041   -213.47343    2994.7606    195412.43    10.472245    1073.8897 
   74900   -253.87236    39.830242   -214.04212    2879.8146    194382.31    10.472245    1076.3504 
   75000   -255.00692    34.586817    -220.4201    2500.7034    188927.79    10.472245    1074.9502 
   75100   -253.62252    43.966157   -209.65636    3178.8504    195229.04    10.472245     1075.819 
   75200   -257.39921    42.184223   -215.21499    3050.0127    190348.81    10.472245    1079.9118 
   75300   -252.87842    36.479038   -216.39938    2637.5151    194429.82    10.472245    1081.9111 
   75400   -257.30859    42.869711   -214.43888    3099.5749    187210.44    10.472245    1084.5537 
   75500   -256.07689    40.249212   -215.82768     2910.107    187483.08    10.472245    1083.2889 
   75600   -248.19263    35.865816   -212.32681    2593.1778    212551.98    10.472245    1077.7286 
   75700    -251.1077    44.843189   -206.26451    3242.2618    205847.51    10.472245    1087.4615 
   75800   -255.71852    39.216406   -216.50211    2835.4329    188697.15    10.472245     1091.108 
   75900   -258.17125    43.228714   -214.94253    3125.5316    187723.45    10.472245    1094.2866 
   76000   -253.42692    44.529728   -208.89719    3219.5979    197719.72    10.472245    1089.5836 
   76100   -253.90542    39.506867   -214.39855    2856.4339    195282.83    10.472245    1102.7963 
   76200   -252.01286    36.235613   -215.77725     2619.915       200976    10.472245    1103.7941 
   76300   -251.98421     42.00028   -209.98393    3036.7132    204269.83    10.472245    1114.2934 
   76400   -257.40784    40.128305   -217.27953    2901.3652    186905.82    10.472245    1115.4832 
   76500   -251.01762     40.63476   -210.38286     2937.983     200231.4    10.472245     1119.132 
   76600   -250.19013    37.091817   -213.09831    2681.8204    201459.99    10.472245    1120.8019 
   76700   -254.35321    35.764143   -218.58907    2585.8267    192754.88    10.472245    1118.9269 
   76800    -247.1025    40.368348   -206.73415    2918.7208    212783.31    10.472245    1125.4123 
   76900   -247.38361    41.812671   -205.57093    3023.1486    213754.45    10.472245    1112.4509 
   77000   -256.38964    39.057209   -217.33243    2823.9226    187956.52    10.472245    1116.1252 
   77100   -258.36989     45.16762   -213.20227    3265.7188    186183.34    10.472245    1109.6359 
   77200   -244.66622    38.881171   -205.78504    2811.1947    218655.25    10.472245    1106.6598 
   77300   -256.18228     39.09832   -217.08396     2826.895    187566.62    10.472245     1109.127 
   77400   -253.01709    42.000881   -211.01621    3036.7566    196618.95    10.472245    1103.3345 
   77500   -249.01015     45.08393   -203.92622    3259.6679    212561.58    10.472245    1103.0246 
   77600   -253.35702    38.051019     -215.306    2751.1729     199155.7    10.472245    1103.7501 
   77700   -252.13585    39.577097   -212.55876    2861.5116    199254.03    10.472245    1107.3077 
   77800   -251.11651    44.720419    -206.3961    3233.3852     208433.2    10.472245     1107.784 
   77900   -252.13893    35.355208   -216.78373    2556.2598    198417.75    10.472245    1110.3976 
   78000   -251.99588    40.738053   -211.25783    2945.4513    199559.46    10.472245    1114.1471 
[...]
   81400   -252.48708    37.960474   -214.52661    2744.6262    199706.21    10.472245     1172.713 
   81500   -253.84453    40.913516   -212.93101    2958.1377    197892.94    10.472245    1169.3846 
   81600    -258.2887     36.23063   -222.05807    2619.5547    180648.24    10.472245    1177.5416 
   81700    -256.6515    42.417625   -214.23388    3066.8881    192423.34    10.472245    1174.1693 
   81800   -254.67578    40.677001   -213.99878    2941.0371    194574.38    10.472245    1174.0507 
   81900   -252.57733    42.075405   -210.50192    3042.1449     199438.6    10.472245    1175.1318 
   82000   -254.38303    41.490708   -212.89232      2999.87     196181.9    10.472245    1176.9089 
   82100   -258.76395      39.5881   -219.17585    2862.3072    182736.64    10.472245    1176.5266 
   82200   -260.86977    41.619374   -219.25039    3009.1728    175919.52    10.472245    1181.4278 
   82300    -250.9446    40.964417   -209.98018    2961.8179    202979.35    10.472245    1185.6303 
   82400   -254.56118     34.83498    -219.7262    2518.6461    188507.78    10.472245    1190.4662 
   82500   -256.22808    39.804924   -216.42316     2877.984     188121.8    10.472245    1189.0724 
   82600   -248.82892    35.303603   -213.52532    2552.5286    207872.96    10.472245    1200.1281 
   82700   -251.84675    49.827678   -202.01907    3602.6513    207445.22    10.472245    1210.1555 
   82800   -255.11185    41.368186   -213.74366    2991.0113    193892.84    10.472245    1210.8183 
   82900   -257.08745    40.784344   -216.30311    2948.7983     184655.4    10.472245    1216.9942 
   83000   -251.43163     46.56031   -204.87132    3366.4134    208773.83    10.472245    1214.5293 
   83100   -253.12887    40.124253   -213.00462    2901.0722       199010    10.472245    1212.2434 
   83200   -253.11072    38.030256   -215.08047    2749.6716    198592.64    10.472245    1214.8095 
   83300   -251.52875    40.184271   -211.34448    2905.4117    203102.83    10.472245    1211.6953 
   83400   -253.30937    43.757289   -209.55208    3163.7488    194875.05    10.472245    1215.0706 
   83500   -253.10133    35.691441   -217.40989    2580.5702    196786.19    10.472245    1210.9464 
   83600   -250.70817    40.007857   -210.70031    2892.6566    200852.05    10.472245    1216.0943 
   83700    -258.4133    36.860387   -221.55292    2665.0875    179676.43    10.472245    1219.3614 
   83800   -252.21938    36.410169   -215.80921    2632.5357     199289.1    10.472245    1225.8276 
   83900   -258.35259    44.740929   -213.61166    3234.8681    185741.46    10.472245     1227.155 
   84000   -251.10062    42.003148   -209.09747    3036.9205    205992.48    10.472245    1230.3709 
   84100   -250.67396    44.510084   -206.16387    3218.1775    208558.61    10.472245    1217.9131 
   84200   -251.92447    35.825177   -216.09929    2590.2395    196347.68    10.472245    1222.3691 
   84300   -252.56441    38.670176   -213.89424    2795.9393    192412.85    10.472245    1229.2274 
   84400   -249.73295    43.301792   -206.43116    3130.8153    205702.22    10.472245    1233.9427 
   84500   -255.58943    37.740294   -217.84913    2728.7068    186525.96    10.472245    1229.7993 
   84600   -255.44535    39.347531   -216.09782    2844.9135    190421.62    10.472245    1227.2677 
   84700   -260.47213    45.390194   -215.08194    3281.8114    179142.33    10.472245    1224.0703 
   84800   -254.69479    41.919531   -212.77526    3030.8748    195802.35    10.472245    1222.0774 
   84900   -248.84875    39.416769   -209.43198    2849.9196    207924.05    10.472245    1217.7113 
   85000   -255.60998    34.882977   -220.72701    2522.1164    187036.36    10.472245    1209.4493 
   85100   -255.53883    38.628399   -216.91043    2792.9187    187321.76    10.472245    1212.2145 
   85200   -252.08735    38.838027   -213.24932    2808.0753    202498.06    10.472245    1210.8522 
   85300   -248.01005     40.57105     -207.439    2933.3766    212729.33    10.472245    1215.6931 
   85400   -256.14238      39.8865   -216.25588    2883.8822    186013.86    10.472245    1214.4506 
   85500   -255.20186    39.531623   -215.67024    2858.2238    193315.52    10.472245    1216.4586 
   85600   -249.57443    44.469825    -205.1046    3215.2667    208759.44    10.472245    1225.4058 
   85700   -251.92601    37.735715   -214.19029    2728.3757    197193.06    10.472245    1228.7746 
   85800   -254.52626    38.239663    -216.2866    2764.8122     196820.1    10.472245     1236.285 
   85900    -249.0471    45.200423   -203.84668    3268.0905    212799.07    10.472245    1228.8324 
   86000   -251.97554    40.731532     -211.244    2944.9799    201813.97    10.472245    1234.9898 
   86100   -251.77209    35.736427   -216.03566    2583.8227    193999.72    10.472245    1228.8294 
   86200   -250.42801    46.295427   -204.13259    3347.2618    206933.26    10.472245    1232.5715 
   86300   -253.72558    42.672018   -211.05357    3085.2813    194000.35    10.472245    1244.2346 
   86400   -255.87767    42.381148   -213.49652    3064.2508    189006.99    10.472245     1248.335 
   86500   -256.22783    39.547416   -216.68041    2859.3657    184474.56    10.472245     1259.178 
   86600   -254.15457    33.546292   -220.60828    2425.4711    191307.91    10.472245    1266.9011 
   86700   -252.69255    40.840944    -211.8516    2952.8906    199799.62    10.472245    1258.8318 
   86800   -258.27787    40.305315   -217.97255    2914.1634    184905.12    10.472245    1259.8743 
   86900    -253.7543    47.194126   -206.56018    3412.2397     200457.4    10.472245    1260.7798 
   87000   -253.34859    37.552705   -215.79588    2715.1436    197396.65    10.472245    1266.2657 
   87100   -251.77574    38.888893   -212.88684     2811.753    200927.73    10.472245    1269.4302 
   87200   -248.36353    46.713359   -201.65017    3377.4792    216049.75    10.472245    1270.0819 
   87300   -253.72585    42.984715   -210.74113      3107.89    195534.59    10.472245    1277.2884 
   87400   -253.91021    36.029114   -217.88109    2604.9846    194851.33    10.472245     1284.013 
   87500   -253.82921    44.566979   -209.26223    3222.2912    197220.09    10.472245    1284.2257 
   87600   -255.51402    43.671231   -211.84279    3157.5266    199694.23    10.472245     1278.551 
   87700   -258.89867    38.081273    -220.8174    2753.3603    179011.02    10.472245    1276.9407 
   87800   -247.85433    36.015816   -211.83852    2604.0232    214559.71    10.472245     1278.764 
   87900   -251.68538    38.180218   -213.50516    2760.5142    199768.56    10.472245    1282.6855 
   88000   -250.35429    37.883207   -212.47108    2739.0396    206152.87    10.472245    1280.0544 
   88100   -250.01638    43.481057   -206.53533    3143.7766    213911.72    10.472245    1274.6809 
   88200   -256.82595    39.936871   -216.88907    2887.5241    186806.41    10.472245     1283.003 
   88300   -254.69161    42.998023   -211.69358    3108.8522    194555.14    10.472245    1283.1007 
   88400   -255.13257    43.398055   -211.73451    3137.7754    192824.76    10.472245    1284.3993 
   88500   -253.94315    38.371635   -215.57151    2774.3541    196308.56    10.472245    1285.8637 
   88600   -251.28978     47.96554   -203.32424    3468.0146    205762.52    10.472245    1283.2156 
   88700   -257.82267    45.053971    -212.7687    3257.5017    189340.09    10.472245    1290.6044 
   88800   -253.66535    38.134903   -215.53045    2757.2379    192320.04    10.472245    1290.2029 
   88900   -246.13294    41.086502   -205.04643    2970.6449    215242.83    10.472245    1286.2734 
   89000   -251.60031    38.685413    -212.9149    2797.0409    203181.56    10.472245    1296.5498 
   89100   -258.38736    43.700033   -214.68732    3159.6091    185049.25    10.472245    1293.6888 
   89200   -251.43916    45.042604   -206.39655    3256.6799    204616.77    10.472245    1295.7609 
   89300   -249.94028    38.605686   -211.33459    2791.2765    206557.29    10.472245    1307.1987 
   89400   -254.49945    41.194434   -213.30501    2978.4487    189428.64    10.472245    1309.7832 
   89500   -250.24894    36.645706   -213.60323    2649.5656    206798.12    10.472245    1313.0167 
   89600   -251.38206    38.215692   -213.16636    2763.0791     199473.8    10.472245    1319.6068 
   89700   -258.02692    41.884346   -216.14257    3028.3308    182224.61    10.472245    1316.1196 
   89800   -258.56494     36.84675   -221.71819    2664.1015    177785.81    10.472245    1327.8569 
   89900   -249.27906    40.038331   -209.24073    2894.8599    206436.57    10.472245     1324.709 
   90000    -256.9692    40.014093    -216.9551    2893.1074    183618.05    10.472245     1323.089 
   90100   -255.05762    38.386551   -216.67107    2775.4326    193824.56    10.472245    1332.5888 
   90200   -249.26068    37.088925   -212.17176    2681.6113    209814.62    10.472245    1337.6537 
   90300   -254.58183    44.164788   -210.41705    3193.2119    195912.26    10.472245    1340.3727 
   90400   -256.58746    37.305576   -219.28188    2697.2757    185529.28    10.472245    1342.1504 
   90500   -253.61146    44.978017   -208.63344    3252.0101    201196.32    10.472245    1342.0219 
   90600   -251.67334    40.525158   -211.14818    2930.0586     201683.7    10.472245    1347.6839 
   90700   -254.61839    36.378648   -218.23974    2630.2567    191560.19    10.472245    1349.2217 
   90800   -250.40314    35.215292   -215.18785    2546.1435    199906.81    10.472245    1350.4232 
   90900   -248.31327    40.313073    -208.0002    2914.7243    211963.48    10.472245    1356.1179 
   91000   -248.84365    41.399373   -207.44428    2993.2662     211830.6    10.472245    1364.8216 
   91100   -254.30629    41.013159   -213.29313    2965.3421    195640.74    10.472245    1362.5637 
   91200   -258.36051    38.376279   -219.98423    2774.6899    183155.36    10.472245    1362.3013 
   91300   -258.87774    37.397193   -221.48055    2703.8998     179875.2    10.472245     1361.807 
   91400   -252.42185    40.119332   -212.30252    2900.7165    202264.58    10.472245    1375.2393 
   91500   -252.42696    36.005228   -216.42173    2603.2576    197715.14    10.472245     1378.172 
   91600   -256.89233    37.449998   -219.44233    2707.7177    182584.11    10.472245    1382.5901 
   91700   -255.60476    45.921377   -209.68338    3320.2171    196149.37    10.472245    1388.4224 
   91800   -256.52571    39.500787   -217.02492    2855.9943       188000    10.472245     1387.944 
   91900   -246.78913    41.260434    -205.5287    2983.2207    219112.22    10.472245    1392.0177 
   92000   -250.99618    42.385465   -208.61072    3064.5628    207629.32    10.472245    1391.1975 
   92100   -255.06027    39.493103   -215.56717    2855.4387    188291.28    10.472245    1402.4698 
   92200   -253.02301    46.731689   -206.29132    3378.8045    197798.76    10.472245    1398.4131 
   92300   -253.72155    41.782735   -211.93882    3020.9841    203138.66    10.472245     1402.058 
   92400   -259.36314    43.187848   -216.17529     3122.577    182662.25    10.472245    1405.1904 
   92500   -251.29622    43.259175   -208.03705    3127.7341    202761.59    10.472245    1399.3242 
   92600   -251.56567    40.753633   -210.81204    2946.5778     203526.5    10.472245    1401.6795 
   92700   -256.13428    40.757994   -215.37628    2946.8931    190303.26    10.472245    1402.5522 
   92800   -252.83904    42.098224   -210.74082    3043.7947    199786.86    10.472245    1400.3362 
   92900   -252.47419    45.267884    -207.2063    3272.9681    203614.41    10.472245    1406.3046 
   93000   -256.58514     42.90624    -213.6789    3102.2161    190667.71    10.472245    1413.3535 
   93100    -253.3227     44.10217   -209.22053    3188.6844    200301.57    10.472245    1411.6095 
   93200   -252.88296    41.343041   -211.53991    2989.1933    198181.23    10.472245     1402.883 
   93300   -257.91658    39.139291   -218.77728    2829.8573    184988.92    10.472245    1409.1527 
   93400   -250.25564    42.657219   -207.59842    3084.2113    208824.92    10.472245    1414.2208 
   93500    -254.3668    39.622263   -214.74454    2864.7773     192751.2    10.472245     1426.174 
   93600   -252.96895    37.086307   -215.88264     2681.422    197972.03    10.472245    1429.2772 
   93700   -251.07232    47.814106   -203.25821    3457.0656    206295.85    10.472245    1424.8155 
   93800   -254.64624    40.967298   -213.67894    2962.0262     188569.6    10.472245     1431.611 
   93900   -252.58027    35.099449   -217.48082    2537.7678    194550.32    10.472245    1439.5352 
   94000   -252.33832    45.754703   -206.58362    3308.1663    199673.16    10.472245    1452.3583 
   94100   -253.90363    39.359728   -214.54391    2845.7954    195251.22    10.472245    1460.9041 
   94200   -253.35983    38.032553   -215.32728    2749.8377    195215.47    10.472245    1474.4104 
   94300    -247.2666    41.245663   -206.02094    2982.1527    216466.05    10.472245    1477.5666 
   94400   -250.68093    42.830952   -207.84997    3096.7726    205754.24    10.472245    1477.3182 
   94500   -253.11702    37.341852   -215.77517    2699.8985    196241.59    10.472245    1482.2524 
   94600   -256.05158    40.120844   -215.93073    2900.8258    187005.86    10.472245      1487.72 
   94700   -247.59485    41.065019   -206.52983    2969.0917     213403.7    10.472245    1486.2779 
   94800   -254.57491    38.922664   -215.65224    2814.1947    195098.45    10.472245      1481.05 
   94900   -255.05569    39.551664   -215.50402    2859.6728    190280.46    10.472245    1480.5297 
   95000   -251.96702    44.573685   -207.39333     3222.776    201765.88    10.472245    1486.8413 
   95100   -258.44288    38.209343   -220.23354      2762.62    178160.56    10.472245    1484.6456 
   95200   -253.61307    40.068538   -213.54453    2897.0439    195867.26    10.472245    1481.8184 
   95300    -249.5807    39.798038   -209.78266    2877.4862    208712.55    10.472245    1483.6714 
   95400   -258.08291    35.044786   -223.03812    2533.8156    180774.33    10.472245    1488.8964 
   95500   -252.69687    33.974907   -218.72196     2456.461     197624.7    10.472245    1487.2991 
   95600   -253.69577    40.848047   -212.84773    2953.4041    191970.42    10.472245    1482.0816 
   95700   -259.22059    49.244618   -209.97597    3560.4948    188933.43    10.472245      1484.13 
   95800   -253.55229    35.403166   -218.14912    2559.7272    194445.61    10.472245    1490.7237 
   95900   -250.88592    38.363319   -212.52261    2773.7528       201731    10.472245    1485.2933 
   96000   -251.14335     41.86949   -209.27386    3027.2567    205407.68    10.472245     1488.319 
   96100   -249.43903    34.820556   -214.61848    2517.6032    203352.29    10.472245    1484.1135 
   96200   -260.05197    36.954447   -223.09752    2671.8882    177343.73    10.472245     1485.931 
   96300   -255.29453    41.964208   -213.33033     3034.105    194541.37    10.472245     1481.233 
   96400   -255.02884    42.543232    -212.4856    3075.9698    197382.42    10.472245    1477.5463 
   96500   -258.22484    35.624228   -222.60061    2575.7105    178784.26    10.472245    1481.5631 
   96600   -252.69827     39.00971   -213.68856    2820.4883    196440.93    10.472245    1476.0434 
   96700   -253.60396    42.068969   -211.53499    3041.6795    200996.78    10.472245    1464.2315 
   96800   -252.88938     34.35256   -218.53682    2483.7661    193940.33    10.472245    1461.2224 
   96900   -250.13213    42.119227    -208.0129    3045.3132    205542.06    10.472245    1466.2075 
   97000    -251.7287    39.384552   -212.34415    2847.5903    200490.02    10.472245    1475.9877 
   97100    -255.8725    35.756181   -220.11632     2585.251    187924.59    10.472245    1475.8044 
   97200   -250.44618    42.175962   -208.27022    3049.4153    205363.53    10.472245    1479.3463 
   97300   -254.90131    37.583835   -217.31747    2717.3944    191122.88    10.472245    1482.0369 
   97400   -255.72542    36.415598   -219.30982    2632.9283    183878.92    10.472245    1486.1787 
   97500   -253.59658    44.380068   -209.21651     3208.777     196571.3    10.472245      1482.06 
   97600   -256.83728    38.186129   -218.65115    2760.9416    188290.16    10.472245     1485.375 
   97700   -247.50974    36.818868   -210.69087    2662.0856    211065.85    10.472245    1480.7823 
   97800   -254.16419    41.984713   -212.17948    3035.5876     196467.5    10.472245    1478.2363 
   97900   -254.24737    39.191058   -215.05631    2833.6002    195296.62    10.472245    1476.1609 
   98000   -257.46936    36.580421   -220.88894    2644.8453    183192.32    10.472245    1477.1011 
   98100   -250.36577     39.83524   -210.53053     2880.176    204492.31    10.472245    1482.9066 
   98200    -251.0661    35.950818   -215.11528    2599.3236    200548.61    10.472245    1473.2351 
   98300   -253.30762    37.389807   -215.91782    2703.3657    197373.63    10.472245    1478.4547 
   98400   -251.72882    46.307013   -205.42181    3348.0995    205172.64    10.472245    1466.6724 
   98500   -256.67793    41.234219   -215.44372    2981.3252    188183.18    10.472245    1457.3483 
   98600   -255.86097    41.546368    -214.3146    3003.8943    191657.76    10.472245    1458.3646 
   98700   -249.89814    45.377192   -204.52095    3280.8713    206910.77    10.472245    1464.1729 
   98800   -255.04688      40.2858   -214.76108    2912.7525    190656.34    10.472245    1469.6853 
   98900    -255.3393    39.962147   -215.37715    2889.3516    194149.25    10.472245    1475.3284 
   99000   -251.86607    43.472391   -208.39368      3143.15     202551.9    10.472245    1482.8086 
   99100    -256.1039    38.503806   -217.60009    2783.9103    190630.12    10.472245    1473.2325 
   99200   -254.58227    38.982488   -215.59979    2818.5201    189768.51    10.472245    1474.7927 
   99300   -251.74787    42.365149   -209.38273     3063.094    206031.72    10.472245    1495.3472 
   99400   -254.95569    35.662324   -219.29337    2578.4649    185288.78    10.472245    1498.9359 
   99500   -250.19279    40.907165   -209.28563    2957.6785    207082.97    10.472245    1491.5777 
   99600    -252.2636    40.095016   -212.16859    2898.9583    201175.77    10.472245    1500.6293 
   99700   -259.01785    36.334868   -222.68298    2627.0913    178337.21    10.472245    1503.2823 
   99800   -254.61891    40.693146   -213.92577    2942.2045    194800.25    10.472245    1507.5157 
   99900   -255.76156    43.142829   -212.61873    3119.3219    191824.08    10.472245    1503.5127 
  100000    -251.2984     38.15322   -213.14518    2758.5622    204097.42    10.472245    1505.7787 
Loop time of 31.6493 on 1 procs for 100000 steps with 108 atoms

Performance: 1364.959 ns/day, 0.018 hours/ns, 3159.627 timesteps/s
100.0% CPU use with 1 MPI tasks x no OpenMP threads

MPI task timing breakdown:
Section |  min time  |  avg time  |  max time  |%varavg| %total
---------------------------------------------------------------
Pair    | 18.576     | 18.576     | 18.576     |   0.0 | 58.69
Neigh   | 1.5993     | 1.5993     | 1.5993     |   0.0 |  5.05
Comm    | 0.5857     | 0.5857     | 0.5857     |   0.0 |  1.85
Output  | 0.020335   | 0.020335   | 0.020335   |   0.0 |  0.06
Modify  | 10.784     | 10.784     | 10.784     |   0.0 | 34.07
Other   |            | 0.08415    |            |       |  0.27

Nlocal:    108 ave 108 max 108 min
Histogram: 1 0 0 0 0 0 0 0 0 0
Nghost:    1108 ave 1108 max 1108 min
Histogram: 1 0 0 0 0 0 0 0 0 0
Neighs:    5683 ave 5683 max 5683 min
Histogram: 1 0 0 0 0 0 0 0 0 0

Total # of neighbors = 5683
Ave neighs/atom = 52.6204
Neighbor list builds = 6884
Dangerous builds = 100
Total wall time: 0:00:31
