LAMMPS (3 Mar 2020)

    # ---------- Initialize simulation ---------------------
    units metal
    atom_style atomic
    dimension  3
    boundary   p p p
    read_data /home/modeler/RemLabs/Lab4/Problem1A/timestep_0.00447213595499958/lammps.data
  orthogonal box = (0 0 0) to (12.27 12.27 12.27)
  1 by 1 by 1 MPI processor grid
  reading atoms ...
  108 atoms
  read_data CPU = 0.000941919 secs

    pair_style eam
    pair_coeff * * /usr/share/lammps-stable/potentials/Ag_u3.eam
Reading potential file /usr/share/lammps-stable/potentials/Ag_u3.eam with DATE: 2007-06-11

    velocity  all create 300 87287 dist gaussian

    # ---------- Describe computed properties------------------
    compute msdall all msd
    thermo_style custom step pe ke etotal temp press density c_msdall[4]
    thermo 100

    # ---------- Specify ensemble  ---------------------
    fix  1 all nve
    #fix  1 all nvt temp 300 300 0.223606797749979

    # --------- Compute RDF ---------------
    compute rdfall all rdf 100 1 1
    fix 2 all ave/time 1 559 559 c_rdfall[*] file /home/modeler/RemLabs/Lab4/Problem1A/timestep_0.00447213595499958/lammps.rdf mode vector

    # --------- Run -------------
    timestep 0.00447213595499958
    run 2237
Neighbor list info ...
  update every 1 steps, delay 10 steps, check yes
  max neighbors/atom: 2000, page size: 100000
  master list distance cutoff = 7.55
  ghost atom cutoff = 7.55
  binsize = 3.775, bins = 4 4 4
  2 neighbor lists, perpetual/occasional/extra = 1 1 0
  (1) pair eam, perpetual
      attributes: half, newton on
      pair build: half/bin/atomonly/newton
      stencil: half/bin/3d/newton
      bin: standard
  (2) compute rdf, occasional, copy from (1)
      attributes: half, newton on
      pair build: copy
      stencil: none
      bin: none
Per MPI rank memory allocation (min/avg/max) = 3.723 | 3.723 | 3.723 Mbytes
Step PotEng KinEng TotEng Temp Press Density c_msdall[4] 
       0       -307.8    4.1492507   -303.65075          300     2399.079    10.472245            0 
     100   -305.41364    1.7685587   -303.64508     127.8707    9417.0945    10.472245  0.012362104 
     200   -305.46306     1.818345   -303.64472    131.47036    9344.2966    10.472245  0.011043958 
     300   -305.67665    2.0316028   -303.64504    146.88938    8753.8557    10.472245 0.0092891706 
     400   -305.74684    2.1012252   -303.64562    151.92323    8589.0728    10.472245  0.010855653 
     500   -306.05933    2.4135251   -303.64581     174.5032    7764.2884    10.472245 0.0068906989 
     600   -305.78562    2.1399232   -303.64569    154.72118    8417.8132    10.472245 0.0089521085 
     700   -305.85919    2.2134698   -303.64572    160.03876    8234.9336    10.472245 0.0090083531 
     800   -305.60234    1.9571081   -303.64523    141.50325    8955.8131    10.472245 0.0099209788 
     900    -305.6875    2.0424108   -303.64509    147.67082    8775.2983    10.472245 0.0095137437 
    1000    -305.7567    2.1116119   -303.64509    152.67421    8656.9954    10.472245  0.008744418 
    1100   -305.80732    2.1617843   -303.64554    156.30179    8402.9198    10.472245 0.0094879082 
    1200   -305.54556     1.900967   -303.64459    137.44412    9315.7222    10.472245  0.010302169 
    1300   -305.67952    2.0342862   -303.64524    147.08339     8753.004    10.472245 0.0098263776 
    1400   -305.67541    2.0301416   -303.64527    146.78373    8705.5751    10.472245  0.010442155 
    1500   -305.61939    1.9744123   -303.64497    142.75438    9041.1566    10.472245  0.010142122 
    1600   -305.60718    1.9623284   -303.64485    141.88069    9016.3762    10.472245 0.0092120671 
    1700   -305.70937    2.0642733    -303.6451    149.25152    8823.2846    10.472245 0.0092157242 
    1800   -305.76038    2.1148407   -303.64554    152.90766     8530.075    10.472245  0.010012566 
    1900   -305.68738    2.0425112   -303.64487    147.67808    8797.5079    10.472245 0.0084223982 
    2000   -305.36269    1.7181079   -303.64458      124.223    9764.2657    10.472245  0.012246519 
    2100   -305.73011    2.0850136   -303.64509    150.75109    8650.1279    10.472245 0.0088957483 
    2200   -305.97715    2.3315643   -303.64559    168.57726    7889.0622    10.472245 0.0081928408 
    2237   -305.52704    1.8822993   -303.64474    136.09441    9206.5565    10.472245  0.011336278 
Loop time of 0.430006 on 1 procs for 2237 steps with 108 atoms

Performance: 2010.110 ns/day, 0.012 hours/ns, 5202.249 timesteps/s
99.2% CPU use with 1 MPI tasks x no OpenMP threads

MPI task timing breakdown:
Section |  min time  |  avg time  |  max time  |%varavg| %total
---------------------------------------------------------------
Pair    | 0.29002    | 0.29002    | 0.29002    |   0.0 | 67.45
Neigh   | 0          | 0          | 0          |   0.0 |  0.00
Comm    | 0.0094542  | 0.0094542  | 0.0094542  |   0.0 |  2.20
Output  | 0.00043331 | 0.00043331 | 0.00043331 |   0.0 |  0.10
Modify  | 0.1279     | 0.1279     | 0.1279     |   0.0 | 29.74
Other   |            | 0.002195   |            |       |  0.51

Nlocal:    108 ave 108 max 108 min
Histogram: 1 0 0 0 0 0 0 0 0 0
Nghost:    990 ave 990 max 990 min
Histogram: 1 0 0 0 0 0 0 0 0 0
Neighs:    4644 ave 4644 max 4644 min
Histogram: 1 0 0 0 0 0 0 0 0 0

Total # of neighbors = 4644
Ave neighs/atom = 43
Neighbor list builds = 0
Dangerous builds = 0
    
Total wall time: 0:00:00
