LAMMPS (3 Mar 2020)

# ---------- 1. Initialize simulation ----------
units metal
atom_style atomic
dimension 3
boundary p p p
read_data /home/modeler/RemLabs/Project/arrhenius_4/T1700.0/n3_T1700.0_timestep3.000000e-03_eqsteps3200_time600_rseed3339/20201205-142430/lammps.data
  orthogonal box = (0 0 0) to (17.469 17.469 17.469)
  1 by 1 by 1 MPI processor grid
  reading atoms ...
  217 atoms
  read_data CPU = 0.00125353 secs

pair_style meam/c
pair_coeff * * library.meam Li Si LiSi.meam Li Si
Reading potential file library.meam with DATE: 2012-06-29
Reading potential file LiSi.meam with DATE: 2020-11-07

group Li type 1
1 atoms in group Li
group Si type 2
216 atoms in group Si

velocity all create 1700.0 3339 dist gaussian

# ---------- 2. Specify equilibration ensemble  ----------
fix 1 all npt temp 1700.0 1700.0 0.15 tchain 2 iso 1.0 1.0 1.0 pchain 2
# fix 1 all nvt temp 1700.0 1700.0 0.15

# ---------- 3. Run equilibration -------------
timestep 0.003
run 3200
Neighbor list info ...
  update every 1 steps, delay 10 steps, check yes
  max neighbors/atom: 2000, page size: 100000
  master list distance cutoff = 6
  ghost atom cutoff = 6
  binsize = 3, bins = 6 6 6
  2 neighbor lists, perpetual/occasional/extra = 2 0 0
  (1) pair meam/c, perpetual
      attributes: full, newton on
      pair build: full/bin/atomonly
      stencil: full/bin/3d
      bin: standard
  (2) pair meam/c, perpetual, half/full from (1)
      attributes: half, newton on
      pair build: halffull/newton
      stencil: none
      bin: none
Per MPI rank memory allocation (min/avg/max) = 8.895 | 8.895 | 8.895 Mbytes
Step Temp E_pair E_mol TotEng Press Volume 
       0         1700   -951.04357            0   -903.57924   -114721.17    5330.9442 
    3200    1655.7809   -944.10842            0    -897.8787   -10130.062    4698.3358 
Loop time of 2.29397 on 1 procs for 3200 steps with 217 atoms

Performance: 361.574 ns/day, 0.066 hours/ns, 1394.960 timesteps/s
100.0% CPU use with 1 MPI tasks x no OpenMP threads

MPI task timing breakdown:
Section |  min time  |  avg time  |  max time  |%varavg| %total
---------------------------------------------------------------
Pair    | 2.1955     | 2.1955     | 2.1955     |   0.0 | 95.71
Neigh   | 0.048408   | 0.048408   | 0.048408   |   0.0 |  2.11
Comm    | 0.015081   | 0.015081   | 0.015081   |   0.0 |  0.66
Output  | 2.5176e-05 | 2.5176e-05 | 2.5176e-05 |   0.0 |  0.00
Modify  | 0.029989   | 0.029989   | 0.029989   |   0.0 |  1.31
Other   |            | 0.004973   |            |       |  0.22

Nlocal:    217 ave 217 max 217 min
Histogram: 1 0 0 0 0 0 0 0 0 0
Nghost:    953 ave 953 max 953 min
Histogram: 1 0 0 0 0 0 0 0 0 0
Neighs:    4106 ave 4106 max 4106 min
Histogram: 1 0 0 0 0 0 0 0 0 0
FullNghs:  8212 ave 8212 max 8212 min
Histogram: 1 0 0 0 0 0 0 0 0 0

Total # of neighbors = 8212
Ave neighs/atom = 37.8433
Neighbor list builds = 82
Dangerous builds = 0

# ---------- 4. Describe computed properties----------
compute msdli Li msd
compute msdsi Si msd
thermo_style custom step pe ke etotal temp press density c_msdli[4] c_msdsi[4]
thermo 100

# ---------- 3. Run production -------------
timestep 0.003
run 200000
Per MPI rank memory allocation (min/avg/max) = 9.665 | 9.665 | 9.665 Mbytes
Step PotEng KinEng TotEng Temp Press Density c_msdli[4] c_msdsi[4] 
    3200   -944.10842    46.229721    -897.8787    1655.7809   -10130.062    2.1465703            0 4.984592e-32 
    3300   -947.05609    43.750664   -903.30543    1566.9901    2317.9822    2.1829123   0.33216515   0.10763824 
    3400   -941.98273     48.29853    -893.6842    1729.8782    10574.483    2.1910635   0.23248096   0.12056002 
    3500   -940.43367    45.851193   -894.58247    1642.2234    520.23595    2.1659199   0.39628594   0.15763268 
    3600     -942.433    43.830951   -898.60205    1569.8657   -8421.9712    2.1531583   0.13426668   0.16983467 
    3700   -943.22643    45.781944   -897.44449    1639.7432    5817.6811    2.1881995   0.14503774   0.15761368 
    3800    -940.5391    51.613069   -888.92603     1848.593    -518.2294    2.1672963   0.08125332   0.13727235 
    3900   -943.50935    46.886406   -896.62294     1679.301    -7227.139     2.158217   0.26005782   0.13414663 
    4000   -943.96148     45.88712   -898.07436    1643.5102    632.93973    2.1799688  0.041800253   0.10824058 
    4100   -938.43741    47.202242   -891.23517    1690.6131     11019.69    2.1899587   0.19025183   0.13268161 
    4200   -938.33201    46.904877   -891.42713    1679.9626   -3948.6906     2.156526   0.20019147   0.13163878 
    4300   -945.73291    46.598517    -899.1344    1668.9899   -8027.0856    2.1574523   0.23677941   0.14555577 
    4400   -944.34286      49.3148   -895.02806    1766.2773    7671.5657    2.1933088    0.1676399   0.18488648 
    4500   -940.01304    50.380398   -889.63264    1804.4431    3167.1947     2.177748   0.30963097    0.2014145 
    4600   -944.30789    45.961207   -898.34668    1646.1638   -11285.751    2.1489102   0.11150695   0.19127024 
    4700   -944.80455    46.152239   -898.65231    1653.0058   -4186.6212    2.1661218  0.045714359   0.14754159 
    4800   -946.44006    52.747534   -893.69253    1889.2254    9011.1607    2.1980488   0.21174788   0.13705089 
    4900   -941.04927     43.88237    -897.1669    1571.7074    1185.8268    2.1711804  0.048494312   0.12215949 
    5000   -943.92186    40.268886   -903.65297    1442.2854   -7478.7986    2.1599359   0.11809295   0.13523581 
    5100   -942.99997    46.579487   -896.42048    1668.3083    2561.3635    2.1794302    0.1567943   0.12514535 
    5200   -945.50644     50.89375   -894.61269    1822.8295    4397.2653    2.1853394   0.18569897   0.15331312 
    5300   -947.37322    44.633429   -902.73979    1598.6075   -6189.4064    2.1651024   0.44276569   0.14087544 
    5400    -945.8902    46.442499    -899.4477    1663.4019   -3906.7151     2.160803  0.030410821   0.15470128 
    5500   -944.09813    50.222645   -893.87549     1798.793    9685.2686    2.1900746       0.1403   0.17659207 
    5600   -943.92238    45.702373   -898.22001    1636.8933    2425.9695     2.178549  0.059858832   0.15479879 
    5700   -950.87125    47.103221   -903.76803    1687.0666   -11394.674    2.1558544   0.22728092   0.13164764 
    5800   -945.85885    50.062847   -895.79601    1793.0696     2275.587    2.1765527   0.21788288   0.11756857 
    5900   -944.29226    50.107126   -894.18513    1794.6555    9658.7195    2.1941995   0.23199291    0.1219351 
    6000   -944.26483    45.877105   -898.38772    1643.1515   -6516.1703    2.1515136   0.18819013   0.12236869 
    6100   -945.01709    50.722273   -894.29482    1816.6879   -6604.8819    2.1491448     0.103258    0.1259286 
    6200   -942.02796    53.339776   -888.68819    1910.4374    5339.2134    2.1740834     0.279259   0.15066841 
    6300   -944.18097    48.178058   -896.00291    1725.5633     338.3997    2.1701814   0.25463697   0.15659601 
    6400   -947.48669    49.405679   -898.08101    1769.5322    -7684.751    2.1554067   0.21111016   0.14501741 
    6500    -941.9178    50.496704    -891.4211    1808.6088    2929.6282    2.1655883   0.14142181   0.14936472 
    6600   -940.97199    50.578519   -890.39347    1811.5391    3246.5466    2.1682112   0.11849005   0.13287553 
    6700   -940.91578    43.354326   -897.56145    1552.7947    -1405.134     2.159821   0.94902997    0.1379408 
    6800    -943.5933    47.078413   -896.51489     1686.178    1026.7342    2.1713017   0.37124867   0.12792759 
    6900   -941.79186    51.268872   -890.52299    1836.2651    5584.6607    2.1781801   0.50222745   0.13278817 
    7000   -940.63928    50.750181    -889.8891    1817.6875   -5374.5623    2.1494715   0.19039547   0.14349911 
    7100   -943.89757    46.233385   -897.66418    1655.9122   -9373.9207    2.1462795   0.19241546   0.13937463 
    7200   -942.87609    47.530463   -895.34562    1702.3688     15553.91    2.2070729  0.047373686   0.15627563 
    7300   -947.02587    48.293378    -898.7325    1729.6937    5670.6225    2.1899992   0.16370643     0.155769 
    7400   -948.72845    41.405176   -907.32327    1482.9832   -19464.559    2.1351197   0.41273248    0.1331501 
    7500    -945.6183    44.774629   -900.84367    1603.6648   -1355.2735    2.1731086   0.14373223    0.1411667 
    7600   -946.77917    51.363759   -895.41541    1839.6636    10927.808    2.2007769   0.26308816   0.13891079 
    7700   -943.88649    46.835466   -897.05102    1677.4765   -4126.3504    2.1617563  0.084359565   0.13693575 
    7800   -947.20079    44.304213   -902.89658    1586.8162   -9681.9931    2.1546996   0.22728435   0.13023545 
    7900   -949.14117    45.912646   -903.22852    1644.4245    4790.9014    2.1954584   0.53859879   0.11949598 
    8000   -943.42492    47.410825    -896.0141    1698.0838    6619.6422    2.1844712  0.023255711   0.14064738 
    8100   -939.40367    42.591726   -896.81194    1525.4812   -6549.5328     2.151244   0.30655154   0.15782519 
    8200   -942.32264    44.813388   -897.50926     1605.053   -3104.0239    2.1632188  0.066361655    0.1518396 
    8300   -951.96478     45.11557   -906.84921    1615.8761    10888.855    2.2144822   0.37605277   0.15567093 
    8400   -944.19648     45.79289   -898.40359    1640.1352   -4154.2338    2.1633043   0.24334309   0.16741047 
    8500   -943.99345    47.221356   -896.77209    1691.2977   -8974.6109    2.1524225   0.48041888   0.16846695 
    8600   -942.93091    48.945554   -893.98536    1753.0523    7123.0964    2.1861597   0.16846571   0.15566152 
    8700   -949.90533    47.253439   -902.65189    1692.4468    149.33528    2.1876554   0.09668901   0.14025998 
    8800   -945.85717    44.285774    -901.5714    1586.1558   -7068.6172    2.1581277  0.074678601   0.13384123 
    8900    -944.3117    48.098264   -896.21343    1722.7054    2834.7865     2.175401    0.9925792   0.16685256 
    9000    -940.7217    48.537341   -892.18436    1738.4315    5696.0039    2.1793182   0.35977597   0.16253416 
    9100   -943.93151     49.18039   -894.75112    1761.4632    -5317.611    2.1564119    2.0004199   0.17741382 
    9200   -942.95605    42.629697   -900.32635    1526.8411   -359.21924    2.1717377   0.93674851   0.14893207 
    9300   -941.72205    48.200827   -893.52122    1726.3788    2306.5139    2.1726372     1.805527   0.16855949 
    9400   -941.24111    49.136423   -892.10469    1759.8885    2526.5365    2.1675297    1.8914352   0.16780352 
    9500    -949.1379    47.064506    -902.0734    1685.6799   -1333.0567    2.1778173    1.4244683    0.1581947 
    9600   -944.88561    48.617236   -896.26837    1741.2931   -3137.1197     2.163523    19.965225    0.1490502 
    9700   -941.22317    48.429833   -892.79334     1734.581    161.57801    2.1615791    15.831663   0.14929277 
    9800   -942.53357    42.296036   -900.23754    1514.8906    3552.8485    2.1764384    18.157575   0.13811502 
    9900   -943.93549    45.843067   -898.09243    1641.9324    1058.8092    2.1721964    19.855788   0.13733971 
   10000   -941.62882    48.839626   -892.78919    1749.2583   -1202.5534    2.1559943    16.110822   0.15589745 
   10100    -944.3602    46.245088   -898.11511    1656.3313   -3706.1535    2.1612967    14.446771   0.16434789 
   10200   -946.60636    45.573291   -901.03307      1632.27     3877.905    2.1825754    20.598105   0.14990775 
   10300   -941.98562    51.500784   -890.48484    1844.5713   -2151.5483     2.154268    24.889834   0.15482809 
   10400   -943.29532    47.690339   -895.60498     1708.095   -1322.1187    2.1624938    24.753381   0.14376962 
   10500   -944.79183    46.038535    -898.7533    1648.9334    3605.3316    2.1774588    23.933634   0.13622149 
   10600   -942.08971    51.045155   -891.04456    1828.2523    75.703219    2.1643657    22.375129   0.14301184 
   10700    -943.4087    51.910485   -891.49821    1859.2453   -7363.0793    2.1503924    27.132438   0.14752065 
   10800   -944.64792    46.083935   -898.56398    1650.5594   -6699.0999    2.1532442    22.913323    0.1260097 
   10900   -947.12502    52.009056   -895.11597    1862.7758    7194.7523    2.1915778    23.196834   0.13311317 
   11000    -936.3557    49.309371   -887.04633    1766.0828    8360.5951    2.1700608    22.413873   0.13733411 
   11100    -945.9945     49.19806   -896.79644    1762.0961   -12323.785    2.1427646    26.717806   0.14329982 
   11200   -944.23751    46.387118    -897.8504    1661.4183   -4763.1614     2.160241    25.052246   0.15884672 
   11300   -942.55312    49.547146   -893.00597    1774.5991    11893.451    2.1935611    22.248215   0.15543854 
   11400   -942.42383    51.849148   -890.57469    1857.0484   -2431.5413    2.1555385    24.711264   0.14695433 
   11500   -945.82537    45.070512   -900.75486    1614.2623   -6638.2944    2.1604126    24.856451   0.13721413 
   11600   -942.91063    45.348183   -897.56245    1624.2075    7050.6745    2.1819033    23.907132   0.13621122 
   11700   -944.29224    50.937574   -893.35467    1824.3992    3450.2642    2.1760093    23.689096   0.13930816 
   11800   -940.73112    44.663959   -896.06716     1599.701   -4617.2236      2.15049    24.771792   0.14660166 
   11900   -948.22836    46.290811   -901.93754     1657.969   -1036.6747    2.1787947    19.980477   0.13707258 
   12000    -945.8151    51.041404    -894.7737     1828.118    6037.1506    2.1910869    26.505366   0.14691941 
   12100   -942.90087    46.400575   -896.50029    1661.9003   -3139.7885    2.1613806     24.48935   0.15757206 
   12200   -951.18141    46.005885   -905.17552     1647.764   -7334.5309    2.1674146    25.962588   0.14202306 
   12300   -942.33901    45.342961   -896.99605    1624.0204    6423.5983    2.1811661    22.975279   0.16221934 
   12400   -944.82657    50.408036   -894.41853    1805.4331    8011.7997    2.1871929    20.035736   0.13974377 
   12500    -944.5937     43.59653   -900.99717    1561.4696   -10169.964    2.1475447    24.140697   0.13291743 
   12600   -942.61069    43.042032   -899.56866    1541.6095   -8927.3342    2.1476663    26.963724   0.13931967 
   12700   -946.02338    54.375071   -891.64831    1947.5179    17114.395     2.210601    24.842199   0.12900638 
   12800   -941.18975    45.594902   -895.59485    1633.0441    501.06837    2.1648162    24.288155   0.14838633 
   12900   -944.79094    44.838208   -899.95274     1605.942   -15819.088    2.1342324    21.041309   0.12929403 
   13000   -945.86363     49.29999   -896.56364    1765.7469    6150.6736    2.1858853    24.711551   0.14798264 
   13100   -941.64969    50.875516   -890.77417    1822.1765    4876.4971    2.1735398    26.007077   0.14980135 
   13200   -945.70478     47.11582   -898.58896    1687.5178   -7025.9803    2.1540312    24.598436   0.15316643 
   13300   -942.64514    45.945187   -896.69996      1645.59   -2346.2134    2.1631667      23.2806   0.14061111 
   13400   -938.12808    50.389335   -887.73874    1804.7632    5542.8241    2.1662075    23.904139   0.15364566 
   13500    -948.6131    51.281515   -897.33159    1836.7179   -346.55933     2.173643    24.089377   0.12723066 
   13600    -943.4698    45.060624   -898.40917    1613.9081   -5593.7034    2.1521594    25.637309   0.11666916 
   13700   -940.90424    49.473401   -891.43084    1771.9578    594.19554    2.1610665    23.423078   0.12320282 
   13800   -946.08172    48.518347   -897.56337    1737.7512    5368.0489    2.1838373    24.558785   0.12728655 
   13900    -945.1235    45.048081   -900.07542    1613.4589   -3483.9601    2.1607688    23.784706   0.13604903 
   14000   -941.59641    46.329538   -895.26687    1659.3561   -988.49539    2.1564864    24.416353   0.14184328 
   14100   -944.58653    52.363719   -892.22281    1875.4785    4663.3915    2.1793704    24.237099   0.15871092 
   14200    -947.2563    44.982977   -902.27333    1611.1271    3710.7354    2.1869922     25.36855   0.14455905 
   14300   -945.40381    47.844087   -897.55972    1713.6017    -14144.59    2.1337449    25.903378   0.13740145 
   14400   -946.13068    51.662999   -894.46768    1850.3813   -798.40511    2.1706859    21.963009   0.15043093 
   14500   -944.49074    45.890009   -898.60073    1643.6137    19473.466    2.2179203    22.273035   0.13423442 
   14600   -947.09033    42.182567   -904.90776    1510.8266   -6639.8502    2.1593078    24.162073   0.11650668 
   14700   -945.29695    49.705342   -895.59161    1780.2651   -15408.215    2.1318127    23.474152   0.13062692 
   14800   -944.02134    49.025693   -894.99565    1755.9225    8982.8742    2.1886099    23.744568   0.12628399 
   14900   -945.47411    44.014101   -901.46001    1576.4255    5806.6976    2.1853108    22.614997   0.13882702 
   15000   -941.18118    48.742105   -892.43907    1745.7654   -5453.1204    2.1436486    23.395201   0.13337123 
   15100   -941.19697    47.239184   -893.95779    1691.9362    3910.0762    2.1675779    26.903893   0.13853468 
   15200   -945.12448    46.130786    -898.9937    1652.2375    4097.3198    2.1820359    24.422538   0.14209897 
   15300   -946.49512    51.773078   -894.72204    1854.3239   -4472.3343    2.1586125    26.394575    0.1292136 
   15400   -940.36958    49.293616   -891.07596    1765.5185   -3454.4004    2.1473056    21.226532   0.13335603 
   15500   -944.43512    45.813432   -898.62169     1640.871     3922.516    2.1790678    23.621077   0.13985656 
   15600   -943.16856    46.305447   -896.86312    1658.4932    4459.9047    2.1777709    23.227581   0.12823532 
   15700   -940.24378    50.387539   -889.85624    1804.6989   -4435.3176    2.1428717    24.576668   0.13068609 
   15800   -946.40192    46.345912   -900.05601    1659.9425    1722.0968    2.1768174    23.528115   0.14805199 
   15900   -946.39908    49.461415   -896.93767    1771.5285    3642.6804    2.1853426    24.183216    0.1402146 
   16000   -939.14382    46.884285   -892.25954    1679.2251    -1849.512    2.1491581    22.426387   0.15977497 
   16100   -942.10152    44.370692   -897.73083    1589.1973   -6700.4903    2.1513297    13.048625   0.17538245 
   16200   -945.80414    47.365794   -898.43835     1696.471    6841.7262    2.1922116    5.8599525   0.16592015 
   16300   -942.84245    50.197682   -892.64477    1797.8989    3412.1615    2.1775837    8.2757898   0.16286215 
   16400   -939.81357    43.559924   -896.25364    1560.1585   -13123.046    2.1311881    8.2313409   0.16467838 
   16500   -947.03778     45.56021   -901.47757    1631.8015    411.34508    2.1752364    5.9018029   0.14985771 
   16600   -941.64795    50.047642    -891.6003     1792.525     13143.53    2.1937179    6.6860261   0.16339035 
   16700   -942.91919    48.309037   -894.61015    1730.2545   -3296.8221    2.1584029    4.6197859   0.17472332 
   16800   -947.85726    47.127155    -900.7301    1687.9238   -8564.9606    2.1556824    6.6572179   0.15849424 
   16900   -944.07376    47.478947   -896.59481    1700.5237    7178.0727    2.1878473    7.7098624   0.15835552 
   17000   -942.08452    50.775038   -891.30948    1818.5777    3850.1197     2.173479    7.6392867   0.17427533 
   17100   -944.38773    45.935442   -898.45229     1645.241   -6262.4261    2.1559178     4.523791   0.14661935 
   17200   -943.15432    48.474574   -894.67975    1736.1834   -14.830957    2.1674783    3.7406378   0.16235893 
   17300   -940.70181    51.797329   -888.90448    1855.1925    2206.2013    2.1731154    5.5211592    0.1803237 
   17400   -944.30001    46.750913    -897.5491    1674.4482   -325.81023    2.1739841    4.2638433   0.18098539 
   17500    -944.9943    49.092312   -895.90198    1758.3086   -3245.5443    2.1635857    6.6061256    0.1672669 
   17600   -938.91392    51.231569   -887.68235     1834.929   -2797.9378    2.1586075    16.311472   0.18062473 
   17700    -943.9852    46.686358   -897.29884     1672.136     3722.459    2.1779737    13.676659   0.17117706 
   17800   -944.92327    48.134609   -896.78866    1724.0071   -1989.9916    2.1692826    15.596437   0.18382443 
   17900   -939.96109    48.316161   -891.64493    1730.5097    968.32687     2.167183    4.3318752   0.18472756 
   18000   -943.75525    45.616074   -898.13917    1633.8024   -130.71025    2.1700216    5.2636379    0.1782212 
   18100   -946.00283    46.450284   -899.55255    1663.6807   -2707.3682    2.1680964    6.6671434   0.15069099 
   18200   -942.00284    48.668128   -893.33471    1743.1158    3288.5289    2.1753825    7.3566383   0.15909146 
   18300   -944.29501    47.441866   -896.85315    1699.1956    3745.8203    2.1845944     6.837163   0.16916074 
   18400   -945.32309    42.917686   -902.40541    1537.1559   -8028.0591    2.1577208    6.8629659   0.15190022 
   18500   -943.37184    48.822436    -894.5494    1748.6426   -4716.5751    2.1586684    7.8519979   0.16899217 
   18600    -943.9781    50.513966   -893.46414    1809.2271    8890.3981    2.1918451    6.3620713   0.16380332 
   18700   -946.12256    44.249316   -901.87325      1584.85    50.716296     2.181795    5.7125498   0.16808885 
   18800    -944.0091     49.55189    -894.4572     1774.769   -15844.676    2.1350942    8.7973629   0.16659435 
   18900    -943.5745    51.129997    -892.4445    1831.2911    4693.5621    2.1776058    5.8734745   0.16633713 
   19000   -944.27333    46.277968   -897.99537     1657.509    9515.5705    2.1997539    5.2364031   0.18550154 
   19100   -940.61378    45.737627   -894.87615    1638.1559   -4541.4158      2.15442    6.9805217   0.16984093 
   19200   -934.89244    44.432216   -890.46023    1591.4008   -4432.7047    2.1381018     5.239445    0.1629827 
   19300   -943.99721    46.769764   -897.22744    1675.1233    6472.4655    2.1826379    7.7667397   0.14504043 
   19400   -944.35482    48.032439   -896.32238    1720.3478    4178.5833    2.1812677    9.6065436   0.14588981 
   19500   -940.10519    51.309553   -888.79564    1837.7221   -10499.811    2.1316514    8.6110048   0.16912415 
   19600   -942.67338    43.870222   -898.80315    1571.2723    3590.8452    2.1752716    5.8917851   0.18534658 
   19700   -944.20127    47.303274   -896.89799    1694.2317    5194.8825    2.1798044    5.1693208   0.18579971 
   19800   -942.32453    50.671965   -891.65256     1814.886   -3751.2763    2.1585911    5.8227959    0.1574738 
   19900   -941.12207    48.560624   -892.56144    1739.2654   -4719.6635    2.1530059    7.9644182   0.15905482 
   20000   -945.03462     45.58574   -899.44888    1632.7159    3954.0912    2.1855702     5.438936   0.15241771 
   20100   -944.96772    50.585367   -894.38235    1811.7844   -1472.8123    2.1665065    6.2969119   0.15222371 
   20200   -939.83788     46.40505   -893.43283    1662.0606   -2363.5609      2.15534    5.3188451   0.15282181 
   20300   -945.93116    43.781264   -902.14989    1568.0861     3719.767    2.1887582    5.1864995   0.14655665 
   20400   -936.93468    42.935682   -893.99899    1537.8004    3132.9973    2.1656516     7.631354   0.19346605 
   20500   -942.66852    48.511275   -894.15724     1737.498   -3150.2203       2.1607    7.0307812   0.18983197 
   20600   -947.00553    45.258002   -901.74752    1620.9775   -61.162269    2.1788965    7.4307998   0.17896665 
   20700    -942.9825    48.590913   -894.39159    1740.3503    1180.8386    2.1698047    5.5547965   0.17037859 
   20800   -942.10433    49.343376   -892.76095    1767.3008   -2303.5697    2.1615598    5.7005286   0.15547448 
   20900   -946.96758    47.329533   -899.63804    1695.1722   -3726.5425    2.1656767    6.8716177   0.13020713 
   21000   -943.94003    48.866778   -895.07326    1750.2308    1746.3567    2.1709339    9.7504937   0.13242439 
   21100    -938.3852    47.427808    -890.9574    1698.6921     1458.023    2.1620604     7.356149   0.15007662 
   21200   -941.28146    42.843988   -898.43747    1534.5163   -2751.4464    2.1583336     7.181542   0.15453727 
   21300   -941.73516    46.751087   -894.98407    1674.4544    2669.2958    2.1713649    8.1814678   0.16473894 
   21400   -938.60563    51.547398   -887.05823    1846.2408    6904.9111    2.1745478    8.5026116   0.18556382 
   21500   -941.03578     44.84896   -896.18682    1606.3271   -617.04105    2.1603814    10.708518   0.16706379 
   21600   -941.84619    45.580211   -896.26598    1632.5179   -6362.9092    2.1457618     10.90359   0.15681973 
   21700   -941.91026    51.957755    -889.9525    1860.9384    9473.7049    2.1846393    5.3600993   0.14971491 
   21800   -942.74019    47.334675   -895.40552    1695.3564    5182.9549    2.1796798    6.2326352   0.15841911 
   21900   -943.80556    44.501619   -899.30394    1593.8866   -12108.614    2.1433633    6.9951807   0.15049793 
   22000   -942.19733    47.076022   -895.12131    1686.0924    2420.9328    2.1727791     7.105225   0.14313566 
   22100   -942.59845    50.695653    -891.9028    1815.7344    10025.157    2.1894751    4.3452973   0.15113358 
   22200   -944.62829    46.539109   -898.08918    1666.8621   -10094.811    2.1494314    6.8115615   0.15285334 
   22300   -945.09465    44.477837   -900.61681    1593.0348   -5410.5993    2.1605833    6.5547129   0.16765537 
   22400   -940.94655    46.658157    -894.2884     1671.126    12288.357    2.1942324    7.0208334    0.1817025 
   22500   -944.68857    49.340277   -895.34829    1767.1898   -1483.3047    2.1718976     7.075904   0.15293023 
   22600   -949.57756    45.618289   -903.95927    1633.8817   -8068.1058    2.1618583    5.3993144   0.15380514 
   22700   -944.88755    48.067362   -896.82018    1721.5986    667.76855    2.1775366    10.735864   0.16495281 
   22800   -936.78487    43.908969    -892.8759      1572.66    10385.078    2.1833346    6.4647892   0.17597136 
   22900   -943.43364    44.196263   -899.23737    1582.9499   -4519.8729    2.1634161    5.0497289   0.17142883 
   23000   -946.01707    45.693914   -900.32315    1636.5903   -4647.3049    2.1652777    6.3082751   0.15976587 
   23100   -943.11886    51.155682   -891.96318     1832.211    189.21292    2.1700661    7.6342103   0.16264974 
   23200   -944.13327    47.861344   -896.27193    1714.2198    1250.9777    2.1790247    6.9741124   0.16288872 
   23300   -946.23858    46.178912   -900.05967    1653.9612   -761.98298    2.1721528     5.548812    0.1570686 
   23400   -940.56911    50.556884   -890.01223    1810.7642   -1902.1762    2.1561104    6.6221382   0.16493868 
   23500    -939.9479    46.587541   -893.36036    1668.5968    8185.0136    2.1776215    6.1899618   0.16443523 
   23600   -945.71379     47.08012   -898.63367    1686.2392   -1821.6262    2.1654193    7.8065018   0.14914335 
   23700   -940.64826    48.730936   -891.91732    1745.3654   -2440.3175     2.154549    6.9970244   0.17379044 
   23800    -945.6666    54.124473   -891.54213    1938.5423   -2285.5582    2.1649385    6.3917544   0.15799725 
   23900   -943.04514    45.493715   -897.55143    1629.4199    4051.1631    2.1747742    8.8168539    0.1507277 
   24000   -942.82801     49.14369   -893.68432    1760.1487   -555.71406    2.1601514    7.0280421   0.15080496 
   24100   -941.27417    52.886101   -888.38807    1894.1883    -6881.854    2.1447794   0.95937651   0.16052329 
   24200    -944.3334      45.5427    -898.7907    1631.1743     6532.695     2.182243    3.8885911   0.15695842 
   24300   -944.46269    48.858679   -895.60401    1749.9407    1242.5584    2.1704475    6.8738735   0.15690316 
   24400   -939.74117    46.554782   -893.18639    1667.4235   -11366.966    2.1263885    7.1986721   0.16970713 
   24500   -945.43406    44.397012   -901.03705      1590.14    35.701854    2.1746722    5.5040093   0.16558215 
   24600   -947.62384     48.51398   -899.10986    1737.5948    12546.402     2.206939    5.5383607   0.17175277 
   24700   -942.42124    48.006538    -894.4147    1719.4201   -2968.2192    2.1578321    5.5757583   0.17122564 
   24800   -940.45422    45.511247   -894.94297    1630.0478   -10108.044    2.1406952    8.8625091   0.15627063 
   24900   -946.53803    44.184525    -902.3535    1582.5294    7395.2512    2.2004367    7.7059468   0.15307673 
   25000   -941.45469    47.918565   -893.53612    1716.2692    6947.1089     2.184115     8.111718   0.16534165 
   25100   -941.84822    47.690589   -894.15764     1708.104   -9526.6722    2.1455036    6.6674759    0.1734903 
   25200   -946.73254    47.296676   -899.43587    1693.9954   -5437.5223    2.1643325    5.8133111   0.15575631 
   25300   -943.37567    45.438766   -897.93691    1627.4518    11005.404    2.1995492    6.5990702    0.1712584 
   25400   -937.45633    46.661812   -890.79452    1671.2569    1302.5762    2.1569346    6.5753922   0.17990099 
   25500   -944.08948    45.521242   -898.56823    1630.4058   -8658.7754    2.1494664    6.3430903   0.16064302 
   25600   -946.58953    51.142218   -895.44731    1831.7288    4751.0969    2.1799581    7.3515638   0.16063016 
   25700   -935.99363    49.672971   -886.32065    1779.1057    9469.8291    2.1762051    13.379053   0.18990935 
   25800   -938.63282    43.772299   -894.86052     1567.765   -4780.6946    2.1519459    8.5098442   0.17248688 
   25900   -943.43465    46.662491   -896.77216    1671.2812   -7899.2435    2.1488551    6.2929071   0.14456453 
   26000   -942.09981      51.0468   -891.05301    1828.3113    9449.0566    2.1820677     8.429188   0.17120742 
   26100   -943.26268    49.457861   -893.80482    1771.4012    1312.5037    2.1704367    7.2686609   0.16323875 
   26200    -946.9011    47.425875   -899.47523    1698.6229   -8335.2035    2.1609315    4.4840696   0.17714897 
   26300   -943.04952    48.169756   -894.87976     1725.266   -484.03612    2.1673185    7.5110078   0.16733941 
   26400   -943.00383    48.911742   -894.09209    1751.8412    5503.8245     2.177277     7.010253   0.16558735 
   26500   -947.75894    44.249682   -903.50925    1584.8632   -305.87919    2.1800088    6.9498923   0.16144407 
   26600   -943.91772    47.998372   -895.91935    1719.1276   -8590.7333    2.1518264    8.0876412   0.16340109 
   26700   -938.86121     45.23423   -893.62698    1620.1261    5278.9191    2.1681268    7.1961749   0.16208478 
   26800   -946.96067    45.918536   -901.04214    1644.6354    4904.5355     2.182906    4.9406435   0.16511358 
   26900   -945.61283    48.044843   -897.56799     1720.792   -3032.9546    2.1638433    11.664514    0.1463927 
   27000   -943.44271     50.44524   -892.99747    1806.7656   -1123.2315    2.1587095    11.930677   0.14725385 
   27100   -940.49348    43.755052   -896.73843    1567.1473    6387.3881    2.1760372    15.055895    0.1367201 
   27200   -944.95252    45.148482   -899.80404    1617.0549    1696.0645    2.1792737     9.053604   0.16506196 
   27300   -936.74232    47.618916    -889.1234    1705.5369    -6346.164    2.1374356    7.1257581   0.16003904 
   27400    -943.3626    48.294317   -895.06829    1729.7273    2825.1434    2.1711389    3.7779409   0.17028936 
   27500   -943.75703     46.18922   -897.56781    1654.3304    5861.5349    2.1827272    4.8478443   0.17500019 
   27600   -943.50329    52.528664   -890.97462    1881.3862   -4783.6518    2.1542037      4.97617   0.16746528 
   27700   -937.69404    48.546869   -889.14717    1738.7728   -1712.2633    2.1455916    8.8665463   0.17427967 
   27800   -945.17252    47.826481   -897.34604    1712.9711    4607.7409    2.1852358    6.2579401   0.13085733 
   27900   -944.54548    48.013156   -896.53232    1719.6571    7650.5024     2.189885    7.8681762    0.1565131 
   28000   -938.48242    47.218958   -891.26346    1691.2119   -15149.045    2.1173834    8.5087323   0.13289675 
   28100   -940.32836    51.034171   -889.29419    1827.8589    -7944.647    2.1408746    8.0019503   0.12985459 
   28200   -944.37267    48.806832   -895.56584    1748.0837    19525.163    2.2169077    9.4993237   0.14880551 
   28300   -945.40427    48.236743   -897.16753    1727.6652   -1562.3798    2.1670449    9.0363922   0.14052763 
   28400   -938.06608    44.799067   -893.26702    1604.5401   -9999.4978    2.1309182    8.8344725   0.14572687 
   28500   -940.13833    48.383934    -891.7544    1732.9371    6671.5078    2.1783552    6.9454541   0.16171095 
   28600   -946.41507    45.176187   -901.23888    1618.0472    12952.733     2.207352    6.3336532   0.15400261 
   28700   -942.88259    44.796911   -898.08568    1604.4629   -6424.9208    2.1499281    5.9409833    0.1484766 
   28800   -945.12743    48.887208   -896.24022    1750.9625   -7776.6241    2.1519504    5.5607757   0.14276403 
   28900   -946.04501     50.77477   -895.27024    1818.5681    9924.1477    2.1948309    6.2369898   0.13169873 
   29000   -937.93334    53.620849   -884.31249    1920.5044    3407.4586    2.1613286    6.3116459    0.1353983 
   29100   -941.65419    51.607763   -890.04642    1848.4029   -7239.9228    2.1448299    8.8624243   0.13905334 
   29200   -943.02725    47.503333   -895.52391    1701.3971   -2750.3091    2.1628771    8.9752306   0.15160995 
   29300    -943.8711    46.695109   -897.17599    1672.4494    5453.8183    2.1882787    7.7040086    0.1386692 
   29400   -945.68548    45.972045   -899.71344    1646.5519   -316.84303    2.1754452    7.6740351   0.15446867 
   29500   -937.95825    46.213631   -891.74462    1655.2047   -2446.9124    2.1528447    5.7567795   0.16760933 
   29600   -943.02123    51.948556   -891.07268    1860.6089    3914.2699     2.176044    5.4235893   0.15857243 
   29700   -944.63998    49.713522   -894.92646    1780.5581   -1156.4052    2.1690158    8.3577704   0.13375223 
   29800   -946.59461    47.708209    -898.8864     1708.735   -6973.6555    2.1567037    8.3387035   0.13685479 
   29900   -944.49124    50.634985   -893.85625    1813.5615    4592.9018    2.1809417    7.4096787   0.12245312 
   30000   -941.31988     51.99173   -889.32815    1862.1552    6040.3427    2.1793411    8.7155447   0.15840237 
   30100   -943.06974    45.391221   -897.67852    1625.7489   -12481.737    2.1406761     8.449562   0.14968379 
   30200   -945.18172    47.727688   -897.45403    1709.4327    -2917.142    2.1678787     6.760491   0.13557405 
   30300   -945.41881    53.478622   -891.94019    1915.4103    14387.243    2.2086743    7.3762432   0.15852175 
   30400   -942.90324    51.809971   -891.09327    1855.6453   -9619.2805    2.1429036    6.9834104   0.16309298 
   30500   -946.25938    46.040096   -900.21929    1648.9893   -9863.5113     2.151791     7.933577   0.14830708 
   30600    -944.0622    48.020425   -896.04177    1719.9175    8949.4895    2.1904492    7.0447399   0.15340872 
   30700   -943.17457    49.277666   -893.89691    1764.9473    4331.5598    2.1752317    8.3594632   0.14033078 
   30800   -937.38237    48.134076   -889.24829     1723.988   -6251.8514    2.1400144    8.9158794     0.149813 
   30900   -932.14776    49.044811   -883.10294    1756.6073   -2122.8362    2.1359425    10.391791   0.16436602 
   31000   -944.50759    51.987358   -892.52023    1861.9986     7750.043    2.1856277    7.5378147   0.14136322 
   31100   -944.38516    48.802008   -895.58315    1747.9109     1506.655    2.1734224    6.5056083   0.15397725 
   31200   -945.70451    46.476462   -899.22805    1664.6183   -8589.7893     2.152918    6.0440244    0.1596743 
   31300   -943.51384    49.586037   -893.92781     1775.992    821.15295    2.1741061    5.1281387   0.16408939 
   31400   -940.55852    50.052152   -890.50637    1792.6866    4910.3496    2.1749023    7.5055156   0.15558704 
   31500   -945.99939    48.130589    -897.8688    1723.8631   -4472.9924      2.16055    8.5803983   0.12220078 
   31600   -943.46137      46.2184   -897.24297    1655.3755   -884.04269    2.1649242    8.8507781   0.14183246 
   31700   -939.80796    52.118682   -887.68928    1866.7022    3661.6766    2.1667801    6.8302293   0.14969008 
   31800   -944.47718    48.756152   -895.72103    1746.2686    2549.7984     2.175339    7.8683012   0.15255646 
   31900   -945.85404    47.304698   -898.54934    1694.2827   -7862.1929    2.1534882    7.0254063   0.13663464 
   32000   -944.39833    51.696354   -892.70197    1851.5759    622.86344    2.1637402    6.8002651   0.14355613 
   32100   -943.62326     53.37197   -890.25129    1911.5904    5047.5066    2.1730337    8.4239762   0.13961529 
   32200   -946.10183    46.306942   -899.79489    1658.5467   -1284.8809     2.173222    6.3955409   0.14341121 
   32300   -942.11828     45.06773   -897.05055    1614.1627   -674.15575     2.162631    7.2229097   0.14037023 
   32400   -946.00683    52.734002   -893.27283    1888.7407   -956.98358     2.170268    8.4189143   0.14438083 
   32500   -947.44753    45.226964   -902.22057    1619.8658    729.05269    2.1818884    7.9886908    0.1335402 
   32600   -947.28221    46.860722   -900.42148    1678.3811   -4619.1923    2.1650067    8.2055592   0.13229532 
   32700   -942.69693    47.589091   -895.10784    1704.4687    697.07339    2.1694057    7.8289488   0.15305148 
   32800   -943.13458     46.80074   -896.33384    1676.2328    7635.8285    2.1852602    6.7338534   0.15178721 
   32900   -945.91022    41.759374   -904.15085    1495.6693   -1692.6276    2.1701217    5.6218165   0.13084557 
   33000   -940.99738    44.676803   -896.32058    1600.1611   -8896.7345     2.142427    7.9514733   0.13822642 
   33100   -946.63453    52.907915   -893.72661    1894.9696    9105.8337     2.193916    8.7310473   0.12888358 
   33200   -946.44263    45.608225   -900.83441    1633.5212    6910.0595    2.1939254    7.4958706    0.1357415 
   33300   -939.63276    46.477486   -893.15528     1664.655   -11124.261    2.1306413    7.1351731   0.14211468 
   33400   -944.10524    50.748121   -893.35712    1817.6137   -1032.7663    2.1619446    8.9174946   0.13030512 
   33500   -945.71328    48.691416   -897.02187    1743.9499    13148.344    2.2005382    7.2537206   0.15126893 
   33600   -946.91355    46.603875   -900.30968    1669.1818   -3260.5054    2.1662596    8.6026009    0.1375219 
   33700   -940.99464    51.006384   -889.98825    1826.8637   -12880.064    2.1277867    9.0315343   0.14381438 
   33800    -943.8481    47.591493   -896.25661    1704.5547    9999.4735     2.193478    7.4172071   0.13573649 
   33900   -946.98597    48.801951   -898.18401    1747.9089    4189.7403     2.183975    5.0786329   0.13761992 
   34000   -944.96399    51.925416   -893.03858    1859.7801   -10893.018    2.1384062    8.3434872   0.11812422 
   34100   -938.47972    48.761098   -889.71862    1746.4457    -1309.492    2.1534696    7.3398029   0.15321059 
   34200   -947.51128    48.841313   -898.66997    1749.3187    9917.3198    2.2043746    7.9650125   0.14856523 
   34300   -939.89396    43.841103   -896.05286    1570.2293    751.33339    2.1683577    7.5775645   0.15310326 
   34400   -939.28478    46.160457   -893.12432    1653.3002   -9834.2879    2.1373743    7.6108551    0.1501679 
   34500    -948.9498    45.549909   -903.39989    1631.4326    7631.3116    2.1982442    6.7354844   0.14094273 
   34600   -945.69028     48.50474   -897.18554    1737.2639    5169.3953    2.1840417    6.2148177   0.14398837 
   34700   -940.13186    44.933284   -895.19858    1609.3473   -4985.2326    2.1509908    9.2330228   0.15917968 
   34800   -945.10347    45.257737   -899.84573     1620.968   -2394.7919    2.1667091    8.3365593   0.13171566 
   34900   -948.92101    46.579197   -902.34182    1668.2979     7886.849    2.1998278    7.7100416    0.1339483 
   35000    -943.1097    48.933183   -894.17652    1752.6092   -661.53942    2.1661204    7.5323518   0.14298443 
   35100   -942.89908    45.253244   -897.64583    1620.8071   -5735.5568    2.1535512    7.2587129   0.14973757 
   35200   -949.88506    48.026427   -901.85863    1720.1325    1138.6501    2.1857549    6.7974112   0.15180402 
   35300   -945.33617    53.776029   -891.56014    1926.0623    1926.9434     2.174931    7.3579364   0.14497932 
   35400   -943.20823    48.669113   -894.53912    1743.1511   -1109.9737    2.1642472    7.0028303    0.1449119 
   35500   -944.55026    45.024035   -899.52622    1612.5977    -2375.226    2.1685561    6.9223228   0.13719917 
   35600    -944.2499    48.458034   -895.79187    1735.5911    3625.9104    2.1770869     6.617835   0.15059916 
   35700   -940.91378    49.825671   -891.08811    1784.5749   -1434.1361    2.1582683    9.1545513   0.15240973 
   35800    -941.7927    43.069929   -898.72277    1542.6087   -776.49852    2.1690235    7.8447208   0.14259373 
   35900    -944.8745    48.071259   -896.80324    1721.7382    594.72275    2.1732384    8.1058217   0.14604467 
   36000    -939.9938    50.692507    -889.3013    1815.6218   -783.52785    2.1585111    7.2040237   0.16114221 
   36100   -946.92188    47.813368   -899.10852    1712.5015    -330.0515    2.1768438    6.9088227   0.14535653 
   36200   -941.66351    44.409982   -897.25353    1590.6045    972.77835    2.1673348    8.5337668   0.15490364 
   36300   -944.99208    54.184598   -890.80749    1940.6958   -3560.0592    2.1580595    7.5931582   0.14617485 
   36400   -948.56899    48.379521   -900.18947     1732.779    2518.6466    2.1831484    6.3015381   0.13611938 
   36500   -945.24775    46.564817   -898.68293    1667.7829   -2882.8744     2.165555    8.6109325   0.13610916 
   36600   -942.81906    49.866084   -892.95298    1786.0223   -1879.7045    2.1591185    7.9621698   0.14419491 
   36700   -942.98094    43.579323   -899.40162    1560.8533    5860.3962    2.1825663     5.520227   0.14966105 
   36800   -944.67915    45.072502   -899.60665    1614.3336    -1137.437    2.1702623    15.734885   0.17047314 
   36900    -939.8622     46.09732   -893.76488    1651.0388   -3920.3111      2.15104    15.343476   0.18163802 
   37000   -944.78118    48.195709   -896.58547    1726.1955    4224.4642    2.1765492    16.279841   0.16746063 
   37100   -947.76837    46.479346   -901.28903    1664.7216     7463.977    2.1986444    7.6084559   0.14966321 
   37200   -941.18127    48.715076   -892.46619    1744.7973    -7949.791     2.139729    6.8599402   0.13882662 
   37300   -944.35507    47.703384   -896.65168    1708.5622   -6251.2504    2.1556308    6.9949804   0.14302615 
   37400   -944.60322    45.429783   -899.17343    1627.1301    12347.355    2.1995829     6.646515   0.14769203 
   37500   -936.80939    46.374885    -890.4345    1660.9802    3796.2994    2.1599081    10.696758   0.15042864 
   37600   -939.48674    44.528338    -894.9584    1594.8436   -7265.4739    2.1390929    7.8168757   0.14805771 
   37700   -943.59581    44.284673   -899.31114    1586.1164    3813.6241    2.1754108    7.9148725   0.13478444 
   37800   -942.84024    49.646409   -893.19383    1778.1543    10069.569    2.1884747    7.5368865   0.13956838 
   37900    -940.5834    47.701426   -892.88198    1708.4921    -6189.535    2.1455001    4.5716851   0.15255255 
   38000   -947.83302     46.56702     -901.266    1667.8618   -6585.2736      2.15802    7.8592799   0.13258601 
   38100   -942.97504    47.998652   -894.97639    1719.1376    8085.8968    2.1851343    7.4506919   0.13374443 
   38200   -943.29343    50.235161   -893.05827    1799.2413    2684.1349    2.1699603    8.3856283   0.14030977 
   38300   -947.22089    44.371225   -902.84967    1589.2164   -4352.8341    2.1638568    7.6586737    0.1395409 
   38400   -940.32463    42.553674   -897.77096    1524.1183    2071.7834    2.1657802    8.8259408   0.14356559 
   38500   -945.47221    52.283409    -893.1888    1872.6021    865.10586    2.1741369    8.0255538   0.15761211 
   38600   -944.94003    43.496144   -901.44389    1557.8741   -254.93373    2.1721162    8.0747506   0.14655407 
   38700   -947.16737    48.268786   -898.89858    1728.8129   -4068.2141    2.1637991    7.1109777   0.14016251 
   38800   -940.76928     47.53002   -893.23926     1702.353     2710.081    2.1685844    6.2352301   0.16762891 
   38900   -945.15282    45.501722    -899.6511    1629.7067    954.52788     2.174051    5.3463808   0.13023501 
   39000   -946.78833    47.510305   -899.27802    1701.6468   -1495.7885    2.1713851    6.3604069   0.14316042 
   39100   -942.27573    50.296916   -891.97882    1801.4531   -2304.1435    2.1554005    6.2047221   0.14046145 
   39200   -943.16918    44.871149   -898.29803    1607.1218    1406.3479    2.1715517    8.1694745   0.13563572 
   39300   -942.98224    44.271659   -898.71058    1585.6503    4903.6821    2.1786825    6.8176155   0.14236793 
   39400   -941.82004    51.993757   -889.82628    1862.2278   -5361.8891    2.1502634     7.237215   0.15837593 
   39500   -944.63149     46.48956   -898.14193    1665.0875    404.97265    2.1713364    7.0149086   0.14696597 
   39600   -946.10085    48.583969   -897.51689    1740.1016    1519.1414    2.1783589     7.761084   0.16588351 
   39700   -938.16091    48.173484   -889.98743    1725.3995   -2240.0717    2.1515275     9.018105   0.16365909 
   39800   -946.56364    48.549829   -898.01381    1738.8788   -5100.0407     2.158426    7.0889994   0.13359469 
   39900    -944.3041     45.78023   -898.52387    1639.6818    2917.2303    2.1766196    7.5610224   0.14810421 
   40000    -942.6334    50.294677   -892.33872    1801.3729    4824.1367    2.1793295    7.0340283   0.13081274 
   40100   -945.55948    47.922727   -897.63675    1716.4183    -8585.065    2.1529074    7.8533044   0.13238083 
   40200    -945.6244    44.204367   -901.42004    1583.2401   -5155.0238    2.1606111     8.234773    0.1461333 
   40300   -943.80688    50.448889   -893.35799    1806.8962    7705.0621    2.1869114     8.134844    0.1416776 
   40400   -945.44781    48.104356   -897.34345    1722.9236   -391.86137    2.1721744    5.6104449   0.15603421 
   40500   -944.44174    40.030416   -904.41133    1433.7443   -5646.4864    2.1585154    5.6304581   0.15995496 
   40600   -940.47678     45.14549   -895.33129    1616.9477    2277.3897    2.1681946    7.5608178   0.15268012 
   40700    -945.5865    51.059104   -894.52739    1828.7519    6603.8653    2.1882669    8.0669889   0.15067134 
   40800   -946.14697     44.45242   -901.69455    1592.1245   -2259.3461    2.1705472       7.8238   0.13384742 
   40900   -939.89412    45.708887   -894.18523    1637.1266   -5514.7545    2.1482676    7.6803897   0.13064582 
   41000   -943.47394    50.537491   -892.93645    1810.0697    6166.0179    2.1819835    6.6962214   0.13594774 
   41100   -945.36593    46.917301   -898.44863    1680.4076    4005.7883    2.1817161    6.9825397   0.14000913 
   41200   -939.94518    43.860776    -896.0844     1570.934   -4741.0007    2.1500894    6.1576913    0.1507279 
   41300   -935.65831    46.069411   -889.58889    1650.0392   -2607.5633    2.1444037    7.7913471   0.17176981 
   41400    -944.7417    47.842746   -896.89895    1713.5537    9354.1677    2.1957429    6.4111781   0.14910051 
   41500     -943.902    46.913881   -896.98812    1680.2851    631.27263    2.1665824    5.8972604   0.16367573 
   41600   -938.96921    48.512471   -890.45674    1737.5408   -10815.456     2.130395    5.9348824   0.16954199 
   41700   -943.25376    43.514036   -899.73972    1558.5149    6291.5885    2.1842919    6.4475593   0.14209205 
   41800   -943.07054    46.275381   -896.79515    1657.4163    14326.605    2.2021861    7.6871658   0.15365905 
   41900   -934.27363    43.325587   -890.94805    1551.7654   -7740.7024    2.1284698     7.626182   0.14512408 
   42000   -940.63451    44.826777   -895.80774    1605.5326    -13780.72    2.1292119    7.0510647    0.1413601 
   42100   -941.70961    44.763184   -896.94643    1603.2549    22180.208    2.2230182    6.8129731   0.15373332 
   42200   -942.78083     47.13349   -895.64734    1688.1507    8018.1156    2.1847804    6.7490895   0.13933086 
   42300    -938.9906      47.2246     -891.766    1691.4139   -13691.038    2.1210542    9.3280584   0.13481912 
   42400   -945.06249    43.042135   -902.02035    1541.6132     3225.097    2.1819459    7.1885566   0.14345804 
   42500   -944.66951    48.252173   -896.41733    1728.2178    8778.1804    2.1926875    7.9117931   0.12726196 
   42600    -944.1215    50.151071   -893.97043    1796.2295   -5286.4025    2.1539948    7.4234616   0.12875144 
   42700   -948.31976    45.722031   -902.59773    1637.5973   -8877.9581    2.1589813    8.3111831   0.14123803 
   42800   -943.79771    44.544289   -899.25342    1595.4149    6361.7337    2.1843706    8.6906985   0.14072748 
   42900   -943.57596    50.399283   -893.17667    1805.1195    3934.4789    2.1782147    6.4807106   0.14669945 
   43000   -942.22122     42.63954   -899.58168    1527.1937   -6033.7618    2.1537874     8.427682   0.13905509 
   43100   -944.61478     44.10643   -900.50835    1579.7324   -75.902947    2.1702172    7.4243847    0.1275535 
   43200   -943.32967    51.528275    -891.8014     1845.556    6042.6704    2.1807936    6.0412309   0.14311945 
   43300   -945.08108    48.070788    -897.0103    1721.7213   -2055.6212    2.1649939    6.5837134   0.13190334 
   43400   -947.05403    46.175385   -900.87864    1653.8348   -5195.9572    2.1602212    6.9426267   0.11974041 
   43500    -941.7966    49.952594   -891.84401    1789.1208    5616.5336    2.1763501    7.2205331   0.14289018 
   43600   -944.98723    51.368291   -893.61894    1839.8259    4562.0469    2.1821921    7.7202452   0.13941203 
   43700   -945.66933    46.110523    -899.5588    1651.5117   -10348.613    2.1484106    7.5122334   0.13372749 
   43800   -939.91996    46.182267   -893.73769    1654.0813   -80.820572    2.1566409    7.7305006   0.13718707 
   43900   -939.89039    50.679211   -889.21118    1815.1456    12196.028    2.1909794    6.0789437   0.16748893 
   44000   -947.58228    48.954468   -898.62781    1753.3715   -1633.6272    2.1719295    8.5860804   0.12894451 
   44100    -940.6053    43.215798    -897.3895    1547.8332    -13180.14    2.1318928    8.3688158   0.14739036 
   44200   -940.73348    49.432121   -891.30136    1770.4793     4286.717    2.1732934    7.4897084    0.1314195 
   44300   -944.80007    44.954591   -899.84548    1610.1104    17674.169    2.2174834    6.4453979   0.14138712 
   44400   -942.50155    42.382373   -900.11918    1517.9829   -9629.9761    2.1454599    8.3745582   0.14817056 
   44500    -941.6972     46.39843   -895.29877    1661.8235   -6024.9983    2.1508254     6.661155   0.14198023 
   44600   -944.34446    47.765719   -896.57874    1710.7948     6103.147    2.1885298    6.0995861   0.14331208 
   44700   -946.92586    42.188614   -904.73725    1511.0432    3494.2832    2.1870952    6.4450999   0.14146517 
   44800   -942.47182    47.001029   -895.47079    1683.4064   -6064.0228    2.1491029    6.9150079   0.14348922 
   44900    -940.4526    45.017308   -895.43529    1612.3567    3644.8572    2.1713035    8.0549288   0.16274337 
   45000   -944.46748    43.579347   -900.88813    1560.8542    6244.7148    2.1885412    6.7652121   0.14087217 
   45100    -942.3542    48.099029   -894.25517    1722.7328   -624.69899    2.1645047    6.9631674   0.14493127 
   45200   -941.92182    48.670268   -893.25156    1743.1925   -3153.1636    2.1571165    8.9680155   0.16580814 
   45300    -945.7606    47.655969   -898.10463     1706.864    853.21761    2.1755388    6.7955153   0.14301463 
   45400   -945.87023     46.85351   -899.01672    1678.1228     5427.912    2.1854535    5.8343331    0.1400661 
   45500   -937.89316    48.673247   -889.21991    1743.2992   -5099.6619    2.1416829     6.112605    0.1516048 
   45600    -944.4933    47.330815   -897.16248    1695.2182   -909.84827    2.1691215     7.499199   0.12784485 
   45700   -943.36578    45.954677    -897.4111    1645.9299    9896.8949    2.1950026     7.778165   0.14403931 
   45800   -939.67412    49.309024   -890.36509    1766.0704   -2333.3017    2.1562287    8.2347606   0.14020779 
   45900   -940.34623    47.586212   -892.76002    1704.3655   -11697.002    2.1328694    8.4936228   0.16048439 
   46000   -945.72023    46.857706   -898.86253    1678.2731    4792.7043    2.1865469    6.5462542   0.14058291 
   46100   -945.72646    51.188568   -894.53789    1833.3889    11743.357     2.200503    6.6664724   0.14592404 
   46200   -940.16735    47.874026   -892.29333     1714.674   -11048.689    2.1307701    7.2386176   0.13435225 
   46300   -944.18727    41.709068    -902.4782    1493.8676   -3135.0924    2.1629722    7.4264308   0.12755925 
   46400   -945.31317    48.164781   -897.14839    1725.0878    10101.463    2.1956995    6.6098552   0.12436532 
   46500   -942.49022    48.759755   -893.73046    1746.3976    431.92488     2.168616    6.2941335   0.12985862 
   46600   -946.02767    47.765849   -898.26182    1710.7995   -9542.1187     2.147944    7.5110023   0.13959647 
   46700   -950.33745    49.273081   -901.06437    1764.7831     482.4517    2.1842841    7.4892228   0.13417418 
   46800   -942.57565    49.237057   -893.33859    1763.4928     4308.599    2.1790225    8.6201031   0.14108995 
   46900   -945.80959    47.889443   -897.92015    1715.2262   -3871.3493    2.1600432    8.2578208   0.14049262 
   47000   -947.45902    44.978139   -902.48088    1610.9538   -2595.3179    2.1746009     6.455402   0.14247098 
   47100   -939.39075    46.638962   -892.75179    1670.4385    2159.5527     2.170349    7.9706304   0.14755544 
   47200   -940.22611    44.286856   -895.93926    1586.1946    2302.1693    2.1718278     5.894961   0.15806161 
   47300   -945.44853    44.654932    -900.7936    1599.3777    -2383.265    2.1741085    7.4283781   0.13603129 
   47400   -942.00949    48.334749   -893.67474    1731.1754    2150.0131    2.1709954    6.8292148   0.13839802 
   47500   -943.29308     50.63897   -892.65411    1813.7043    1665.6688    2.1723898     8.576318   0.15859421 
   47600   -946.85404    48.402526   -898.45152    1733.6029   -7283.9556    2.1584524    7.1319806    0.1378716 
   47700   -944.40336    47.740428   -896.66294     1709.889   -1937.4712    2.1647598    7.2074317    0.1523664 
   47800   -940.16634    52.091121   -888.07522     1865.715    7180.8114    2.1754999     4.821749   0.15253473 
   47900   -941.99417    45.609464   -896.38471    1633.5656    2622.8034    2.1722488    7.5533487   0.14097067 
   48000   -945.03738    46.589924   -898.44745    1668.6821   -11010.486    2.1457221    6.3944993   0.13493421 
   48100   -940.02738    49.617296   -890.41009    1777.1116    2257.1769    2.1661394    8.8440285   0.14752235 
   48200   -946.96713    52.113866   -894.85326    1866.5297    10855.019    2.1979443    8.3270154   0.13966434 
   48300   -944.39724    45.175452   -899.22179    1618.0209   -7744.9187    2.1521444    6.3260416   0.14586157 
   48400   -940.51456    44.709552   -895.80501     1601.334   -4197.8028    2.1561866      6.94114   0.15558492 
   48500    -944.2769    51.209731   -893.06717    1834.1469    8752.1877     2.191489    7.7920754   0.15471699 
   48600    -948.8639    45.648995    -903.2149    1634.9815   -435.18783    2.1825152     9.105685   0.16139217 
   48700   -943.28801    42.921373   -900.36663    1537.2879   -9700.3871    2.1482362    8.9620543   0.15664157 
   48800   -944.77585    49.605976   -895.16987    1776.7062    4220.2025    2.1797894    7.7096241   0.15183426 
   48900    -943.3846    46.830033   -896.55457    1677.2819    6042.3218    2.1845198    6.3123377   0.13985505 
   49000   -945.89751    40.131815    -905.7657    1437.3761   -1774.6958    2.1725495    9.1565871   0.12178226 
   49100   -944.33135    46.327169   -898.00418    1659.2712   -2410.4443    2.1637256    9.4555114   0.14909479 
   49200   -941.62767    46.795948   -894.83172    1676.0612    6802.7007    2.1834536    9.9074331   0.15104152 
   49300   -948.68532    49.001859   -899.68346    1755.0689   -935.10285    2.1758444    7.3399064     0.140056 
   49400   -948.45044    42.751649   -905.69879     1531.209   -4315.9391    2.1731225    6.3265426   0.15351808 
   49500   -945.55163    49.809786   -895.74185    1784.0059   -3250.4221    2.1651007    6.3852218   0.15580265 
   49600   -947.67192    51.821662   -895.85026     1856.064    3628.4645    2.1826315    6.9849812   0.14837538 
   49700     -949.175    49.133972   -900.04103    1759.8007   -2093.0463    2.1727179    8.5045303   0.14638515 
   49800   -949.15403    41.835349   -907.31868    1498.3905   -3948.0435    2.1756115    8.5336092   0.13631644 
   49900    -943.7109    45.838682   -897.87222    1641.7754    1482.9058     2.172246    8.3044052   0.12548981 
   50000   -945.36016    49.123066    -896.2371    1759.4101    7755.0189    2.1910754    5.3520342    0.1268339 
   50100    -944.3337    47.738394   -896.59531    1709.8161   -2541.5803     2.163573    6.5205737   0.13419034 
   50200   -938.85478    50.072732   -888.78205    1793.4237   -8828.8765     2.137968    7.2094348   0.16217766 
   50300   -940.06031    51.314866   -888.74545    1837.9124    12686.322    2.1902437    7.2329696   0.17521573 
   50400   -941.89175      47.9976   -893.89415       1719.1    6019.3568    2.1812152    16.711934   0.17976858 
   50500   -941.54317    44.966251   -896.57692    1610.5281   -16903.452    2.1244399    14.995092   0.18327128 
   50600   -939.50324    48.341859   -891.16138    1731.4301    791.52538    2.1677571    10.261675   0.16058766 
   50700   -939.57048    52.431963   -887.13852    1877.9228    13680.655    2.1969214    15.131589   0.18592558 
   50800   -941.05375    43.681051    -897.3727    1564.4968   -2190.7126    2.1572462    14.498434   0.16153895 
   50900   -941.69596    44.927637   -896.76832     1609.145   -8663.5056    2.1447476     15.38229   0.16231709 
   51000   -940.94673    46.728169   -894.21856    1673.6335     7627.754    2.1823144    13.708663   0.18882574 
   51100   -945.59658    48.309308   -897.28728    1730.2642    4163.1777    2.1779635    15.561704   0.15977132 
   51200   -948.05019    44.346152   -903.70404    1588.3183   -2588.9301    2.1691932    16.859778   0.15698848 
   51300   -945.29187    48.287769    -897.0041    1729.4928   -1127.1182     2.166332    16.303328   0.17468165 
   51400    -942.8207    49.296172   -893.52452    1765.6101    4879.6432    2.1709048    17.655878   0.16342219 
   51500   -945.09506    44.414601   -900.68046    1590.7699   -180.81101    2.1698239    17.604061   0.18010654 
   51600   -942.86883    42.899291   -899.96954     1536.497   -2180.6301    2.1652344    15.729413   0.16901495 
   51700    -941.5465    48.219769   -893.32674    1727.0572    3693.6305    2.1778317    15.083235   0.18041801 
   51800   -945.42443    48.256125    -897.1683    1728.3594    1326.1136    2.1765668    15.132011   0.16351351 
   51900   -947.13148    44.607362   -902.52412    1597.6739   -6812.8062    2.1605431    32.957909   0.15971756 
   52000   -942.70212    49.784357   -892.91777    1783.0951   -5274.0514    2.1576536    32.592641   0.15867527 
   52100   -941.82245     48.99296   -892.82949    1754.7502    14805.808    2.2024583    30.189684   0.16649691 
   52200    -943.3067    45.186933   -898.11977    1618.4321   -6765.8833    2.1632157    25.527067   0.16852247 
   52300   -938.32672    48.125702   -890.20102    1723.6881   -15988.429    2.1237958    14.026213    0.1822052 
   52400   -939.16723    49.416079   -889.75115    1769.9047    7149.7534    2.1793954    15.123343   0.19897566 
   52500   -941.76044    46.280275   -895.48017    1657.5916      8759.34    2.1876668    16.216773   0.19815791 
   52600   -947.12363    50.443259   -896.68037    1806.6946   -9173.2242    2.1524412    18.849241   0.17478108 
   52700   -940.14593    50.801905   -889.34403      1819.54   -2811.7152    2.1538715    16.806483    0.1936798 
   52800   -941.04689    51.366101   -889.68079    1839.7475     3187.684    2.1679046     14.87713   0.17628554 
   52900   -942.48778    46.290456   -896.19733    1657.9563    2899.6818    2.1689724    13.561039   0.18252619 
   53000   -942.85225     46.93372   -895.91853    1680.9957   -2204.0867    2.1589401    16.585882   0.18144656 
   53100   -940.47844     46.82986   -893.64858    1677.2757    156.67098    2.1596407    15.495283   0.18170341 
   53200   -933.24695    50.444509   -882.80245    1806.7394    1083.2975    2.1449719     15.53128    0.1898546 
   53300   -942.12988    49.322331   -892.80755     1766.547    4078.4469    2.1735748    14.489987   0.17650444 
   53400   -941.69829     46.25968   -895.43861     1656.854   -462.65414    2.1596898    15.747726   0.17050693 
   53500   -946.42313    48.407056   -898.01607    1733.7652   -5303.9567    2.1569992    13.821133   0.17557973 
   53600   -951.99183     47.83262   -904.15921     1713.191    4879.5349    2.1951681    13.874457   0.16721499 
   53700   -945.65038    47.629559   -898.02082    1705.9181    5344.0911    2.1883083    14.709779   0.17428756 
   53800   -943.32716    48.282517   -895.04464    1729.3047   -11914.409     2.138051    14.440093   0.15937174 
   53900   -944.27497    47.882228   -896.39274    1714.9678   -5447.0154    2.1525333    16.102797   0.15325444 
   54000    -943.2326    49.383895   -893.84871     1768.752    14062.819    2.1986481    12.811095   0.15926255 
   54100   -937.77682    53.000608   -884.77621    1898.2896   -1097.4529    2.1444528    14.916866   0.15263425 
   54200   -941.28149    45.960612   -895.32088    1646.1425     -4436.11    2.1487089    17.333449   0.17154008 
   54300   -945.37214    48.978275   -896.39386    1754.2242    957.89639    2.1739166    16.908087    0.1563001 
   54400   -942.24513    47.983209   -894.26192    1718.5845    4839.9796     2.176627    14.186188   0.16100055 
   54500   -936.59186    51.486687   -885.10517    1844.0664   -6742.6466    2.1297807    12.749646   0.17914517 
   54600   -941.17779    45.436248   -895.74154    1627.3616     2375.588    2.1717296    13.171842   0.15974474 
   54700   -940.17317    44.346199   -895.82698      1588.32    2512.1908    2.1715559    16.703193   0.15825576 
   54800   -945.49736    49.147502   -896.34985    1760.2853   -5578.1809    2.1558691    17.338902   0.14217996 
   54900   -948.22197    45.427945   -902.79402    1627.0642   -376.13312    2.1710677    15.831342   0.14766171 
   55000   -947.90368    45.431308   -902.47238    1627.1847     8046.047    2.1913448    18.396069   0.14827471 
   55100   -946.90662    51.759731   -895.14689    1853.8458   -882.51607    2.1702927    16.115547   0.16365662 
   55200   -941.48116    45.574091   -895.90707    1632.2987   -8772.1221    2.1416439    15.433784   0.17639864 
   55300    -944.0421    46.845666   -897.19644    1677.8419    1740.7288    2.1724747    17.858906    0.1330202 
   55400   -950.48987    43.293703   -907.19617    1550.6234     15781.03    2.2236151    14.900549   0.14784736 
   55500   -943.55176    43.269819   -900.28194     1549.768   -8562.8506    2.1553198    20.027972   0.14059674 
   55600   -943.75156    46.977723   -896.77383    1682.5717   -5455.4048    2.1511755    15.925192   0.14352797 
   55700    -943.7934    49.864113   -893.92929    1785.9517    8107.2093    2.1901363     13.33393   0.14714583 
   55800   -945.41892    45.379769   -900.03915    1625.3387    1914.4385    2.1818344    13.361591   0.15139825 
   55900   -950.15224    46.116096   -904.03614    1651.7113   -7797.8604     2.161795    14.907225   0.13629146 
   56000   -944.76528    49.166408   -895.59887    1760.9624   -1306.6556    2.1662501    19.990233   0.16106884 
   56100   -946.23623    51.676304   -894.55992    1850.8578     4902.253     2.183145    13.177503   0.15667602 
   56200   -944.25366    45.799153   -898.45451    1640.3596   -2883.4956    2.1646576    16.083845   0.15304402 
   56300   -949.83778    44.847071   -904.99071    1606.2595   -1719.7415    2.1797311    14.152796   0.16120431 
   56400   -941.61648    45.786146   -895.83033    1639.8937    3801.6562    2.1745572    16.042362   0.16361787 
   56500   -946.41356    51.320467    -895.0931     1838.113   -1392.8191    2.1723397    16.541938   0.17092636 
   56600   -943.74469    46.866008   -896.87868    1678.5704   -696.70969    2.1650862    13.540469   0.16065546 
   56700   -949.29775    43.701133   -905.59662    1565.2161   -1145.6375    2.1819447    15.190776   0.14320253 
   56800   -941.21439    44.108741   -897.10565    1579.8151   -1171.8436    2.1673183      18.3252   0.16442375 
   56900   -941.60303    47.287596   -894.31543    1693.6702    3767.0892    2.1786543    21.377833   0.16084308 
   57000   -943.85278    48.911743   -894.94104    1751.8412   -1443.5504    2.1674102    17.556636   0.16235509 
   57100   -947.10771    42.091863   -905.01584    1507.5779    82.463336    2.1796326    21.747935   0.14656506 
   57200   -947.62484    49.005667   -898.61917    1755.2053   -4239.9646    2.1675812     28.99908   0.15518672 
   57300   -944.84166     50.24028   -894.60138    1799.4246    4709.6769    2.1833269    25.204451    0.1543558 
   57400   -945.01245    45.061703   -899.95075    1613.9468   -2104.0208    2.1739912    24.298409   0.15856696 
   57500   -950.80814    46.446075   -904.36207      1663.53   -8479.6542    2.1673188    25.111499   0.14051699 
   57600   -945.53223    50.195678   -895.33655    1797.8272    529.18725    2.1744779    22.961303   0.15048696 
   57700   -946.07215     50.13017   -895.94198    1795.4809    3129.0963    2.1835353    24.525483   0.16379965 
   57800   -949.75319    48.383863   -901.36932    1732.9345   -6830.2645    2.1685857    25.527554    0.1566291 
   57900   -947.78351    42.881404   -904.90211    1535.8564    -3140.426    2.1755878    23.130587   0.15029304 
   58000   -944.80154     49.64706   -895.15448    1778.1777   -146.67158    2.1735326    22.455299   0.17420033 
   58100    -946.2062    50.150984   -896.05522    1796.2264    695.99777    2.1772334    24.216597   0.15583671 
   58200   -946.00476    47.747039   -898.25773    1710.1258   -2215.4905    2.1702816    24.295598   0.17136405 
   58300   -948.63642      45.3032   -903.33322    1622.5963   -2262.0186    2.1753945    23.441333   0.15768877 
   58400    -946.8952    41.337363   -905.55783    1480.5544    10094.277    2.2011872    23.120786   0.15081304 
   58500    -943.8345    45.561521   -898.27298    1631.8484    1815.6902    2.1787244    24.550314   0.15749684 
   58600   -946.62791    50.234449   -896.39346    1799.2158   -11728.066     2.146063    24.031336   0.12701433 
   58700    -941.4453    47.919578   -893.52572    1716.3055    1255.7307    2.1691979    21.213222   0.15225674 
   58800   -948.69567    45.143733   -903.55194    1616.8848    12136.533    2.2114842    22.938365   0.14666751 
   58900    -946.2768    47.924735   -898.35207    1716.4902   -10050.966    2.1512571    25.020202   0.15279623 
   59000   -944.08114    48.186113   -895.89503    1725.8518   -10060.994     2.148549    23.275792   0.15596432 
   59100   -945.30641    49.146826   -896.15958    1760.2611    10229.289     2.195965    22.058204   0.15120702 
   59200   -947.79334    42.543874   -905.24947    1523.7673    5002.3762    2.1920735    20.501011   0.13922624 
   59300   -943.15986    46.423367    -896.7365    1662.7166   -8339.2409    2.1455721    26.168313   0.16188015 
   59400   -943.42411    47.996046   -895.42806    1719.0443    1303.9977    2.1744806    20.470327   0.15794498 
   59500   -944.95561    45.401579   -899.55403    1626.1199    5346.3679     2.188423    24.012458   0.14028245 
   59600   -950.97527    45.764644   -905.21063    1639.1236   -4210.7652    2.1759214    23.771148   0.13161238 
   59700     -945.711    50.562928   -895.14807    1810.9807   -6915.2846     2.159534    27.001134     0.139073 
   59800   -944.57446    49.040081   -895.53438    1756.4378    5546.9614    2.1867958    24.298303   0.15383727 
   59900   -944.13905    46.403884   -897.73516    1662.0188    1623.4753    2.1759201     24.30768   0.15191204 
   60000   -941.58265     45.34501   -896.23764    1624.0938   -5775.1938    2.1546652    22.355822   0.15891668 
   60100   -939.26678    50.795791   -888.47099     1819.321   -1055.9611    2.1570225     22.26044    0.1663603 
   60200   -942.31388    48.177798   -894.13608     1725.554    7354.8326    2.1844053    20.705774   0.15836997 
   60300   -942.88985    45.304143   -897.58571    1622.6301   -3447.1056    2.1611889    24.511749   0.15864152 
   60400   -939.55696    49.181272   -890.37569    1761.4948   -4287.3935    2.1483559     24.40574   0.14210744 
   60500   -940.37441    49.846972   -890.52744    1785.3377    5980.9103    2.1773453    24.909799   0.15056896 
   60600   -941.36694    44.658104   -896.70884    1599.4913    4072.5561    2.1775039    24.290506     0.141041 
   60700    -944.6592    47.757568   -896.90163    1710.5029   -6045.9192    2.1526201    24.457537   0.12806244 
   60800   -942.15325    51.784411   -890.36884    1854.7298   -1861.0038    2.1595531    24.023123   0.14906396 
   60900   -940.45535    51.894611   -888.56073    1858.6768    10574.034    2.1870194    20.852134   0.15551696 
   61000   -941.17504    44.532464   -896.64258    1594.9914   -1608.6551    2.1588051    22.576965   0.14702348 
   61100   -944.25061    47.056751   -897.19386    1685.4022   -7332.3137    2.1499213    25.075488   0.13059137 
   61200   -942.81577    49.276035   -893.53973    1764.8889    8690.6338    2.1899835    23.721018   0.14189314 
   61300    -933.6177    48.129737   -885.48796    1723.8326    7389.2693    2.1685194    21.452184   0.16238487 
   61400   -941.31745    48.662418   -892.65503    1742.9113   -12592.476    2.1341955    23.654777   0.13417059 
   61500   -946.03505    49.584322   -896.45073    1775.9306   -4307.8645    2.1625616     23.49504   0.13010733 
   61600   -947.66458    52.008339   -895.65624    1862.7501    9914.9752    2.1978822    25.521412   0.13666902 
   61700   -949.83713    48.517159   -901.31997    1737.7087   -5734.8034    2.1695603    21.440234   0.13278706 
   61800    -949.0415     43.57411   -905.46739    1560.6666   -6606.1567    2.1676076    22.805342   0.14035853 
   61900    -945.8852     48.67744   -897.20776    1743.4494    2917.5375    2.1819326    22.821165   0.15042356 
   62000   -944.53001    48.643002   -895.88701    1742.2159    1434.8906    2.1757744    24.582453   0.14163933 
   62100    -945.8513     47.62744   -898.22386    1705.8422   -6369.6429    2.1601956     25.82947   0.14672995 
   62200   -949.46903    43.273638   -906.19539    1549.9048     1833.827    2.1904465    24.084967   0.13500324 
   62300   -944.88046    47.869234   -897.01122    1714.5024    887.39873    2.1737771    25.134964   0.14023697 
   62400   -944.53455    48.890978   -895.64358    1751.0975   -3450.6791    2.1656417    19.960921   0.14341847 
   62500   -943.16566    44.744458    -898.4212    1602.5842    552.79323     2.174888    24.031796   0.14662141 
   62600   -947.13271    42.181859   -904.95085    1510.8012    4358.7556    2.1928562    22.860403   0.13199866 
   62700   -942.44968    46.206235   -896.24344    1654.9398   -1895.3266    2.1639833    23.613559   0.14144989 
   62800   -944.79812    48.930032   -895.86809    1752.4963    -1407.305    2.1665384    22.499299   0.13842893 
   62900   -947.72383    45.559586   -902.16424    1631.7792    987.81141    2.1821602    25.196331   0.13691104 
   63000   -944.62521    42.294054   -902.33116    1514.8196    3145.5582    2.1839657    23.965054   0.16267404 
   63100   -942.33389    46.976555   -895.35733    1682.5298    31.799142    2.1648151    25.313644   0.13311553 
   63200   -946.09416    48.945891   -897.14827    1753.0643   -2859.8812     2.165962    23.280755   0.13363004 
   63300   -944.32154    41.531946    -902.7896    1487.5237    3000.9523    2.1814933    24.411238   0.14646679 
   63400   -948.26796    44.203226   -904.06473    1583.1993    2386.4123    2.1904714    21.997162   0.14440239 
   63500   -945.32508    49.129681    -896.1954     1759.647    -2992.123     2.163617    25.624326   0.13719913 
   63600   -946.96983    50.137416   -896.83241    1795.7404   -4851.1853    2.1601709     24.66345   0.12681892 
   63700   -946.99795    50.253204   -896.74474    1799.8875    767.66517      2.18074    22.495296    0.1378244 
   63800   -937.04844    51.396126   -885.65232    1840.8228    1318.3581    2.1587141    21.347342   0.14694413 
   63900   -939.78181    47.208771   -892.57304     1690.847   -1983.7246    2.1587162    23.957398   0.15879497 
   64000   -941.14734    43.997349   -897.14999    1575.8255   -781.96234    2.1619841    20.675311   0.12608374 
   64100   -943.16558    46.220482    -896.9451      1655.45    5596.8085    2.1816896    19.483722   0.13799691 
   64200   -940.34644    53.558793   -886.78765    1918.2817    2221.4816    2.1638215    21.058527   0.14574528 
   64300   -946.08337    51.786335   -894.29703    1854.7987   -6141.3377    2.1570174    22.260816   0.13224496 
   64400   -947.90144    49.634495   -898.26695    1777.7276   -7810.4621    2.1603668    25.106954    0.1415705 
   64500   -942.95029    49.253165   -893.69712    1764.0697    8839.2884    2.1920203    23.840955   0.15095613 
   64600   -940.09482    51.800574   -888.29425    1855.3087    1422.1707    2.1641484    26.971212   0.15887182 
   64700   -947.76442    48.947358   -898.81706    1753.1169   -9459.2262    2.1539984    24.886067   0.13545337 
   64800   -945.95704    48.058231   -897.89881    1721.2715   -3279.2093    2.1702962    24.841817   0.14674834 
   64900    -939.2886    45.605339   -893.68326    1633.4179    11100.254    2.1932001    20.193257   0.14108385 
   65000   -940.21382    46.417917    -893.7959    1662.5215    -2853.351     2.158592    21.180099   0.15372984 
   65100   -944.74725     41.67497   -903.07228    1492.6463   -3893.7388    2.1676943    23.977043   0.13662134 
   65200   -944.46608    46.676079      -897.79    1671.7679    5076.0525    2.1834367    24.429334   0.13645133 
   65300   -941.25682    47.364385   -893.89244    1696.4205     4048.085    2.1705779    26.315073   0.13618236 
   65400   -945.25404    47.023461   -898.23058    1684.2098   -10903.052     2.148476     24.92353   0.14375635 
   65500   -947.36759    45.047714   -902.31987    1613.4458    304.72005    2.1787614    24.230898   0.15131977 
   65600   -945.31035    51.693788   -893.61657     1851.484    8606.9809    2.1886549    23.965617   0.15034353 
   65700   -946.49955    49.250459   -897.24909    1763.9728   -7432.7298    2.1528712    22.695908   0.14633534 
   65800   -947.19614     43.44232   -903.75382    1555.9463   -10489.127    2.1498978    19.650476   0.13220437 
   65900    -945.2487    47.510858   -897.73784    1701.6666    13070.483    2.2032913    24.873692   0.14735057 
   66000   -944.22838    50.778835   -893.44955    1818.7137      8414.56    2.1859124    24.154436   0.14438524 
   66100   -943.35331     43.98494   -899.36837    1575.3811   -12298.698    2.1356318    26.126748    0.1442384 
   66200   -943.50415    47.593961   -895.91019    1704.6431   -821.38116    2.1639259    28.831132    0.1411577 
   66300   -940.73523    51.030721   -889.70451    1827.7354    2975.3978     2.169647    28.331355   0.15484485 
   66400   -945.26321    47.142647   -898.12057    1688.4787   -477.62015    2.1694896    23.250653   0.13540925 
   66500   -946.84853    49.482349   -897.36618    1772.2783   -4593.8205    2.1594837    25.098548   0.14168238 
   66600   -937.09452    48.607115    -888.4874    1740.9306    1794.4112    2.1552187    26.570615   0.16082499 
   66700   -944.16452    46.429869   -897.73465    1662.9495    4106.5848    2.1799985    23.615085   0.14637449 
   66800   -945.52165    47.291181   -898.23047    1693.7986   -4054.7152    2.1611363     26.15176   0.14329972 
   66900   -941.54371    49.072472   -892.47124     1757.598   -3434.9247    2.1537291    24.407009   0.14711704 
   67000   -943.96776    45.880346   -898.08741    1643.2676    4007.2417    2.1782961    23.639007   0.14221708 
   67100   -947.59695    47.099885   -900.49706    1686.9471     486.3397    2.1755196    24.107327   0.14709818 
   67200   -943.04833    47.415976   -895.63236    1698.2683   -2222.5149    2.1604934    27.942392    0.1549319 
   67300   -938.71292    45.301048   -893.41187    1622.5193    1653.1839    2.1571041    28.192754   0.16503924 
   67400   -948.04119    44.455935   -903.58526    1592.2504    5558.8032    2.1910728    27.380632   0.14489452 
   67500   -942.91051    45.028962   -897.88155    1612.7741   -4237.1012    2.1534388    25.003758   0.14479034 
   67600   -942.13996    46.907544   -895.23241    1680.0581   -1647.1338    2.1578174     20.80166   0.14667006 
   67700   -945.77337    46.587104   -899.18627    1668.5811    7055.0726    2.1891047    25.438135   0.14640187 
   67800    -947.6814     43.20663   -904.47477    1547.5048    2080.7929    2.1837004    22.716794    0.1316075 
   67900   -944.33718    49.354784    -894.9824    1767.7094   -13250.507    2.1335023    22.790261   0.13027565 
   68000   -948.20996    51.720473   -896.48948    1852.4398     391.9789    2.1758628    21.224872   0.13226452 
   68100   -945.28027    45.047703   -900.23256    1613.4454    13276.319     2.201986     22.77219   0.15338882 
   68200   -939.06337     49.41431   -889.64906    1769.8414   -8737.3615    2.1339356    25.828797   0.16235726 
   68300   -944.31821     49.38841    -894.9298    1768.9137    -5158.396    2.1546548    26.315226   0.14548426 
   68400   -947.67629    50.007147   -897.66914    1791.0747    6984.3908     2.189296    22.752046   0.12564696 
   68500   -945.64484    48.469507   -897.17533     1736.002    1187.4273    2.1732859    22.498409   0.12578363 
   68600   -940.91745    52.035348   -888.88211    1863.7175    -12290.59    2.1273227    22.800485   0.13024078 
   68700   -946.93797     48.82683   -898.11114       1748.8    2916.6735    2.1819105    24.307308   0.13500005 
   68800   -947.84269    50.607308   -897.23538    1812.5702    4717.5259    2.1865952    25.038166    0.1402587 
   68900   -941.04205     49.71251   -891.32954    1780.5218   -5297.0659    2.1487423    23.873988   0.16059046 
   69000   -943.04072    47.967589   -895.07314    1718.0251   -4451.2307    2.1515608    22.471169    0.1493684 
   69100   -945.91157    46.628372    -899.2832    1670.0592    3885.5314    2.1830192    22.814957   0.16102535 
   69200   -944.60435     49.31607   -895.28828    1766.3228    899.26179    2.1732942    21.745002   0.15324318 
   69300   -939.73297    46.535104   -893.19787    1666.7187   -2883.5179    2.1506166    25.182643   0.15461167 
   69400   -947.25034    43.848035    -903.4023    1570.4776    1540.7697    2.1843636    24.557384   0.14879691 
   69500   -938.02989    40.908229   -897.12166    1465.1844    5777.8082    2.1690371    22.524157   0.13647592 
   69600   -943.74219    48.991196   -894.75099     1754.687   -3698.7993    2.1564161    23.717505    0.1421025 
   69700   -946.71977    44.435805   -902.28396    1591.5294    17.917837    2.1716933     25.65663   0.13291833 
   69800    -945.8123    45.581749   -900.23055    1632.5729    2532.2636    2.1800456    23.669592    0.1418081 
   69900   -942.67764    48.408861   -894.26878    1733.8299    1574.4899    2.1689639    26.120409   0.17250888 
   70000    -946.8563     47.72035   -899.13595    1709.1699   -6300.2706    2.1588431    28.421562   0.15791475 
   70100   -947.64397    44.913581   -902.73039    1608.6416    1616.4248    2.1805774    23.567424   0.15163193 
   70200   -940.90188    48.300235   -892.60165    1729.9392    5698.4134    2.1783435    20.827111   0.17416468 
   70300   -942.74249    46.940238   -895.80225    1681.2291   -5106.7154    2.1534639    23.011003   0.15236977 
[...]
  186800   -946.53807    39.305097   -907.23298     1407.766   -6882.0532    2.1636894    67.544955   0.16287813 
  186900   -950.30374    50.635161   -899.66858    1813.5678   -3450.7499    2.1746349       70.023   0.13308753 
  187000    -939.7766    43.823742   -895.95285    1569.6075    11007.899     2.193296    73.172609     0.139598 
  187100   -943.93019    47.489322   -896.44086    1700.8953    -4841.668    2.1638536    70.204737   0.13615235 
  187200    -944.0504    43.993321   -900.05708    1575.6812   -8845.6108    2.1513907    68.434266   0.14139194 
  187300   -945.18366    41.310562    -903.8731    1479.5945     12649.52    2.2069574    73.295966   0.14632724 
  187400   -943.86349    47.379399   -896.48409    1696.9582     8370.641    2.1921773    67.126267   0.14241762 
  187500   -941.33959    44.983832   -896.35576    1611.1577   -11260.046    2.1419344    71.734562   0.15688281 
  187600   -943.07685    49.370122   -893.70672    1768.2587     -3084.88    2.1652826    75.343962    0.1584058 
  187700    -935.8316    52.727324   -883.10427    1888.5015    10447.382    2.1781962    69.017036   0.18322615 
  187800   -940.90075    50.609123   -890.29162    1812.6352    599.48192    2.1608422    69.069165   0.14268338 
  187900   -942.90722    47.270355   -895.63686    1693.0527   -5581.5415    2.1549588    67.998771   0.14097746 
  188000   -943.45856    46.005235   -897.45332    1647.7407    2804.3214    2.1808691    76.900233   0.13747368 
  188100   -946.92041    45.512952   -901.40746    1630.1089    4750.8637    2.1883288    69.838803   0.13398363 
  188200    -948.2686    38.199863   -910.06874    1368.1805   -1675.6972    2.1833487    71.624465   0.13545815 
  188300   -945.13917    44.829789   -900.30938    1605.6405   -6426.9539    2.1606998    66.558014   0.14852982 
  188400   -943.03667    45.692434   -897.34424    1636.5373    7929.4458    2.1902647    76.548691   0.16010283 
  188500   -946.23809    51.006522   -895.23157    1826.8686     1437.974    2.1771204    71.899213   0.14195859 
  188600   -942.22283    49.334122   -892.88871    1766.9694   -9296.9676    2.1424095    68.828333   0.16405895 
  188700   -948.94542     45.18083   -903.76459    1618.2135    3272.5207    2.1932304    71.362208   0.14965511 
  188800   -946.78838     48.36791   -898.42047    1732.3631    5994.7639    2.1879024    71.615677   0.14481044 
  188900    -943.6129    48.419101    -895.1938    1734.1966   -6661.7377    2.1513703    76.827152   0.14892977 
  189000    -941.7602    47.446955   -894.31324    1699.3779   -5391.7604    2.1531744     75.07295   0.13145129 
  189100   -948.81127    45.876867    -902.9344     1643.143    12695.332    2.2112684    70.591226   0.13613625 
  189200   -941.92094    46.640362   -895.28058    1670.4886    924.30857    2.1736657    72.581171   0.16619602 
  189300   -944.46254    48.549977   -895.91256    1738.8841   -15637.481    2.1355217    66.929205   0.15989624 
  189400    -949.0894     48.20732   -900.88208    1726.6114    351.38792    2.1827392    69.405561   0.15847116 
  189500   -947.60229    46.378977   -901.22331    1661.1268    14979.355    2.2156769    73.367061   0.16566586 
  189600   -941.79068    47.716678   -894.07401    1709.0384   -7289.4158    2.1426924    71.993949   0.14670891 
  189700   -943.59357    46.155068    -897.4385    1653.1072    -8340.226    2.1475219    69.317622   0.14862528 
  189800   -950.14255    50.062791   -900.07975    1793.0676    6002.9119     2.193721    67.176591   0.13494946 
  189900   -941.96455    51.913518   -890.05103     1859.354     -916.753    2.1623471    68.977933   0.14067636 
  190000   -943.20915    46.820203   -896.38895    1676.9299   -3881.9961    2.1613498     71.00963    0.1477922 
  190100   -945.74021    46.544831   -899.19537     1667.067   -911.87151    2.1706427    70.108532   0.13192993 
  190200   -942.46636    52.297738   -890.16862    1873.1153    2454.8774    2.1657462    70.079136   0.13074682 
  190300   -942.26925    47.342515   -894.92674    1695.6372     2422.206    2.1712363    67.225528   0.15576622 
  190400   -943.33995      43.3302   -900.00975    1551.9306   -4350.2258    2.1597291    68.063673   0.15928815 
  190500   -942.51598    49.682745   -892.83323    1779.4558    276.32858     2.166932    71.009429   0.15973061 
  190600   -943.30975    49.696166   -893.61358    1779.9364    5931.6509     2.179648    69.614173   0.13993065 
  190700   -945.95369    45.072149   -900.88154    1614.3209   -3940.2765     2.165917    68.032971   0.13948454 
  190800   -943.19448    47.315955   -895.87853    1694.6859    -2682.593    2.1597634    67.888492   0.14561942 
  190900    -943.1943     51.80978   -891.38452    1855.6384    5993.5136    2.1796981     70.40486   0.14492837 
  191000    -946.1071      44.6529    -901.4542     1599.305    921.42723    2.1831448    69.174425   0.13326149 
  191100   -944.35408    46.835796   -897.51828    1677.4884   -11864.092    2.1379047    73.052271    0.1300848 
  191200   -942.72131    49.916068   -892.80524    1787.8126    2548.1602    2.1653279    70.688384   0.14542885 
  191300   -946.00024    47.985618   -898.01463    1718.6708    13215.679    2.2052211    69.889946   0.16180314 
  191400   -950.37344     47.06714   -903.30629    1685.7743   -11004.953    2.1563097    71.659655   0.17525389 
  191500   -940.52236    46.264997   -894.25737    1657.0444   -10170.907    2.1386401    76.530987   0.18770106 
  191600   -941.70772    48.406126   -893.30159    1733.7319    11376.662    2.1886196    70.348686   0.19186366 
  191700   -947.67716    47.495254   -900.18191    1701.1078    3436.4354    2.1875039    76.604539   0.16046912 
  191800   -938.16985    46.561686   -891.60816    1667.6707   -5393.9201    2.1504127    80.573406   0.16809498 
  191900   -939.33187    47.515576   -891.81629    1701.8356    1786.8241    2.1564215    76.745515    0.1596008 
  192000   -944.34768    47.256416   -897.09126    1692.5534    3828.9076    2.1788844    78.825814   0.13711638 
  192100   -943.76636    46.097878   -897.66848    1651.0588    2400.1202    2.1743176    75.606612   0.17058305 
  192200    -939.8542    51.713112   -888.14108    1852.1761   -5765.1663    2.1437784    74.692831   0.17930731 
  192300   -943.54651    47.555687   -895.99083    1703.2722    1732.5588    2.1742992     76.37057   0.18465538 
  192400   -942.63318    46.438128   -896.19506    1663.2453    8325.7567     2.180259    63.154984   0.18835948 
  192500   -938.91798    50.396191   -888.52179    1805.0088   -1924.2086    2.1466737    65.032178   0.19436893 
  192600   -940.52611    47.531752   -892.99436     1702.415   -3251.0725    2.1518638    72.943439   0.18908622 
  192700   -942.16784    45.431461   -896.73637    1627.1902    2180.8319    2.1715917    73.130086   0.18414003 
  192800   -945.35316    50.498845   -894.85432    1808.6855    5461.3084    2.1881578    74.618625   0.18118234 
  192900    -939.5914    50.235702    -889.3557    1799.2607   -9369.5151    2.1386943    70.533614    0.1678526 
  193000   -937.07949    50.399784   -886.67971    1805.1375   -10276.595    2.1232872    77.268379   0.16280969 
  193100   -938.07037    44.204502   -893.86587    1583.2449    15074.581    2.1951414    80.205673   0.17303364 
  193200   -941.07499    46.102895    -894.9721    1651.2385    7559.5448    2.1816577    68.804383   0.17774374 
  193300   -945.78579    46.863921   -898.92187    1678.4957   -14611.488    2.1351276    77.547089   0.15067451 
  193400    -949.4849    44.062771   -905.42213    1578.1687   -916.26424     2.179886    81.729988    0.1390334 
  193500   -943.35729    46.927853   -896.42943    1680.7855    12352.205    2.1982069    82.787735   0.14467231 
  193600   -943.58881    47.747584   -895.84123    1710.1453   -785.50065    2.1659434    86.457309   0.13098755 
  193700   -944.93794    47.059863   -897.87808    1685.5136   -7006.2792    2.1555189    87.494271   0.13837247 
  193800   -945.51476    46.561079   -898.95368     1667.649    3033.1185    2.1804999    82.451698   0.13883866 
  193900   -938.63148    50.486123   -888.14536    1808.2298    1820.5613    2.1578398    91.225971   0.14577907 
  194000   -941.78887    47.959497   -893.82937    1717.7353    2088.0993    2.1702347    83.633935   0.14151197 
  194100   -947.94348    50.049789   -897.89369     1792.602    -2879.112     2.169313     87.74447   0.13414535 
  194200   -945.53155    48.923731   -896.60782    1752.2706   -2071.9712    2.1690776    79.820913   0.14682915 
  194300   -936.62884    48.901949   -887.72689    1751.4905   -1708.1032    2.1524247     84.95583   0.15981846 
  194400   -948.58123    51.891487   -896.68974    1858.5649    1380.5285    2.1790541     82.62749   0.13658952 
  194500   -945.34323    48.026706   -897.31652    1720.1424    2962.2231    2.1781511    86.928552   0.14276685 
  194600   -940.62979      49.5671   -891.06269    1775.3138   -6434.9455    2.1468014    81.726966   0.14520571 
  194700   -942.38605    51.212173   -891.17387    1834.2343   -3867.5059    2.1554223    82.999483   0.14300356 
  194800   -945.04874    47.780163   -897.26858    1711.3121    9747.4742    2.1938462    82.004745   0.15041083 
  194900   -940.27114    44.587237    -895.6839    1596.9531    3625.8697    2.1688766    78.322424   0.14223725 
  195000   -941.24763    49.222716   -892.02492    1762.9792   -13985.986    2.1280922    81.500087    0.1315569 
  195100   -950.79711    47.515263   -903.28185    1701.8244    5974.5665     2.199054     83.56936   0.14097873 
  195200   -947.04384    48.895446   -898.14839    1751.2576    5621.7757    2.1893692    85.543621   0.13496214 
  195300   -943.22976    47.829898   -895.39987    1713.0935   -9875.5575     2.144027    82.073074   0.14787827 
  195400   -945.61757    51.894987   -893.72258    1858.6902   -7470.3945      2.15154    82.921697   0.13475342 
  195500   -947.49426    44.374199   -903.12006    1589.3229     14716.33    2.2136045    81.369881   0.13605957 
  195600   -942.99512    46.795868   -896.19925    1676.0583   -1507.5649    2.1637952    80.691871   0.14935044 
  195700   -941.96185    46.230566   -895.73129    1655.8112   -8526.6985    2.1465048    75.361229   0.15401173 
  195800   -945.70353      44.8881   -900.81543     1607.729    5068.3101    2.1841995    82.359451   0.13622679 
  195900   -949.83495    47.011174   -902.82378    1683.7698    4745.5902    2.1967122     81.91304   0.13607062 
  196000   -943.10467    48.268564   -894.83611    1728.8049   -7326.6895    2.1529682    86.143469   0.13807203 
  196100   -943.31864    45.672167   -897.64648    1635.8114   -2768.7547    2.1634347    73.525714   0.14665086 
  196200   -944.06111    42.996302   -901.06481    1539.9716    6830.5832    2.1927007    83.583014   0.14475531 
  196300   -943.83919    53.482461   -890.35672    1915.5478   -2095.6766     2.158638    79.017596   0.13816403 
  196400   -945.35465     50.33195    -895.0227    1802.7079    -3875.423    2.1632271    81.510964   0.13506201 
  196500   -947.19854    48.340945    -898.8576    1731.3973   -2040.0459    2.1743695    79.052457   0.14872505 
  196600   -941.68054    46.357019   -895.32352    1660.3403    3484.7536    2.1739233    80.439463    0.1426922 
  196700   -941.80497    51.233279   -890.57169    1834.9903   -2772.3063    2.1537402    85.845511   0.14449995 
  196800   -943.57951     45.34411    -898.2354    1624.0616   -1045.8134    2.1670109    82.966447   0.13901448 
  196900   -945.70972    48.985382   -896.72434    1754.4788    1707.1595    2.1781741    80.797724   0.14715328 
  197000   -939.82194    51.508505   -888.31343    1844.8478   -1395.7167    2.1512877    88.732962   0.15528317 
  197100   -944.05339    46.325393   -897.72799    1659.2076   -1642.9212    2.1598369    84.461795   0.13712682 
  197200   -946.85661    48.948478   -897.90814     1753.157   -1022.9128    2.1702597    82.335224   0.14333817 
  197300   -942.02773    49.916147   -892.11158    1787.8153    6615.2371    2.1775293    84.713045   0.13925923 
  197400   -941.01806    45.758499   -895.25956    1638.9035   -2172.9445    2.1491817    82.695655   0.14266614 
  197500    -944.0918      42.9979    -901.0939    1540.0289   -3815.5941    2.1601604     84.18364   0.14075472 
  197600   -944.21368    49.679432   -894.53425    1779.3371    9268.6152    2.1912163    83.429746   0.14212482 
  197700   -943.15853    46.963845   -896.19469    1682.0746    1839.7542    2.1712402    81.709232   0.13910943 
  197800   -948.47083    43.312376   -905.15845    1551.2922   -8551.1809    2.1597321     82.08352   0.14753951 
  197900   -944.27175    46.811309   -897.46044    1676.6113   -916.36564    2.1665367    81.795208   0.15071647 
  198000   -942.99803    48.808843   -894.18919    1748.1558    8567.7554    2.1895497    77.518494    0.1563133 
  198100   -949.13246    47.335979   -901.79648    1695.4031   -5824.2355    2.1680905    79.761637   0.13039453 
  198200   -947.97915    49.186166   -898.79298    1761.6701   -9729.7931    2.1538437    82.265097   0.14683933 
  198300   -941.88067    48.594984   -893.28569    1740.4961    5622.2766    2.1789076    80.208667   0.13382248 
  198400   -944.70981     47.14306   -897.56675    1688.4934    1260.8788    2.1762187    84.426239   0.13561421 
  198500   -947.46436    45.658493   -901.80587    1635.3216   -6157.6336    2.1606748    80.147915   0.13719434 
  198600   -943.12009    50.591799   -892.52829    1812.0148    571.18685    2.1659143    87.979282   0.13144635 
  198700   -941.65076     48.60064   -893.05012    1740.6987    11702.285    2.1920563    79.854268   0.15082291 
  198800   -943.24334    44.752676   -898.49066    1602.8786   -5828.8716    2.1489511    83.045055   0.12418185 
  198900   -944.47062    49.112685   -895.35794    1759.0383   -10157.459    2.1403339    80.253685   0.14253808 
  199000   -937.26722    49.737068   -887.53015    1781.4014    14248.289    2.1837208    77.608452   0.14124048 
  199100   -943.31898    47.866824   -895.45216    1714.4161    6084.3164     2.182702    82.596434   0.12073242 
  199200   -943.99707    45.358239   -898.63883    1624.5676   -10971.652    2.1413425     81.02574   0.12563771 
  199300   -944.32099    52.855006   -891.46598    1893.0746   -153.34922    2.1636357    85.180981   0.11953579 
  199400   -939.75148    48.921263   -890.83021    1752.1822     5977.439    2.1745513    90.289204   0.13655901 
  199500   -940.70348    41.865164   -898.83831    1499.4583    3520.6734    2.1708888    78.012239   0.15599915 
  199600   -944.85826    48.491755   -896.36651    1736.7988   -990.29158     2.164594    78.645848   0.13182169 
  199700   -940.09776     49.17582   -890.92194    1761.2995     2528.242    2.1653371    78.784373   0.13397958 
  199800   -943.95278    49.015378    -894.9374    1755.5531   -2540.2513    2.1616099    80.193707   0.14566757 
  199900   -945.14905    45.666592   -899.48246    1635.6117   -2676.7795    2.1681721    81.751171    0.1320685 
  200000   -944.98491    49.141292   -895.84362    1760.0629    2991.4827     2.182626     85.09626   0.13307073 
  200100   -940.97345     46.39316   -894.58029    1661.6347    1782.2156    2.1696542     83.00901   0.14704447 
  200200   -944.87419    40.618713   -904.25547     1454.815   -3712.8467    2.1669027    83.928334   0.13038257 
  200300   -948.01272    47.543582   -900.46914    1702.8387   -2575.2403     2.173964    85.311784   0.12601364 
  200400   -947.46107    52.777094   -894.68398    1890.2841    5909.3449    2.1886028    81.845207     0.149089 
  200500   -944.25252    46.504216   -897.74831    1665.6124   -3677.0195    2.1652154    78.049805   0.14609915 
  200600   -945.43339    39.309638   -906.12376    1407.9287   -6964.2348    2.1622382    81.330243   0.14644989 
  200700   -944.77656    47.266914   -897.50964    1692.9295    4043.7184    2.1821537    75.105591   0.13484292 
  200800   -947.02595     52.15421   -894.87174    1867.9747    8166.6194    2.1943121    88.953438   0.13761338 
  200900    -946.8054      46.1224     -900.683    1651.9371   -10638.332    2.1481292     83.54451   0.14813186 
  201000   -940.68356    39.772355   -900.91121    1424.5015   -4140.5967     2.157892    84.720498   0.13417387 
  201100   -941.65256    49.326017   -892.32654     1766.679    9785.4766    2.1914101     87.07989   0.14747414 
  201200   -945.57157    49.966741   -895.60483    1789.6274   -2790.0571    2.1690729    83.769249   0.14181825 
  201300   -941.84568    43.700998   -898.14468    1565.2113    -7674.531    2.1489621     80.75099   0.14223673 
  201400   -951.38651    45.258844   -906.12767    1621.0076    869.46856    2.1902317    84.760098   0.14626785 
  201500   -942.57575    41.991369   -900.58439    1503.9786    8684.3187    2.1928324     81.31486   0.15659477 
  201600    -942.8182    45.867136   -896.95106    1642.7945     311.7709    2.1687299    83.891129   0.13578648 
  201700    -943.3465    46.887564   -896.45894    1679.3425   -1031.3172    2.1617695    77.168026      0.13598 
  201800   -938.30125     42.48202   -895.81923    1521.5519    5365.1914    2.1752956    83.277649   0.15604333 
  201900   -935.40379     51.05382   -884.34997    1828.5627   -2268.2134     2.148936    78.461897   0.15074983 
  202000   -943.46393    51.061233    -892.4027    1828.8282    2497.5583    2.1728714    82.905553   0.14650667 
  202100   -947.61321    51.165956   -896.44725     1832.579     -3286.21    2.1658265    83.150617   0.13045414 
  202200   -943.84394    45.313061   -898.53088    1622.9495   -1335.8825     2.164968    85.154367   0.13677128 
  202300   -942.19479    47.009359   -895.18543    1683.7047    3552.5581    2.1732318    75.836159   0.15445471 
  202400   -941.14781    51.343419   -889.80439    1838.9351    -1919.467    2.1564515    80.454337   0.15627844 
  202500   -944.76537    48.384553   -896.38081    1732.9592   -6825.2635    2.1494385    78.856846   0.15513104 
  202600   -943.99235    46.421919   -897.57043    1662.6648    7369.8583    2.1849756    81.444668   0.15191969 
  202700   -945.05268    45.021491   -900.03118    1612.5065    9994.7835    2.1959285    80.744535   0.14939671 
  202800   -940.32427    52.184047   -888.14023    1869.0433   -14032.653       2.1204    87.060656    0.1520173 
  202900   -941.10852    47.925865   -893.18266    1716.5307    2855.2814    2.1688553    81.570489   0.14920721 
  203000   -946.65063    51.077279   -895.57335    1829.4029    11478.923    2.1982863    80.422918   0.15038706 
  203100   -943.92541    43.968917   -899.95649    1574.8071   -3675.1853     2.157805    79.624881   0.14520936 
  203200   -942.69518    51.842743   -890.85243    1856.8191   -9843.5742    2.1395724    83.636723   0.15451206 
Loop time of 142.429 on 1 procs for 200000 steps with 217 atoms

Performance: 363.972 ns/day, 0.066 hours/ns, 1404.213 timesteps/s
100.0% CPU use with 1 MPI tasks x no OpenMP threads

MPI task timing breakdown:
Section |  min time  |  avg time  |  max time  |%varavg| %total
---------------------------------------------------------------
Pair    | 136.79     | 136.79     | 136.79     |   0.0 | 96.04
Neigh   | 2.4589     | 2.4589     | 2.4589     |   0.0 |  1.73
Comm    | 0.92195    | 0.92195    | 0.92195    |   0.0 |  0.65
Output  | 0.074834   | 0.074834   | 0.074834   |   0.0 |  0.05
Modify  | 1.8798     | 1.8798     | 1.8798     |   0.0 |  1.32
Other   |            | 0.3071     |            |       |  0.22

Nlocal:    217 ave 217 max 217 min
Histogram: 1 0 0 0 0 0 0 0 0 0
Nghost:    957 ave 957 max 957 min
Histogram: 1 0 0 0 0 0 0 0 0 0
Neighs:    4099 ave 4099 max 4099 min
Histogram: 1 0 0 0 0 0 0 0 0 0
FullNghs:  8198 ave 8198 max 8198 min
Histogram: 1 0 0 0 0 0 0 0 0 0

Total # of neighbors = 8198
Ave neighs/atom = 37.7788
Neighbor list builds = 4149
Dangerous builds = 44
Total wall time: 0:02:24
