
     Program PWSCF v.6.4.1 starts on 14Dec2020 at  2:50:20 

     This program is part of the open-source Quantum ESPRESSO suite
     for quantum simulation of materials; please cite
         "P. Giannozzi et al., J. Phys.:Condens. Matter 21 395502 (2009);
         "P. Giannozzi et al., J. Phys.:Condens. Matter 29 465901 (2017);
          URL http://www.quantum-espresso.org", 
     in publications or presentations arising from this work. More details at
     http://www.quantum-espresso.org/quote

     Parallel version (MPI), running on     1 processors

     MPI processes distributed on     1 nodes
     Waiting for input...
     Reading input from standard input
Warning: card &IONS ignored
Warning: card / ignored
Warning: card &CELL ignored
Warning: card / ignored

     Current dimensions of program PWSCF are:
     Max number of different atomic species (ntypx) = 10
     Max number of k-points (npk) =  40000
     Max angular momentum in pseudopotentials (lmaxx) =  3

     Subspace diagonalization in iterative solution of the eigenvalue problem:
     a serial algorithm will be used


     G-vector sticks info
     --------------------
     sticks:   dense  smooth     PW     G-vecs:    dense   smooth      PW
     Sum         621     621    185                11753    11753    1935



     bravais-lattice index     =            0
     lattice parameter (alat)  =       8.8817  a.u.
     unit-cell volume          =     700.6323 (a.u.)^3
     number of atoms/cell      =           10
     number of atomic types    =            4
     number of electrons       =        32.00
     number of Kohn-Sham states=           16
     kinetic-energy cutoff     =      25.0000  Ry
     charge density cutoff     =     100.0000  Ry
     convergence threshold     =      1.0E-07
     mixing beta               =       0.5000
     number of iterations used =            8  plain     mixing
     Exchange-correlation      =  SLA  PW   PBX  PBC ( 1  4  3  4 0 0)

     celldm(1)=   8.881713  celldm(2)=   0.000000  celldm(3)=   0.000000
     celldm(4)=   0.000000  celldm(5)=   0.000000  celldm(6)=   0.000000

     crystal axes: (cart. coord. in units of alat)
               a(1) = (   1.000000   0.000000   0.000000 )  
               a(2) = (   0.000000   1.000000   0.000000 )  
               a(3) = (   0.000000   0.000000   1.000000 )  

     reciprocal axes: (cart. coord. in units 2 pi/alat)
               b(1) = (  1.000000  0.000000  0.000000 )  
               b(2) = (  0.000000  1.000000  0.000000 )  
               b(3) = (  0.000000  0.000000  1.000000 )  


     PseudoPot. # 1 for B  read from file:
     /home/modeler/qe_pseudo/b_pbe_v1.4.uspp.F.UPF
     MD5 check sum: cc6de2960df11db49a60e589f9ebb39b
     Pseudo is Ultrasoft + core correction, Zval =  3.0
     Generated by new atomic code, or converted to UPF format
     Using radial grid of  781 points,  4 beta functions with: 
                l(1) =   0
                l(2) =   0
                l(3) =   1
                l(4) =   1
     Q(r) pseudized with  8 coefficients,  rinner =    1.100   1.100   1.100


     PseudoPot. # 2 for H  read from file:
     /home/modeler/qe_pseudo/H.pbe-rrkjus_psl.1.0.0.UPF
     MD5 check sum: f52b6d4d1c606e5624b1dc7b2218f220
     Pseudo is Ultrasoft, Zval =  1.0
     Generated using "atomic" code by A. Dal Corso v.5.1
     Using radial grid of  929 points,  2 beta functions with: 
                l(1) =   0
                l(2) =   0
     Q(r) pseudized with 0 coefficients 


     PseudoPot. # 3 for N  read from file:
     /home/modeler/qe_pseudo/N.pbe-n-radius_5.UPF
     MD5 check sum: 16739722b17309cd8fe442a2ace49922
     Pseudo is Ultrasoft + core correction, Zval =  5.0
     Generated using "atomic" code by A. Dal Corso v.5.1
     Using radial grid of 1085 points,  4 beta functions with: 
                l(1) =   0
                l(2) =   0
                l(3) =   1
                l(4) =   1
     Q(r) pseudized with 0 coefficients 


     PseudoPot. # 4 for Na read from file:
     /home/modeler/qe_pseudo/na_pbe_v1.5.uspp.F.UPF
     MD5 check sum: 44600605ef58000f06b90626533354dc
     Pseudo is Ultrasoft, Zval =  9.0
     Generated by new atomic code, or converted to UPF format
     Using radial grid of  819 points,  5 beta functions with: 
                l(1) =   0
                l(2) =   0
                l(3) =   1
                l(4) =   1
                l(5) =   2
     Q(r) pseudized with  8 coefficients,  rinner =    1.250   1.250   1.250
                                                       1.250   1.250

     atomic species   valence    mass     pseudopotential
        B              3.00    10.81000     B ( 1.00)
        H              1.00     1.00800     H ( 1.00)
        N              5.00    14.00700     N ( 1.00)
        Na             9.00    22.98977     Na( 1.00)

     No symmetry found



   Cartesian axes

     site n.     atom                  positions (alat units)
         1           Na  tau(   1) = (   0.5000000   0.0000000   0.5000000  )
         2           Na  tau(   2) = (   0.0000000   0.5000000   0.5000000  )
         3           N   tau(   3) = (   0.5000000   0.5000000   0.5000000  )
         4           H   tau(   4) = (   0.6965851   0.5000000   0.4304957  )
         5           H   tau(   5) = (   0.4017064   0.6702489   0.4304957  )
         6           B   tau(   6) = (   0.0000000   0.0000000   0.0000000  )
         7           H   tau(   7) = (   0.2347000   0.0000000  -0.0829787  )
         8           H   tau(   8) = (  -0.1173489   0.2032553  -0.0829787  )
         9           H   tau(   9) = (  -0.1173489  -0.2032553  -0.0829787  )
        10           H   tau(  10) = (   0.0000000   0.0000000   0.2489362  )

     number of k points=    63
                       cart. coord. in units 2pi/alat
        k(    1) = (   0.0000000   0.0000000   0.0000000), wk =   0.0160000
        k(    2) = (   0.0000000   0.0000000   0.2000000), wk =   0.0320000
        k(    3) = (   0.0000000   0.0000000   0.4000000), wk =   0.0320000
        k(    4) = (   0.0000000   0.2000000   0.2000000), wk =   0.0320000
        k(    5) = (   0.0000000   0.2000000   0.4000000), wk =   0.0320000
        k(    6) = (   0.0000000   0.4000000   0.4000000), wk =   0.0320000
        k(    7) = (   0.2000000   0.2000000   0.2000000), wk =   0.0320000
        k(    8) = (   0.2000000   0.2000000   0.4000000), wk =   0.0320000
        k(    9) = (   0.2000000   0.4000000   0.4000000), wk =   0.0320000
        k(   10) = (   0.4000000   0.4000000   0.4000000), wk =   0.0320000
        k(   11) = (   0.2000000   0.0000000   0.0000000), wk =   0.0320000
        k(   12) = (   0.0000000   0.2000000   0.0000000), wk =   0.0320000
        k(   13) = (   0.4000000   0.0000000   0.0000000), wk =   0.0320000
        k(   14) = (   0.0000000   0.4000000   0.0000000), wk =   0.0320000
        k(   15) = (   0.0000000  -0.2000000   0.2000000), wk =   0.0320000
        k(   16) = (   0.2000000   0.0000000  -0.2000000), wk =   0.0320000
        k(   17) = (  -0.2000000   0.0000000  -0.2000000), wk =   0.0320000
        k(   18) = (   0.2000000  -0.2000000   0.0000000), wk =   0.0320000
        k(   19) = (  -0.2000000  -0.2000000   0.0000000), wk =   0.0320000
        k(   20) = (   0.0000000  -0.2000000   0.4000000), wk =   0.0320000
        k(   21) = (   0.2000000   0.0000000  -0.4000000), wk =   0.0320000
        k(   22) = (  -0.2000000   0.0000000  -0.4000000), wk =   0.0320000
        k(   23) = (   0.4000000  -0.2000000   0.0000000), wk =   0.0320000
        k(   24) = (  -0.4000000  -0.2000000   0.0000000), wk =   0.0320000
        k(   25) = (   0.0000000   0.4000000   0.2000000), wk =   0.0320000
        k(   26) = (   0.0000000   0.4000000  -0.2000000), wk =   0.0320000
        k(   27) = (   0.2000000   0.4000000   0.0000000), wk =   0.0320000
        k(   28) = (  -0.2000000   0.4000000   0.0000000), wk =   0.0320000
        k(   29) = (   0.4000000   0.0000000   0.2000000), wk =   0.0320000
        k(   30) = (   0.4000000   0.0000000  -0.2000000), wk =   0.0320000
        k(   31) = (   0.0000000  -0.4000000   0.4000000), wk =   0.0320000
        k(   32) = (   0.4000000   0.0000000  -0.4000000), wk =   0.0320000
        k(   33) = (  -0.4000000   0.0000000  -0.4000000), wk =   0.0320000
        k(   34) = (   0.4000000  -0.4000000   0.0000000), wk =   0.0320000
        k(   35) = (  -0.4000000  -0.4000000   0.0000000), wk =   0.0320000
        k(   36) = (  -0.2000000  -0.2000000   0.2000000), wk =   0.0320000
        k(   37) = (  -0.2000000   0.2000000  -0.2000000), wk =   0.0320000
        k(   38) = (   0.2000000  -0.2000000  -0.2000000), wk =   0.0320000
        k(   39) = (  -0.2000000  -0.2000000   0.4000000), wk =   0.0320000
        k(   40) = (  -0.2000000   0.2000000  -0.4000000), wk =   0.0320000
        k(   41) = (   0.2000000  -0.2000000  -0.4000000), wk =   0.0320000
        k(   42) = (   0.4000000  -0.2000000   0.2000000), wk =   0.0320000
        k(   43) = (  -0.4000000  -0.2000000  -0.2000000), wk =   0.0320000
        k(   44) = (   0.4000000   0.2000000  -0.2000000), wk =   0.0320000
        k(   45) = (  -0.4000000   0.2000000   0.2000000), wk =   0.0320000
        k(   46) = (  -0.2000000   0.4000000   0.2000000), wk =   0.0320000
        k(   47) = (  -0.2000000  -0.4000000  -0.2000000), wk =   0.0320000
        k(   48) = (   0.2000000   0.4000000  -0.2000000), wk =   0.0320000
        k(   49) = (   0.2000000  -0.4000000   0.2000000), wk =   0.0320000
        k(   50) = (  -0.2000000  -0.4000000   0.4000000), wk =   0.0320000
        k(   51) = (  -0.2000000   0.4000000  -0.4000000), wk =   0.0320000
        k(   52) = (   0.2000000  -0.4000000  -0.4000000), wk =   0.0320000
        k(   53) = (   0.4000000   0.2000000  -0.4000000), wk =   0.0320000
        k(   54) = (  -0.4000000  -0.2000000  -0.4000000), wk =   0.0320000
        k(   55) = (   0.4000000  -0.2000000   0.4000000), wk =   0.0320000
        k(   56) = (  -0.4000000   0.2000000   0.4000000), wk =   0.0320000
        k(   57) = (   0.4000000  -0.4000000   0.2000000), wk =   0.0320000
        k(   58) = (  -0.4000000  -0.4000000  -0.2000000), wk =   0.0320000
        k(   59) = (   0.4000000   0.4000000  -0.2000000), wk =   0.0320000
        k(   60) = (  -0.4000000   0.4000000   0.2000000), wk =   0.0320000
        k(   61) = (  -0.4000000  -0.4000000   0.4000000), wk =   0.0320000
        k(   62) = (  -0.4000000   0.4000000  -0.4000000), wk =   0.0320000
        k(   63) = (   0.4000000  -0.4000000  -0.4000000), wk =   0.0320000

     Dense  grid:    11753 G-vectors     FFT dimensions: (  30,  30,  30)

     Estimated max dynamical RAM per process >      59.53 MB

     Check: negative core charge=   -0.000058

     Initial potential from superposition of free atoms

     starting charge   31.98707, renormalised to   32.00000
     Starting wfcs are   24 randomized atomic wfcs

     total cpu time spent up to now is        3.9 secs

     Self-consistent Calculation

     iteration #  1     ecut=    25.00 Ry     beta= 0.50
     Davidson diagonalization with overlap
     ethr =  1.00E-02,  avg # of iterations =  2.0

     total cpu time spent up to now is        9.7 secs

     total energy              =    -223.74442197 Ry
     Harris-Foulkes estimate   =    -224.64395961 Ry
     estimated scf accuracy    <       1.58661005 Ry

     iteration #  2     ecut=    25.00 Ry     beta= 0.50
     Davidson diagonalization with overlap
     ethr =  4.96E-03,  avg # of iterations =  2.1

     total cpu time spent up to now is       15.6 secs

     total energy              =    -224.05635426 Ry
     Harris-Foulkes estimate   =    -224.16149401 Ry
     estimated scf accuracy    <       0.23301914 Ry

     iteration #  3     ecut=    25.00 Ry     beta= 0.50
     Davidson diagonalization with overlap
     ethr =  7.28E-04,  avg # of iterations =  2.4

     total cpu time spent up to now is       21.3 secs

     total energy              =    -224.09549008 Ry
     Harris-Foulkes estimate   =    -224.10671291 Ry
     estimated scf accuracy    <       0.02970572 Ry

     iteration #  4     ecut=    25.00 Ry     beta= 0.50
     Davidson diagonalization with overlap
     ethr =  9.28E-05,  avg # of iterations =  2.1

     total cpu time spent up to now is       26.9 secs

     total energy              =    -224.09884103 Ry
     Harris-Foulkes estimate   =    -224.09936959 Ry
     estimated scf accuracy    <       0.00242071 Ry

     iteration #  5     ecut=    25.00 Ry     beta= 0.50
     Davidson diagonalization with overlap
     ethr =  7.56E-06,  avg # of iterations =  2.0

     total cpu time spent up to now is       32.3 secs

     total energy              =    -224.09900070 Ry
     Harris-Foulkes estimate   =    -224.09902156 Ry
     estimated scf accuracy    <       0.00010726 Ry

     iteration #  6     ecut=    25.00 Ry     beta= 0.50
     Davidson diagonalization with overlap
     ethr =  3.35E-07,  avg # of iterations =  3.0

     total cpu time spent up to now is       38.4 secs

     total energy              =    -224.09902724 Ry
     Harris-Foulkes estimate   =    -224.09902643 Ry
     estimated scf accuracy    <       0.00001051 Ry

     iteration #  7     ecut=    25.00 Ry     beta= 0.50
     Davidson diagonalization with overlap
     ethr =  3.29E-08,  avg # of iterations =  2.0

     total cpu time spent up to now is       44.2 secs

     total energy              =    -224.09902864 Ry
     Harris-Foulkes estimate   =    -224.09902863 Ry
     estimated scf accuracy    <       0.00000115 Ry

     iteration #  8     ecut=    25.00 Ry     beta= 0.50
     Davidson diagonalization with overlap
     ethr =  3.60E-09,  avg # of iterations =  2.6

     total cpu time spent up to now is       50.2 secs

     End of self-consistent calculation

          k = 0.0000 0.0000 0.0000 (  1419 PWs)   bands (ev):

   -51.5556 -50.8228 -23.5515 -23.3392 -23.2695 -22.7322 -22.6191 -22.5654
   -14.9228  -7.5061  -6.2754  -2.4134  -1.9247  -1.7135  -1.0948   0.6062

          k = 0.0000 0.0000 0.2000 (  1454 PWs)   bands (ev):

   -51.5622 -50.8294 -23.5713 -23.3591 -23.2977 -22.7491 -22.6412 -22.5886
   -14.9228  -7.4513  -6.2745  -2.6863  -1.8654  -1.7222  -1.1882   0.4873

          k = 0.0000 0.0000 0.4000 (  1458 PWs)   bands (ev):

   -51.5630 -50.8302 -23.5696 -23.3577 -23.3081 -22.7489 -22.6484 -22.5930
   -14.9172  -7.3506  -6.2608  -3.0874  -1.7361  -1.7128  -1.3533   0.3290

          k = 0.0000 0.2000 0.2000 (  1466 PWs)   bands (ev):

   -51.5642 -50.8314 -23.5772 -23.3654 -23.3011 -22.7676 -22.6517 -22.5937
   -14.8884  -7.4187  -6.2981  -2.7078  -2.0925  -1.6926  -1.1916   0.4096

          k = 0.0000 0.2000 0.4000 (  1481 PWs)   bands (ev):

   -51.5667 -50.8338 -23.5814 -23.3744 -23.3129 -22.7701 -22.6571 -22.6101
   -14.8846  -7.3074  -6.3037  -3.0949  -2.0812  -1.6705  -1.2657   0.3559

          k = 0.0000 0.4000 0.4000 (  1484 PWs)   bands (ev):

   -51.5670 -50.8341 -23.5862 -23.3750 -23.3080 -22.7840 -22.6629 -22.6098
   -14.8281  -7.2377  -6.3603  -3.0792  -2.4703  -1.6220  -1.3021   0.4542

          k = 0.2000 0.2000 0.2000 (  1478 PWs)   bands (ev):

   -51.5663 -50.8335 -23.5964 -23.3702 -23.3039 -22.7829 -22.6517 -22.5995
   -14.8402  -7.3780  -6.4065  -2.6967  -2.0404  -1.8429  -1.3278   0.4268

          k = 0.2000 0.2000 0.4000 (  1481 PWs)   bands (ev):

   -51.5668 -50.8340 -23.5926 -23.3721 -23.3126 -22.7768 -22.6569 -22.6057
   -14.8361  -7.2693  -6.3969  -3.0949  -2.0812  -1.8369  -1.3096   0.3989

          k = 0.2000 0.4000 0.4000 (  1472 PWs)   bands (ev):

   -51.5653 -50.8325 -23.5903 -23.3692 -23.3052 -22.7801 -22.6564 -22.5999
   -14.7798  -7.1936  -6.4469  -3.0512  -2.3957  -1.8206  -1.4250   0.4134

          k = 0.4000 0.4000 0.4000 (  1478 PWs)   bands (ev):

   -51.5663 -50.8336 -23.6099 -23.3755 -23.3075 -22.7763 -22.6569 -22.6057
   -14.7022  -7.1326  -6.6027  -2.8925  -2.2964  -2.1297  -1.6797   0.2811

          k = 0.2000 0.0000 0.0000 (  1454 PWs)   bands (ev):

   -51.5623 -50.8294 -23.5857 -23.3557 -23.2887 -22.7588 -22.6434 -22.5856
   -14.8756  -7.5126  -6.3233  -2.3855  -1.9974  -1.8263  -1.2040   0.5493

          k = 0.0000 0.2000 0.0000 (  1454 PWs)   bands (ev):

   -51.5622 -50.8295 -23.5694 -23.3657 -23.2876 -22.7626 -22.6424 -22.5903
   -14.8911  -7.4853  -6.2908  -2.3999  -2.0723  -1.7157  -1.2807   0.5246

          k = 0.4000 0.0000 0.0000 (  1458 PWs)   bands (ev):

   -51.5630 -50.8303 -23.6085 -23.3518 -23.2874 -22.7669 -22.6474 -22.5844
   -14.7952  -7.5407  -6.3633  -2.3845  -2.2525  -1.7497  -1.3918   0.4780

          k = 0.0000 0.4000 0.0000 (  1458 PWs)   bands (ev):

   -51.5630 -50.8303 -23.5668 -23.3782 -23.2853 -22.7768 -22.6456 -22.5934
   -14.8346  -7.4525  -6.2987  -2.4279  -2.2624  -1.7062  -1.5143   0.4217

          k = 0.0000-0.2000 0.2000 (  1466 PWs)   bands (ev):

   -51.5642 -50.8314 -23.5763 -23.3707 -23.2967 -22.7639 -22.6465 -22.6026
   -14.8899  -7.4249  -6.2898  -2.6433  -2.0352  -1.7182  -1.4031   0.5341

          k = 0.2000 0.0000-0.2000 (  1466 PWs)   bands (ev):

   -51.5641 -50.8314 -23.5851 -23.3632 -23.3024 -22.7605 -22.6536 -22.5923
   -14.8744  -7.4414  -6.3462  -2.6247  -1.9865  -1.8131  -1.2820   0.5260

          k =-0.2000 0.0000-0.2000 (  1466 PWs)   bands (ev):

   -51.5642 -50.8314 -23.5899 -23.3636 -23.2968 -22.7639 -22.6452 -22.5972
   -14.8740  -7.4466  -6.3317  -2.6576  -2.0277  -1.7655  -1.2066   0.4505

          k = 0.2000-0.2000 0.0000 (  1466 PWs)   bands (ev):

   -51.5641 -50.8313 -23.5871 -23.3677 -23.2958 -22.7607 -22.6546 -22.5973
   -14.8430  -7.5010  -6.3106  -2.3648  -2.1905  -1.9501  -1.2134   0.5202

          k =-0.2000-0.2000 0.0000 (  1466 PWs)   bands (ev):

   -51.5641 -50.8313 -23.5886 -23.3659 -23.2948 -22.7747 -22.6459 -22.5935
   -14.8431  -7.4379  -6.4124  -2.3753  -2.0213  -1.8507  -1.4157   0.4875

          k = 0.0000-0.2000 0.4000 (  1481 PWs)   bands (ev):

   -51.5667 -50.8338 -23.5815 -23.3736 -23.3136 -22.7710 -22.6581 -22.6082
   -14.8848  -7.3119  -6.2990  -3.0714  -2.0358  -1.6760  -1.3952   0.4270

          k = 0.2000 0.0000-0.4000 (  1481 PWs)   bands (ev):

   -51.5666 -50.8339 -23.5936 -23.3688 -23.3133 -22.7673 -22.6584 -22.6048
   -14.8706  -7.3156  -6.3783  -3.0127  -2.0271  -1.6933  -1.3503   0.4175

          k =-0.2000 0.0000-0.4000 (  1481 PWs)   bands (ev):

   -51.5666 -50.8339 -23.5930 -23.3686 -23.3140 -22.7665 -22.6603 -22.6040
   -14.8706  -7.3204  -6.3708  -3.0262  -2.0455  -1.6806  -1.3032   0.3749

          k = 0.4000-0.2000 0.0000 (  1481 PWs)   bands (ev):

   -51.5666 -50.8338 -23.6154 -23.3723 -23.3002 -22.7772 -22.6590 -22.6000
   -14.7630  -7.4889  -6.4122  -2.4492  -2.2821  -1.9785  -1.3284   0.4792

          k =-0.4000-0.2000 0.0000 (  1481 PWs)   bands (ev):

   -51.5666 -50.8338 -23.6140 -23.3727 -23.3006 -22.7775 -22.6593 -22.6002
   -14.7639  -7.4446  -6.4817  -2.4000  -2.2620  -1.9069  -1.4341   0.4613

          k = 0.0000 0.4000 0.2000 (  1481 PWs)   bands (ev):

   -51.5666 -50.8339 -23.5793 -23.3822 -23.3044 -22.7838 -22.6581 -22.6108
   -14.8333  -7.3771  -6.3225  -2.6791  -2.4057  -1.6561  -1.3809   0.4015

          k = 0.0000 0.4000-0.2000 (  1481 PWs)   bands (ev):

   -51.5666 -50.8339 -23.5795 -23.3813 -23.3051 -22.7846 -22.6590 -22.6092
   -14.8335  -7.3814  -6.3172  -2.6166  -2.4086  -1.6837  -1.4712   0.4646

          k = 0.2000 0.4000 0.0000 (  1481 PWs)   bands (ev):

   -51.5665 -50.8338 -23.5943 -23.3823 -23.2995 -22.7837 -22.6595 -22.6045
   -14.7880  -7.3775  -6.4597  -2.3627  -2.2522  -2.0297  -1.4321   0.4291

          k =-0.2000 0.4000 0.0000 (  1481 PWs)   bands (ev):

   -51.5665 -50.8338 -23.5956 -23.3819 -23.2992 -22.7833 -22.6593 -22.6043
   -14.7885  -7.4254  -6.3805  -2.4503  -2.2576  -2.0667  -1.3401   0.4448

          k = 0.4000 0.0000 0.2000 (  1481 PWs)   bands (ev):

   -51.5667 -50.8339 -23.6118 -23.3652 -23.3069 -22.7742 -22.6602 -22.6012
   -14.7937  -7.4547  -6.4119  -2.5692  -2.3668  -1.6999  -1.3513   0.4529

          k = 0.4000 0.0000-0.2000 (  1481 PWs)   bands (ev):

   -51.5667 -50.8339 -23.6131 -23.3653 -23.3059 -22.7749 -22.6588 -22.6019
   -14.7930  -7.4510  -6.4190  -2.5401  -2.3672  -1.7192  -1.3856   0.4942

          k = 0.0000-0.4000 0.4000 (  1484 PWs)   bands (ev):

   -51.5670 -50.8341 -23.5860 -23.3760 -23.3072 -22.7833 -22.6619 -22.6117
   -14.8289  -7.2414  -6.3563  -3.0616  -2.4630  -1.6308  -1.3542   0.4930

          k = 0.4000 0.0000-0.4000 (  1484 PWs)   bands (ev):

   -51.5669 -50.8343 -23.6058 -23.3730 -23.3093 -22.7740 -22.6604 -22.6050
   -14.7909  -7.2676  -6.5342  -2.8938  -2.4248  -1.6511  -1.3452   0.5007

          k =-0.4000 0.0000-0.4000 (  1484 PWs)   bands (ev):

   -51.5669 -50.8342 -23.6062 -23.3731 -23.3082 -22.7744 -22.6591 -22.6059
   -14.7907  -7.2711  -6.5258  -2.9035  -2.4270  -1.6413  -1.3255   0.4756

          k = 0.4000-0.4000 0.0000 (  1484 PWs)   bands (ev):

   -51.5668 -50.8341 -23.6122 -23.3768 -23.3080 -22.7763 -22.6611 -22.6080
   -14.7094  -7.3341  -6.5714  -2.5831  -2.2917  -2.1585  -1.3358   0.4697

          k =-0.4000-0.4000 0.0000 (  1484 PWs)   bands (ev):

   -51.5668 -50.8341 -23.6125 -23.3763 -23.3077 -22.7796 -22.6592 -22.6070
   -14.7096  -7.2888  -6.6321  -2.5389  -2.2448  -2.1875  -1.3762   0.4599

          k =-0.2000-0.2000 0.2000 (  1478 PWs)   bands (ev):

   -51.5663 -50.8335 -23.5917 -23.3745 -23.3049 -22.7771 -22.6542 -22.6030
   -14.8426  -7.3765  -6.4136  -2.6272  -2.0626  -1.8491  -1.4244   0.4833

          k =-0.2000 0.2000-0.2000 (  1478 PWs)   bands (ev):

   -51.5663 -50.8335 -23.5947 -23.3763 -23.3010 -22.7657 -22.6553 -22.6119
   -14.8416  -7.4288  -6.3374  -2.5823  -2.1371  -1.9700  -1.2835   0.4787

          k = 0.2000-0.2000-0.2000 (  1478 PWs)   bands (ev):

   -51.5663 -50.8335 -23.5912 -23.3716 -23.3097 -22.7659 -22.6670 -22.5997
   -14.8410  -7.4235  -6.3467  -2.6143  -2.1501  -1.9452  -1.2455   0.4550

          k =-0.2000-0.2000 0.4000 (  1481 PWs)   bands (ev):

   -51.5667 -50.8340 -23.5927 -23.3720 -23.3128 -22.7768 -22.6567 -22.6059
   -14.8363  -7.2679  -6.4010  -3.0685  -2.0874  -1.8423  -1.3496   0.4263

          k =-0.2000 0.2000-0.4000 (  1481 PWs)   bands (ev):

   -51.5668 -50.8340 -23.5934 -23.3727 -23.3130 -22.7658 -22.6619 -22.6099
   -14.8364  -7.2832  -6.4036  -2.9458  -2.1067  -1.8738  -1.3902   0.3980

          k = 0.2000-0.2000-0.4000 (  1481 PWs)   bands (ev):

   -51.5667 -50.8340 -23.5933 -23.3728 -23.3129 -22.7659 -22.6617 -22.6099
   -14.8362  -7.2783  -6.4077  -2.9570  -2.1178  -1.8647  -1.3674   0.3859

          k = 0.4000-0.2000 0.2000 (  1481 PWs)   bands (ev):

   -51.5668 -50.8340 -23.6132 -23.3719 -23.3039 -22.7753 -22.6587 -22.6055
   -14.7614  -7.4016  -6.4541  -2.5299  -2.4375  -1.9278  -1.3156   0.3990

          k =-0.4000-0.2000-0.2000 (  1481 PWs)   bands (ev):

   -51.5668 -50.8340 -23.6132 -23.3694 -23.3058 -22.7782 -22.6615 -22.6004
   -14.7596  -7.3719  -6.4969  -2.5867  -2.2937  -1.9078  -1.4818   0.4764

          k = 0.4000 0.2000-0.2000 (  1481 PWs)   bands (ev):

   -51.5668 -50.8340 -23.6131 -23.3718 -23.3040 -22.7765 -22.6580 -22.6054
   -14.7612  -7.3624  -6.5097  -2.5480  -2.4082  -1.8748  -1.3707   0.4009

          k =-0.4000 0.2000 0.2000 (  1481 PWs)   bands (ev):

   -51.5668 -50.8340 -23.6140 -23.3695 -23.3061 -22.7768 -22.6617 -22.6007
   -14.7600  -7.4044  -6.4498  -2.5234  -2.3392  -2.0180  -1.4183   0.4880

          k =-0.2000 0.4000 0.2000 (  1481 PWs)   bands (ev):

   -51.5668 -50.8340 -23.5923 -23.3809 -23.3052 -22.7815 -22.6616 -22.6068
   -14.7855  -7.3503  -6.3977  -2.6397  -2.3891  -1.9581  -1.3362   0.3783

          k =-0.2000-0.4000-0.2000 (  1481 PWs)   bands (ev):

   -51.5667 -50.8340 -23.5939 -23.3810 -23.3027 -22.7838 -22.6574 -22.6090
   -14.7858  -7.3102  -6.4541  -2.6360  -2.3415  -1.9251  -1.4262   0.4392

          k = 0.2000 0.4000-0.2000 (  1481 PWs)   bands (ev):

   -51.5668 -50.8340 -23.5918 -23.3808 -23.3052 -22.7828 -22.6615 -22.6064
   -14.7855  -7.3146  -6.4514  -2.6111  -2.3639  -1.9542  -1.3884   0.3911

          k = 0.2000-0.4000 0.2000 (  1481 PWs)   bands (ev):

   -51.5667 -50.8340 -23.5943 -23.3811 -23.3028 -22.7829 -22.6580 -22.6090
   -14.7854  -7.3498  -6.3991  -2.5686  -2.3559  -2.0553  -1.3830   0.4610

          k =-0.2000-0.4000 0.4000 (  1472 PWs)   bands (ev):

   -51.5654 -50.8325 -23.5892 -23.3743 -23.3014 -22.7759 -22.6524 -22.6083
   -14.7805  -7.1968  -6.4437  -3.0436  -2.4048  -1.8486  -1.3901   0.3860

          k =-0.2000 0.4000-0.4000 (  1472 PWs)   bands (ev):

   -51.5653 -50.8325 -23.5905 -23.3746 -23.3007 -22.7715 -22.6538 -22.6102
   -14.7803  -7.2047  -6.4476  -2.9543  -2.4000  -1.8781  -1.4587   0.4161

          k = 0.2000-0.4000-0.4000 (  1472 PWs)   bands (ev):

   -51.5654 -50.8325 -23.5911 -23.3692 -23.3056 -22.7746 -22.6603 -22.6005
   -14.7796  -7.2050  -6.4457  -2.9757  -2.4258  -1.8304  -1.4305   0.3608

          k = 0.4000 0.2000-0.4000 (  1472 PWs)   bands (ev):

   -51.5653 -50.8326 -23.6014 -23.3680 -23.3064 -22.7705 -22.6575 -22.5987
   -14.7558  -7.2113  -6.5606  -2.9267  -2.3950  -1.8449  -1.3896   0.3857

          k =-0.4000-0.2000-0.4000 (  1472 PWs)   bands (ev):

   -51.5653 -50.8326 -23.6057 -23.3677 -23.3017 -22.7744 -22.6499 -22.6023
   -14.7558  -7.2194  -6.5475  -2.9405  -2.3380  -1.8548  -1.4677   0.4315

          k = 0.4000-0.2000 0.4000 (  1472 PWs)   bands (ev):

   -51.5653 -50.8326 -23.6066 -23.3686 -23.3010 -22.7689 -22.6516 -22.6050
   -14.7562  -7.2247  -6.5545  -2.8453  -2.4112  -1.8530  -1.4279   0.3681

          k =-0.4000 0.2000 0.4000 (  1472 PWs)   bands (ev):

   -51.5653 -50.8326 -23.6024 -23.3675 -23.3070 -22.7659 -22.6609 -22.5988
   -14.7559  -7.2275  -6.5499  -2.8479  -2.3450  -1.9056  -1.4956   0.4247

          k = 0.4000-0.4000 0.2000 (  1472 PWs)   bands (ev):

   -51.5653 -50.8325 -23.6068 -23.3730 -23.3018 -22.7664 -22.6581 -22.6045
   -14.7056  -7.2623  -6.5826  -2.5109  -2.4497  -2.2261  -1.4028   0.3818

          k =-0.4000-0.4000-0.2000 (  1472 PWs)   bands (ev):

   -51.5653 -50.8325 -23.6087 -23.3707 -23.3014 -22.7800 -22.6504 -22.5993
   -14.7059  -7.2329  -6.6141  -2.5413  -2.3575  -2.2245  -1.5069   0.4280

          k = 0.4000 0.4000-0.2000 (  1472 PWs)   bands (ev):

   -51.5653 -50.8325 -23.6085 -23.3712 -23.3013 -22.7789 -22.6509 -22.6000
   -14.7059  -7.2289  -6.6200  -2.5668  -2.4091  -2.1907  -1.3973   0.3367

          k =-0.4000 0.4000 0.2000 (  1472 PWs)   bands (ev):

   -51.5653 -50.8325 -23.6065 -23.3725 -23.3028 -22.7662 -22.6604 -22.6025
   -14.7053  -7.2690  -6.5707  -2.5189  -2.4430  -2.2125  -1.4478   0.3903

          k =-0.4000-0.4000 0.4000 (  1478 PWs)   bands (ev):

   -51.5663 -50.8336 -23.6107 -23.3752 -23.3075 -22.7769 -22.6566 -22.6054
   -14.7024  -7.1293  -6.6067  -2.8913  -2.3488  -2.1391  -1.5754   0.2218

          k =-0.4000 0.4000-0.4000 (  1478 PWs)   bands (ev):

   -51.5663 -50.8335 -23.6116 -23.3749 -23.3074 -22.7725 -22.6595 -22.6059
   -14.7028  -7.1371  -6.6033  -2.8262  -2.3407  -2.1620  -1.6309   0.2410

          k = 0.4000-0.4000-0.4000 (  1478 PWs)   bands (ev):

   -51.5663 -50.8335 -23.6122 -23.3753 -23.3067 -22.7724 -22.6583 -22.6071
   -14.7014  -7.1426  -6.5986  -2.8340  -2.3264  -2.1472  -1.6706   0.2473

     highest occupied level (ev):     0.6062

!    total energy              =    -224.09902885 Ry
     Harris-Foulkes estimate   =    -224.09902887 Ry
     estimated scf accuracy    <       0.00000007 Ry

     The total energy is the sum of the following terms:

     one-electron contribution =    -196.15664654 Ry
     hartree contribution      =     104.12778542 Ry
     xc contribution           =     -41.72928541 Ry
     ewald contribution        =     -90.34088232 Ry

     convergence has been achieved in   8 iterations

     Forces acting on atoms (cartesian axes, Ry/au):

     atom    1 type  4   force =     0.01870973    0.07988835    0.02068723
     atom    2 type  4   force =     0.12910426   -0.01279717    0.04034617
     atom    3 type  3   force =    -0.04697970   -0.08791167    0.07807056
     atom    4 type  2   force =    -0.06946557    0.01568260   -0.07925139
     atom    5 type  2   force =    -0.03273567    0.00832707   -0.06787392
     atom    6 type  1   force =     0.00677632   -0.00333175   -0.02774543
     atom    7 type  2   force =     0.05087088   -0.00014170   -0.00989432
     atom    8 type  2   force =    -0.02793382    0.04535693   -0.01305293
     atom    9 type  2   force =    -0.02850867   -0.04477975   -0.01363044
     atom   10 type  2   force =     0.00016224   -0.00029290    0.07234446

     Total force =     0.271124     Total SCF correction =     0.000362


     Computing stress (Cartesian axis) and pressure

          total   stress  (Ry/bohr**3)                   (kbar)     P= -128.26
  -0.00045554   0.00013869   0.00008613        -67.01     20.40     12.67
   0.00013869  -0.00075717  -0.00000143         20.40   -111.38     -0.21
   0.00008613  -0.00000143  -0.00140287         12.67     -0.21   -206.37


     init_run     :      3.49s CPU      3.54s WALL (       1 calls)
     electrons    :     46.15s CPU     46.30s WALL (       1 calls)
     forces       :      0.77s CPU      0.77s WALL (       1 calls)
     stress       :      1.64s CPU      1.64s WALL (       1 calls)

     Called by init_run:
     wfcinit      :      2.89s CPU      2.92s WALL (       1 calls)
     potinit      :      0.03s CPU      0.03s WALL (       1 calls)
     hinit0       :      0.54s CPU      0.55s WALL (       1 calls)

     Called by electrons:
     c_bands      :     39.21s CPU     39.32s WALL (       8 calls)
     sum_band     :      6.56s CPU      6.59s WALL (       8 calls)
     v_of_rho     :      0.17s CPU      0.17s WALL (       9 calls)
     newd         :      0.23s CPU      0.25s WALL (       9 calls)
     mix_rho      :      0.02s CPU      0.02s WALL (       8 calls)

     Called by c_bands:
     init_us_2    :      0.97s CPU      0.98s WALL (    1197 calls)
     cegterg      :     37.57s CPU     37.67s WALL (     504 calls)

     Called by sum_band:
     sum_band:bec :      0.01s CPU      0.01s WALL (     504 calls)
     addusdens    :      0.21s CPU      0.22s WALL (       8 calls)

     Called by *egterg:
     h_psi        :     30.85s CPU     30.95s WALL (    1715 calls)
     s_psi        :      2.89s CPU      2.89s WALL (    1715 calls)
     g_psi        :      0.13s CPU      0.13s WALL (    1148 calls)
     cdiaghg      :      0.83s CPU      0.84s WALL (    1652 calls)

     Called by h_psi:
     h_psi:pot    :     30.76s CPU     30.86s WALL (    1715 calls)
     h_psi:calbec :      3.21s CPU      3.22s WALL (    1715 calls)
     vloc_psi     :     24.64s CPU     24.73s WALL (    1715 calls)
     add_vuspsi   :      2.90s CPU      2.90s WALL (    1715 calls)

     General routines
     calbec       :      5.08s CPU      5.10s WALL (    2534 calls)
     fft          :      0.15s CPU      0.16s WALL (     124 calls)
     ffts         :      0.01s CPU      0.01s WALL (       8 calls)
     fftw         :     26.92s CPU     27.02s WALL (   50856 calls)

     Parallel routines

     PWSCF        :     52.41s CPU     52.62s WALL


   This run was terminated on:   2:51:12  14Dec2020            

=------------------------------------------------------------------------------=
   JOB DONE.
=------------------------------------------------------------------------------=
