LAMMPS (3 Mar 2020)
Reading data file ...
  orthogonal box = (0 0 0) to (12.27 12.27 12.27)
  1 by 1 by 1 MPI processor grid
  reading atoms ...
  108 atoms
  read_data CPU = 0.000853957 secs
Reading potential file /usr/share/lammps-stable/potentials/Ag_u3.eam with DATE: 2007-06-11
Neighbor list info ...
  update every 1 steps, delay 10 steps, check yes
  max neighbors/atom: 2000, page size: 100000
  master list distance cutoff = 7.55
  ghost atom cutoff = 7.55
  binsize = 3.775, bins = 4 4 4
  2 neighbor lists, perpetual/occasional/extra = 1 1 0
  (1) pair eam, perpetual
      attributes: half, newton on
      pair build: half/bin/atomonly/newton
      stencil: half/bin/3d/newton
      bin: standard
  (2) compute rdf, occasional, copy from (1)
      attributes: half, newton on
      pair build: copy
      stencil: none
      bin: none
Setting up Verlet run ...
  Unit style    : metal
  Current step  : 0
  Time step     : 0.005
Per MPI rank memory allocation (min/avg/max) = 3.723 | 3.723 | 3.723 Mbytes
Step PotEng KinEng TotEng Temp Press Density c_msdall[4] 
       0       -307.8    38.726339   -269.07366         2800    22391.889    10.472245            0 
     100   -283.04188    28.307754   -254.73413    2046.7133    101126.95    10.472245   0.14367343 
     200   -272.86901    40.215451   -232.65356    2907.6661     137334.2    10.472245   0.20744722 
     300   -261.82886    42.303474   -219.52538    3058.6348    172481.91    10.472245   0.32353757 
     400   -269.25529    38.901096   -230.35419    2812.6353    147050.87    10.472245   0.27867944 
     500   -269.34881    35.550306   -233.79851    2570.3658     147147.6    10.472245   0.25072415 
     600   -266.74553    41.777588   -224.96794     3020.612    158669.77    10.472245   0.38498362 
     700    -263.1028     42.72975   -220.37305    3089.4554    168788.22    10.472245    0.3868912 
     800   -265.62911    33.629287   -231.99982    2431.4718    156423.76    10.472245   0.34996663 
     900   -265.15365    40.600911   -224.55274    2935.5357    160264.93    10.472245   0.30082474 
    1000   -269.55196    38.981314   -230.57065    2818.4352    146081.82    10.472245    0.2467654 
    1100   -270.89981    37.948137   -232.95168    2743.7342    145175.35    10.472245   0.26930554 
    1200   -260.87731    37.750971   -223.12634    2729.4787    175394.49    10.472245   0.40058956 
    1300   -259.50296    40.128986   -219.37398    2901.4144    180431.92    10.472245    0.5823769 
    1400   -256.67154    32.278545   -224.39299    2333.8102    182704.54    10.472245   0.92328692 
    1500   -251.65208     36.57215   -215.07993    2644.2474    199936.51    10.472245    2.1257377 
    1600   -253.37788    40.586458   -212.79142    2934.4907    200986.29    10.472245    3.5541505 
    1700    -248.2907    42.477132   -205.81357    3071.1906    213839.81    10.472245    4.9640406 
    1800   -253.80721    35.360074   -218.44714    2556.6116    192184.02    10.472245    6.8576677 
    1900   -254.30109    36.410551   -217.89054    2632.5634    188286.26    10.472245    8.2618637 
    2000   -247.57562    37.939844   -209.63577    2743.1346    212970.81    10.472245    9.9305745 
    2100   -254.22924    34.539877   -219.68936    2497.3095    190216.04    10.472245    11.415613 
    2200   -254.68357    41.697484   -212.98608    3014.8203     192522.6    10.472245    12.900381 
    2300   -257.77419    37.762575   -220.01162    2730.3177    183624.68    10.472245    14.763475 
    2400   -260.61028     38.18986   -222.42042    2761.2114    174858.34    10.472245     15.20411 
    2500   -253.16792    43.930054   -209.23786      3176.24    203244.59    10.472245     17.40407 
    2600   -256.57079    36.597617   -219.97318    2646.0887     185966.8    10.472245    18.481153 
    2700    -260.0101    37.551122   -222.45898    2715.0291    175423.38    10.472245    19.954031 
    2800   -252.77684    39.396781   -213.38006    2848.4744    197472.91    10.472245    21.875468 
    2900   -254.28273     37.88894   -216.39379    2739.4541    193700.73    10.472245    23.508245 
    3000   -254.66543    41.617885   -213.04754    3009.0652    191819.26    10.472245    25.141303 
    3100   -253.12154    44.492056   -208.62948     3216.874    199874.05    10.472245    28.680905 
    3200   -256.91985    38.721819   -218.19803    2799.6731    183026.63    10.472245    31.922974 
    3300   -253.40568    35.983766   -217.42191    2601.7058    194763.09    10.472245    33.442515 
    3400   -246.91058    38.366357   -208.54423    2773.9725    217761.62    10.472245    35.044189 
    3500   -254.31924    35.178039    -219.1412      2543.45    189346.86    10.472245    37.173332 
    3600    -255.3031    39.095061   -216.20804    2826.6594    196598.81    10.472245    39.541328 
    3700   -252.43147     43.68171   -208.74976    3158.2842    201028.21    10.472245    40.419659 
    3800   -255.07356    35.106348   -219.96721    2538.2666     186590.2    10.472245    43.249925 
    3900   -257.78609    43.360785   -214.42531    3135.0807    189582.98    10.472245    44.390679 
    4000    -254.5107    36.678513   -217.83219    2651.9376    189389.38    10.472245    45.763947 
    4100   -262.39535    39.310601   -223.08475    2842.2434    168009.46    10.472245    45.409051 
    4200   -259.98975     44.37168   -215.61807    3208.1706    180941.29    10.472245     45.47481 
    4300   -258.61435    38.324844   -220.28951     2770.971    180769.04    10.472245    47.195597 
    4400   -253.64594    42.286186   -211.35975    3057.3848    193709.58    10.472245    46.114072 
    4500   -250.35438    38.051296   -212.30308    2751.1928    197387.31    10.472245    47.420663 
    4600   -256.23115    32.953455   -223.27769    2382.6077    186216.85    10.472245    47.531298 
    4700   -251.04833    35.919776   -215.12855    2597.0792    200552.95    10.472245    47.560444 
    4800   -258.81393    42.680295   -216.13364    3085.8798    182862.62    10.472245    48.225427 
    4900   -261.22597    34.350484   -226.87549    2483.6159    173639.85    10.472245    50.848228 
    5000   -259.25287    37.612719   -221.64015    2719.4828    176160.88    10.472245    52.141983 
    5100   -252.11789    36.957404   -215.16049    2672.1021    196337.41    10.472245    52.479935 
    5200   -256.53793    42.622659   -213.91527    3081.7125    186141.19    10.472245    55.935485 
    5300    -257.3733    34.738703   -222.63459     2511.685    179933.48    10.472245    58.142977 
    5400   -255.50137    40.892781   -214.60858    2956.6385    190950.94    10.472245    58.863946 
    5500   -256.34347    40.854117   -215.48935     2953.843    190758.16    10.472245    59.381703 
    5600   -257.70083    34.150523    -223.5503    2469.1584    179647.21    10.472245    60.089371 
    5700   -250.43324    38.399684   -212.03356    2776.3821    207334.95    10.472245    64.932728 
    5800   -251.59624    35.817997   -215.77824    2589.7204    197472.92    10.472245    65.690756 
    5900   -254.86251    36.298862   -218.56364     2624.488    191806.16    10.472245    66.126752 
    6000    -250.9502    40.425443   -210.52476     2922.849    205173.37    10.472245    67.934018 
    6100   -246.03129    37.067929   -208.96336    2680.0933    213245.86    10.472245    69.553382 
    6200   -255.40178     38.70432   -216.69746    2798.4079    192339.34    10.472245    70.254277 
    6300   -256.73283    32.601172   -224.13166    2357.1369    188069.68    10.472245    71.485885 
    6400   -256.48928    31.890031   -224.59925    2305.7198    180698.88    10.472245    72.043234 
    6500   -255.52088    41.327039   -214.19384    2988.0363    190577.59    10.472245    71.039398 
    6600   -251.71099    34.050884   -217.66011    2461.9542    194188.82    10.472245    72.525326 
    6700   -260.05215    37.654712   -222.39744     2722.519    176695.82    10.472245    72.051091 
    6800   -255.20001    37.904501   -217.29551    2740.5793    191961.77    10.472245    74.853826 
    6900   -256.26473     42.21169   -214.05304    3051.9985    187981.65    10.472245    77.214686 
    7000    -257.6896    33.644389   -224.04521    2432.5638    179591.81    10.472245    79.565611 
    7100   -255.55701    38.022154   -217.53485    2749.0858    189385.42    10.472245    80.380135 
    7200   -255.17145    38.473267   -216.69818    2781.7023    193400.33    10.472245    80.777751 
    7300   -257.51537     43.88997    -213.6254    3173.3419    190721.41    10.472245    83.051214 
    7400   -259.19185    35.433608   -223.75824    2561.9282     177225.4    10.472245    84.742458 
    7500   -255.24527    39.009802   -216.23546     2820.495    192029.58    10.472245    86.339863 
    7600    -256.3848    39.252888   -217.13191    2838.0706    187317.01    10.472245    88.123412 
    7700   -260.02926    38.190596   -221.83867    2761.2645    180945.86    10.472245    88.460369 
    7800   -250.91219    39.184945   -211.72724    2833.1582     202705.7    10.472245    88.407125 
    7900   -257.28099    39.371639   -217.90935    2846.6566    185374.45    10.472245    88.765861 
    8000   -252.73011    33.446805   -219.28331     2418.278    195426.28    10.472245    89.688175 
    8100   -261.02786    45.560338   -215.46752    3294.1132    177893.76    10.472245    90.918081 
    8200   -261.39633    39.105039   -222.29129    2827.3808    173212.99    10.472245     92.03071 
    8300    -259.7115    35.395431   -224.31607    2559.1679    179253.07    10.472245    92.405752 
    8400   -255.40451     41.62327   -213.78124    3009.4545    191520.25    10.472245    93.718813 
    8500   -258.36629    36.084374   -222.28192      2608.98    176154.03    10.472245    95.955772 
    8600   -253.90185    34.866496   -219.03536    2520.9248    193227.24    10.472245    97.607772 
    8700   -250.26707    37.209783   -213.05728    2690.3496    205216.33    10.472245    99.423277 
    8800   -254.36167    32.887452   -221.47422    2377.8355       190115    10.472245    101.62817 
    8900    -255.2949    41.565335   -213.72956    3005.2657    192201.21    10.472245    102.03088 
    9000   -256.43914    41.761052   -214.67809    3019.4164    186924.15    10.472245    103.57873 
    9100   -259.18212    39.276018    -219.9061     2839.743    179965.08    10.472245    101.98035 
    9200   -251.85575    42.049483   -209.80627    3040.2707    201471.04    10.472245    104.18906 
    9300   -253.79616    40.043743   -213.75242    2895.2512    195321.77    10.472245     106.4745 
    9400   -261.56408    39.374293   -222.18979    2846.8485    173329.24    10.472245    108.37062 
    9500   -257.40359    37.547992    -219.8556    2714.8029    183163.84    10.472245    109.40782 
    9600   -256.00907    42.165656   -213.84342    3048.6702    185438.63    10.472245    110.77479 
    9700   -252.47229    42.809057   -209.66324    3095.1895    204145.06    10.472245     112.1858 
    9800   -256.60087    37.847141   -218.75373     2736.432    186086.17    10.472245    111.53978 
    9900   -251.99155    40.375058   -211.61649     2919.206    200987.58    10.472245    112.56673 
   10000    -260.4041    37.635752   -222.76835    2721.1481       176004    10.472245    113.02392 
   10100   -253.57812    37.983258   -215.59486    2746.2735    197734.12    10.472245    112.20267 
   10200   -256.03112    42.255695   -213.77542    3055.1802     193203.6    10.472245     113.7225 
   10300   -254.87815    33.356999   -221.52115    2411.7848    188430.24    10.472245    115.21929 
   10400   -254.77604    38.568151   -216.20789    2788.5626    191098.83    10.472245    116.15937 
   10500   -254.81972    39.504677   -215.31505    2856.2755    194260.54    10.472245    118.14232 
   10600   -259.26789    37.927363   -221.34053    2742.2322    179365.44    10.472245    120.08848 
   10700   -254.23046    41.306507   -212.92395    2986.5518    194692.29    10.472245    124.09409 
   10800   -255.07174    41.371907   -213.69983    2991.2804    192573.84    10.472245    119.93484 
   10900   -255.13943    39.382664   -215.75677    2847.4537    192594.47    10.472245    123.08618 
   11000   -254.77735    35.463868   -219.31348    2564.1161    190366.17    10.472245    126.35076 
   11100   -252.88284    37.525022   -215.35782    2713.1421    197422.95    10.472245     128.1693 
   11200   -251.46326    41.406685   -210.05657    2993.7949    205060.99    10.472245    132.38462 
   11300   -257.38889    38.188272   -219.20062    2761.0965    178369.21    10.472245    135.05398 
   11400   -256.17066    39.850873   -216.31979    2881.3063    185138.26    10.472245    137.32321 
   11500    -253.9995    51.809096    -202.1904    3745.9122    200980.21    10.472245    140.93058 
   11600   -253.26854     40.28928   -212.97926     2913.004    199802.86    10.472245    141.06727 
   11700   -253.28299     35.83442   -217.44857    2590.9079    194844.99    10.472245    143.20862 
   11800   -253.41068     41.12029   -212.29039    2973.0879    194862.14    10.472245    142.24257 
   11900   -255.12676    36.106942   -219.01982    2610.6118    187765.23    10.472245    143.72223 
   12000   -255.26221     40.75875   -214.50346    2946.9478    191183.73    10.472245    143.84459 
   12100   -249.87884    38.223887   -211.65495    2763.6716    207694.25    10.472245    145.22243 
   12200   -254.21499    36.087701   -218.12729    2609.2206    194160.75    10.472245    149.81236 
   12300   -250.01726    41.465754   -208.55151    2998.0657    211643.34    10.472245    152.74799 
   12400   -252.05792    40.378333   -211.67959    2919.4428    200357.25    10.472245    154.17366 
   12500   -257.61708    40.605325   -217.01176    2935.8548    186508.85    10.472245    153.99836 
   12600   -258.74984    42.900081   -215.84976    3101.7708    183705.21    10.472245    154.08397 
   12700   -257.23924    41.995152   -215.24409    3036.3424    190657.36    10.472245    155.22882 
   12800   -258.61866    39.463157   -219.15551    2853.2735    178840.87    10.472245    155.40683 
   12900   -258.35751    42.087607    -216.2699    3043.0271    182664.69    10.472245    158.07364 
   13000   -254.89348    45.700499   -209.19298    3304.2471    194059.58    10.472245    158.48629 
   13100   -256.90733    37.155881   -219.75145    2686.4524    189804.84    10.472245    162.27284 
   13200   -258.08336     44.03792   -214.04544     3184.039    183963.56    10.472245     163.5841 
   13300   -253.02153    46.005887   -207.01565    3326.3274    200729.85    10.472245    164.74129 
   13400   -252.95794    35.502839    -217.4551    2566.9338    194935.75    10.472245    165.09784 
   13500     -257.886    39.957776   -217.92822    2889.0356    186406.69    10.472245    167.14558 
   13600    -252.9987    43.688853   -209.30984    3158.8007    197500.95    10.472245    166.77844 
   13700   -257.82726    37.404648   -220.42262    2704.4388    183874.75    10.472245     169.9278 
   13800    -260.3986    44.067966   -216.33063    3186.2114    178221.63    10.472245    171.72715 
   13900    -254.7876    39.954006    -214.8336     2888.763    195494.55    10.472245    174.42919 
   14000   -258.05588    35.379207   -222.67667    2557.9949    179629.26    10.472245    174.17647 
   14100   -253.94621    40.460201   -213.48601    2925.3621    196772.25    10.472245    173.80591 
   14200   -253.03915    36.325329   -216.71382    2626.4017    202255.72    10.472245    174.15608 
   14300   -259.21116    33.144128   -226.06703    2396.3937    178936.01    10.472245     174.0557 
   14400   -255.04355    39.392444   -215.65111    2848.1608    191552.64    10.472245    175.52468 
   14500   -256.46619    36.667033   -219.79916    2651.1076    186580.34    10.472245    178.53485 
   14600   -252.94488    40.800925   -212.14395    2949.9971    200373.49    10.472245    179.49361 
   14700   -255.21496    40.068208   -215.14675      2897.02    191663.82    10.472245    180.10206 
   14800   -256.48527    37.925655   -218.55962    2742.1087     186292.7    10.472245    182.01697 
   14900    -250.8492    42.424856   -208.42434     3067.411    206637.05    10.472245    180.84044 
   15000   -258.11332    40.951067   -217.16225    2960.8527     182929.4    10.472245    187.90182 
   15100   -252.27465    33.656564   -218.61808     2433.444    198835.33    10.472245    188.95648 
   15200    -253.6759    43.247433   -210.42847    3126.8851    201906.71    10.472245    187.27893 
   15300   -253.56993    37.328811   -216.24112    2698.9556    201384.55    10.472245    187.55804 
   15400   -257.89277    43.450763   -214.44201    3141.5863    184555.82    10.472245     189.5918 
   15500   -256.09406    33.108133   -222.98593    2393.7913    185598.46    10.472245    191.72784 
   15600   -253.59617    37.301821   -216.29434    2697.0042    195647.67    10.472245    195.06727 
   15700   -255.43872    43.540505   -211.89822    3148.0748    194123.98    10.472245    197.18918 
   15800   -259.70151    38.834154   -220.86735    2807.7952    176125.65    10.472245    194.86138 
   15900   -256.71026    39.057683   -217.65258    2823.9569    186297.84    10.472245    198.68093 
   16000   -251.11713    43.795349   -207.32178    3166.5006    206455.94    10.472245    202.68204 
   16100   -252.55119    35.442619   -217.10857    2562.5797    200940.26    10.472245    203.34281 
   16200   -254.80272     37.57713   -217.22559    2716.9096    190658.23    10.472245    208.11231 
   16300   -252.64751    40.928039   -211.71947    2959.1878    198505.19    10.472245    210.09435 
   16400   -255.54955    38.693248    -216.8563    2797.6074    193937.28    10.472245    212.74934 
   16500    -256.5214    38.448125   -218.07328    2779.8845    189797.84    10.472245     215.7469 
   16600   -254.38831    42.867949   -211.52036    3099.4475    199212.04    10.472245    216.03513 
   16700   -257.47382    41.642883   -215.83093    3010.8725    188108.46    10.472245    218.42233 
   16800   -248.51524    39.784035   -208.73121    2876.4737    209435.72    10.472245    217.10379 
   16900   -255.99344    42.344212   -213.64923    3061.5802    194849.65    10.472245     216.4357 
   17000   -256.55741    37.714049   -218.84336    2726.8092     188131.4    10.472245    216.18819 
   17100    -256.3697    36.481011   -219.88868    2637.6578     184048.2    10.472245    215.46214 
   17200   -252.49419    42.380694   -210.11349    3064.2179    200561.94    10.472245    216.22665 
   17300    -253.3019    35.782392   -217.51951    2587.1461    194888.97    10.472245    217.16078 
   17400   -255.27326     33.90088   -221.37238    2451.1086    187060.18    10.472245    215.84019 
   17500   -250.46234    39.963546   -210.49879    2889.4528    204800.67    10.472245     219.6692 
   17600   -255.69454     39.04862   -216.64592    2823.3016    189933.53    10.472245    222.17027 
   17700   -253.75626    33.789672   -219.96659     2443.068    192826.21    10.472245     224.2968 
   17800   -253.12439    39.474815   -213.64958    2854.1164    198711.45    10.472245    225.24666 
   17900   -257.98535    37.673967   -220.31139    2723.9111     182267.3    10.472245    228.05023 
   18000   -256.56395    33.761015   -222.80294    2440.9961    185786.74    10.472245    229.76011 
   18100   -259.36614    44.147275   -215.21886    3191.9456     185515.9    10.472245    229.17888 
   18200   -250.78001     35.69321    -215.0868     2580.698    201525.96    10.472245    229.26537 
   18300   -258.10325    36.888734   -221.21452    2667.1371    176869.46    10.472245    235.83237 
   18400   -251.68316    39.981921   -211.70124    2890.7813    199101.55    10.472245     234.2804 
   18500   -253.10717    35.546384   -217.56079    2570.0822    192523.61    10.472245    231.14747 
   18600   -258.58359    38.070441   -220.51314    2752.5771     178283.8    10.472245    227.69462 
   18700   -252.14458    38.365144   -213.77944    2773.8848    197493.94    10.472245    228.82816 
   18800   -253.88836     40.11978   -213.76858    2900.7488    193524.96    10.472245    237.44439 
   18900   -251.86727    34.988877   -216.87839    2529.7732    197949.75    10.472245    239.17449 
   19000   -245.94331    42.802243   -203.14107    3094.6968    225023.59    10.472245    244.39592 
   19100   -251.89896    39.281954   -212.61701    2840.1722    198982.63    10.472245    243.76675 
   19200   -259.03339    40.718093    -218.3153    2944.0082    181483.37    10.472245    240.41722 
   19300   -255.50716    36.230468   -219.27669     2619.543    190327.45    10.472245    239.63957 
   19400    -247.6378    35.915053   -211.72275    2596.7377    212746.44    10.472245    243.42392 
   19500   -255.16025    34.127482   -221.03277    2467.4924    188847.11    10.472245    243.93445 
   19600   -254.04493    35.154021   -218.89091    2541.7135    190713.21    10.472245    243.87798 
   19700   -258.22006    42.437895   -215.78216    3068.3537    186886.25    10.472245    248.06291 
   19800    -250.1111    38.189341   -211.92175    2761.1738    205525.36    10.472245    251.91823 
   19900   -251.66784    32.777985   -218.88986    2369.9208    201007.62    10.472245    249.76406 
   20000   -255.92406    42.069308   -213.85476     3041.704     188191.7    10.472245    249.54433 
   20100   -254.70239     39.57691   -215.12548    2861.4981    191042.36    10.472245     253.2684 
   20200   -257.41184    41.396264   -216.01557    2993.0415     184038.9    10.472245    252.12572 
   20300   -256.41336     32.98842   -223.42494    2385.1358     187303.7    10.472245    255.47528 
   20400   -253.07661    36.083314    -216.9933    2608.9034    196239.18    10.472245    255.32341 
   20500   -251.87859    37.762658   -214.11593    2730.3237    208468.46    10.472245    255.41951 
   20600   -251.56202     39.85756   -211.70446    2881.7897    199245.05    10.472245    257.18017 
   20700   -256.35482    35.210462   -221.14435    2545.7943    190575.86    10.472245    258.26929 
   20800   -251.27064    36.909578   -214.36106    2668.6442    197205.39    10.472245    257.21788 
   20900   -254.94088    39.055737   -215.88514    2823.8162    192786.11    10.472245    256.60601 
   21000   -260.08449    38.271485     -221.813     2767.113    176274.29    10.472245    262.21354 
   21100   -249.28464    38.857464   -210.42717    2809.4806    211307.22    10.472245    258.70125 
   21200   -251.98963     34.75677   -217.23286    2512.9914    197873.71    10.472245     257.0573 
   21300   -255.47792    36.840904   -218.63701    2663.6789    188940.21    10.472245    261.37513 
   21400   -252.14455    44.292919   -207.85163     3202.476    202272.21    10.472245    263.93884 
   21500   -258.58392    40.346335   -218.23759    2917.1293    179472.95    10.472245    269.00476 
   21600   -257.80279    41.769512   -216.03328    3020.0281    188018.28    10.472245    270.03805 
   21700   -249.99748    42.922254   -207.07523    3103.3739    206359.07    10.472245    268.45796 
   21800   -256.73598    38.499524   -218.23646    2783.6008    187750.47    10.472245    269.83711 
   21900   -258.19524    37.002776   -221.19246    2675.3826    180125.36    10.472245    273.46426 
   22000   -249.19457    37.073955   -212.12061     2680.529    201818.81    10.472245    274.13486 
   22100   -253.97795    38.302979   -215.67497    2769.3901    193074.66    10.472245    272.91712 
   22200   -259.19323     39.73236   -219.46087    2872.7375    179778.98    10.472245     271.3064 
   22300   -253.22379    38.000922   -215.22287    2747.5507    195105.13    10.472245    272.69534 
   22400    -253.8663    38.317418   -215.54888    2770.4341    194272.21    10.472245    274.52151 
   22500   -259.40539    34.749203   -224.65619    2512.4443    177201.99    10.472245    274.05995 
   22600   -254.82553    38.470255   -216.35527    2781.4845     191899.3    10.472245    272.26147 
   22700   -253.24601    38.478593   -214.76742    2782.0874    195999.64    10.472245    273.00032 
   22800   -259.45792    42.411836   -217.04608    3066.4695    179496.45    10.472245    272.39562 
   22900   -258.02233    35.947671   -222.07465    2599.0962    178221.64    10.472245    275.54923 
   23000   -250.49818    39.168355   -211.32983    2831.9587    207223.14    10.472245     273.1171 
   23100   -250.70941    36.573672   -214.13574    2644.3574    202707.09    10.472245    274.38446 
   23200   -254.49106    36.974673   -217.51638    2673.3506     194735.7    10.472245    274.00449 
   23300   -251.15248    44.325794   -206.82668     3204.853    204451.79    10.472245    270.68292 
   23400    -255.9576    43.391064   -212.56654    3137.2699    189135.05    10.472245    274.71978 
   23500    -255.3288    37.410818   -217.91798    2704.8849    192469.29    10.472245    275.65989 
   23600   -255.16632    35.506056   -219.66026    2567.1664    196223.54    10.472245    274.61364 
   23700   -255.12618    42.881349   -212.24483    3100.4164    192818.69    10.472245    279.95976 
   23800   -253.01881    31.236656   -221.78216    2258.4793    191027.69    10.472245    281.67552 
   23900   -254.62517    35.766461   -218.85871    2585.9942    192527.82    10.472245    285.16366 
   24000   -253.01878    39.023359   -213.99542    2821.4752    194113.88    10.472245    289.71987 
   24100    -253.6999    36.522201    -217.1777    2640.6359    192454.82    10.472245     287.8487 
   24200   -253.74738    37.865286   -215.88209    2737.7439    196220.66    10.472245    292.31765 
   24300   -253.19335     35.87431   -217.31904     2593.792    190818.93    10.472245    295.17653 
   24400   -263.31579     39.19331   -224.12248     2833.763    166674.07    10.472245    290.79059 
   24500   -257.99105    40.936342    -217.0547    2959.7881    186046.54    10.472245     290.5813 
   24600   -250.44315    34.285296   -216.15785    2478.9027     202683.5    10.472245     290.4121 
   24700   -255.48651    38.223097   -217.26341    2763.6145     192439.6    10.472245    290.52987 
   24800   -258.68979    38.452801   -220.23699    2780.2226     183941.8    10.472245    296.55053 
   24900    -251.8096    40.710667   -211.09893    2943.4712    201730.73    10.472245    292.71772 
   25000   -257.86833    38.187344   -219.68099    2761.0295    185638.15    10.472245      297.012 
   25100   -254.35303    34.903457   -219.44957    2523.5972    191635.28    10.472245    296.04138 
   25200   -256.98844    43.477876   -213.51056    3143.5466     187836.1    10.472245     294.9601 
   25300   -254.93076    33.033049   -221.89771    2388.3625    187179.39    10.472245    304.53943 
   25400   -256.20368    40.730673   -215.47301    2944.9177    190525.04    10.472245    302.39363 
   25500    -252.8774    39.308594    -213.5688    2842.0983    198352.74    10.472245    302.23038 
   25600   -250.48386    33.866861     -216.617    2448.6489    198517.22    10.472245    305.53081 
   25700   -257.01831    39.141374   -217.87693    2830.0079    188152.36    10.472245    306.49348 
   25800   -251.32688    41.189184   -210.13769    2978.0691    202346.98    10.472245    306.12399 
   25900   -254.42748      38.4408   -215.98668    2779.3549    192394.88    10.472245    309.50194 
   26000   -256.81263    38.165438   -218.64719    2759.4456    185077.83    10.472245    304.17015 
   26100   -254.99512    41.899043   -213.09608    3029.3935    196701.06    10.472245    302.33928 
   26200   -253.20909     39.89738   -213.31171    2884.6688    196463.23    10.472245    308.49593 
   26300   -254.25409    36.796159   -217.45793    2660.4437    193460.41    10.472245    306.84352 
   26400   -256.69381    43.092746   -213.60106    3115.7008    190464.78    10.472245    306.83712 
   26500   -258.45541     40.10883   -218.34658    2899.9571    180635.27    10.472245    311.91137 
   26600   -261.97276    38.789795   -223.18296     2804.588    169231.12    10.472245    311.03029 
   26700   -260.09358     47.31684   -212.77674    3421.1122    180729.29    10.472245    309.37397 
   26800   -251.27799    33.971518   -217.30647    2456.2159    196839.24    10.472245    307.74351 
   26900   -254.94885    40.774458   -214.17439    2948.0835    191103.51    10.472245    306.80287 
   27000   -253.44969      40.0374   -213.41229    2894.7926    199852.73    10.472245    311.78251 
   27100   -257.29966     37.36292   -219.93674    2701.4217    186996.11    10.472245    312.66642 
   27200   -253.61851    39.041557   -214.57695    2822.7909    195839.27    10.472245    316.19145 
   27300   -251.19768    36.399129   -214.79855    2631.7375    201831.21    10.472245    316.79052 
   27400   -259.92887    34.374003   -225.55487    2485.3164    177213.74    10.472245    319.55847 
   27500   -255.74796    37.752481   -217.99548    2729.5879    188568.29    10.472245    318.01175 
   27600   -258.29324    42.327797   -215.96544    3060.3934     182609.8    10.472245    321.37267 
   27700    -256.2401    34.079977   -222.16012    2464.0577    181195.81    10.472245    319.50235 
   27800   -257.74553    45.518378   -212.22715    3291.0794    188052.11    10.472245    317.34001 
   27900   -255.89491    38.614477   -217.28043    2791.9121    190473.89    10.472245    318.28124 
   28000   -254.90206    36.551153    -218.3509    2642.7292    191484.55    10.472245    320.38596 
   28100   -257.68351    40.318255   -217.36526     2915.099    186634.16    10.472245    320.63317 
   28200   -257.24657    30.708788   -226.53779    2220.3133     179752.5    10.472245    324.17882 
   28300   -254.13557    40.837583   -213.29799    2952.6476    192042.73    10.472245    327.44664 
   28400   -256.80852    41.327131   -215.48138     2988.043       191567    10.472245    330.73842 
   28500   -254.41321    33.826228   -220.58699    2445.7111    191046.74    10.472245    333.47763 
   28600   -256.85867    47.658163   -209.20051    3445.7906    190916.09    10.472245    334.30583 
   28700    -253.0526    36.780234   -216.27237    2659.2922    199399.16    10.472245    333.06244 
   28800   -255.10836     35.82819   -219.28017    2590.4574    189457.54    10.472245    334.04346 
   28900   -252.31738    39.979592   -212.33779    2890.6129    202061.45    10.472245    330.27241 
   29000   -252.70496    45.232204   -207.47276    3270.3884    204027.33    10.472245    334.14329 
   29100   -249.80141    35.028104    -214.7733    2532.6094    201822.68    10.472245    336.67709 
   29200   -253.73457    35.341908   -218.39266    2555.2982    197236.55    10.472245    337.15619 
   29300    -256.0574    39.303328   -216.75408    2841.7176    188970.01    10.472245    342.00775 
   29400   -250.89433    38.067857   -212.82647    2752.3903    204494.51    10.472245    342.22769 
   29500   -256.00794    33.886156   -222.12178     2450.044    185692.85    10.472245    342.81721 
   29600    -258.3718    44.625718   -213.74608    3226.5381    186502.92    10.472245    343.51328 
   29700    -256.3194    42.587383   -213.73201     3079.162    189151.88    10.472245    341.82025 
   29800   -258.78506    38.494348   -220.29071    2783.2265    175492.57    10.472245    341.00626 
   29900   -249.78643    41.656268   -208.13016    3011.8403    208271.69    10.472245    340.81836 
   30000   -255.16342    40.036316   -215.12711    2894.7142    186364.98    10.472245    343.27387 
   30100   -259.35729    42.154586    -217.2027    3047.8698    182682.05    10.472245    342.52792 
   30200   -256.45266    45.668968   -210.78369    3301.9674    191871.31    10.472245    349.26208 
   30300   -260.88155    44.357103   -216.52445    3207.1167    177290.78    10.472245    351.01111 
   30400   -255.66993    37.652874   -218.01706    2722.3861    189166.55    10.472245    352.44282 
   30500   -252.15482    41.241467   -210.91336    2981.8493    200363.43    10.472245    355.14354 
   30600   -256.16021    34.632155   -221.52806    2503.9814    189875.22    10.472245     357.7654 
   30700   -254.80175    36.903514   -217.89824    2668.2057    190157.76    10.472245    359.81889 
   30800   -249.49479    39.141385   -210.35341    2830.0087    210620.37    10.472245    360.21566 
   30900   -255.18529     36.47602   -218.70927    2637.2969    187712.54    10.472245    369.62242 
   31000   -256.98309    40.685331   -216.29776    2941.6395    191068.03    10.472245    364.99331 
   31100   -253.40765    39.780512   -213.62714     2876.219    196114.34    10.472245    367.82746 
   31200    -258.1822    42.459064   -215.72314    3069.8842    187100.64    10.472245    375.69524 
   31300   -255.45195    34.821484   -220.63047    2517.6703    188000.18    10.472245    379.72363 
   31400   -254.23252    41.756158   -212.47636    3019.0626    194064.56    10.472245    381.34897 
   31500   -259.52712    41.086743   -218.44038    2970.6624    182375.26    10.472245    384.45497 
   31600   -262.17893    40.967535   -221.21139    2962.0434    170014.89    10.472245    384.82758 
   31700   -251.22619    36.389238   -214.83695    2631.0224    199579.66    10.472245     381.8277 
   31800   -254.24487    39.567739   -214.67713     2860.835    195805.22    10.472245    383.53731 
   31900   -254.66323    39.554306   -215.10892    2859.8638    193479.99    10.472245    386.34288 
   32000    -255.8415    37.611945   -218.22955    2719.4268    188578.16    10.472245    389.69966 
   32100   -256.24458    37.853239   -218.39134    2736.8729     183134.4    10.472245     393.0872 
   32200   -251.83036      43.1072   -208.72316    3116.7459    198570.47    10.472245    393.92135 
   32300   -255.63593    36.917401   -218.71853    2669.2098    185616.42    10.472245    392.18113 
   32400   -252.67288    35.315899   -217.35698    2553.4176    192384.41    10.472245    397.98493 
   32500   -256.77808    38.891006   -217.88708    2811.9058    187608.71    10.472245    400.21351 
   32600   -260.29442    34.279679   -226.01474    2478.4966     173610.2    10.472245    396.73905 
   32700   -254.47358    39.250758   -215.22282    2837.9166    190962.65    10.472245    404.11085 
   32800   -257.02301     40.90104   -216.12197    2957.2356    189704.38    10.472245    404.74534 
   32900   -257.05484    33.853529   -223.20131     2447.685    181048.32    10.472245    408.04108 
   33000   -255.44325    37.276913   -218.16633    2695.2033     189385.2    10.472245    411.88177 
   33100   -255.07088    41.499041   -213.57184    3000.4724    191683.94    10.472245     412.9043 
   33200   -259.29284    38.252997   -221.03984    2765.7763    179064.86    10.472245    413.92194 
   33300   -257.35259    37.062298   -220.29029    2679.6861    191411.39    10.472245    419.37056 
   33400   -256.27433    40.960026   -215.31431    2961.5005    188397.25    10.472245    423.95182 
   33500   -253.39193    41.920661   -211.47126    3030.9565    197722.22    10.472245    426.40923 
   33600   -254.09272     40.72269   -213.37003    2944.3406    193719.28    10.472245     433.4856 
   33700   -256.17428    36.656494   -219.51779    2650.3456    187840.92    10.472245    441.74981 
   33800   -255.01489    42.212569   -212.80232    3052.0621    191938.65    10.472245    445.03116 
   33900   -249.83453    45.199535     -204.635    3268.0264    217055.49    10.472245    445.11103 
   34000   -253.34403    34.827845   -218.51618    2518.1303     191700.5    10.472245    441.79884 
   34100   -260.22673    43.435353   -216.79138    3140.4721    179878.13    10.472245    443.39872 
   34200   -253.87962    39.041511   -214.83811    2822.7876     196655.5    10.472245    442.36289 
   34300   -249.82913    41.439075   -208.39006    2996.1368     208485.3    10.472245    446.03688 
   34400   -257.89103     39.93574   -217.95529    2887.4423    181552.85    10.472245    446.30464 
   34500   -258.11798    39.874006   -218.24397    2882.9788    184127.36    10.472245    446.17901 
   34600   -250.01609    42.791553   -207.22453    3093.9239    208092.03    10.472245    455.80341 
   34700    -251.9859    35.528767   -216.45713    2568.8084    198714.46    10.472245    453.11981 
   34800   -251.66271    34.124292   -217.53842    2467.2618    200596.88    10.472245    453.20658 
   34900   -247.69847     41.34788   -206.35059    2989.5432    214291.06    10.472245    454.71967 
   35000   -254.66465    37.535643   -217.12901      2713.91    193341.77    10.472245    457.12336 
   35100   -255.36512    34.488726   -220.87639    2493.6112    186610.38    10.472245    458.04154 
   35200   -258.40338     35.88264   -222.52074    2594.3942    179689.54    10.472245    458.62065 
   35300   -252.31489    39.582069   -212.73282    2861.8712    203094.78    10.472245    455.05375 
   35400   -256.24599    38.394704   -217.85128     2776.022    190973.64    10.472245    461.37486 
   35500   -258.24687    38.308666    -219.9382    2769.8013    179556.63    10.472245    463.12809 
   35600   -252.87077    38.936546   -213.93423    2815.1984     196947.8    10.472245    466.30599 
   35700   -257.64863    38.576768   -219.07187    2789.1857    184914.91    10.472245    469.71054 
   35800   -259.47208    37.573336   -221.89875    2716.6353    173090.14    10.472245    470.72155 
   35900   -256.14919    42.037347   -214.11184    3039.3932    187825.38    10.472245    472.11172 
   36000   -257.05451    40.227354   -216.82716    2908.5267     186756.2    10.472245    475.37926 
   36100   -255.41349    31.856378   -223.55711    2303.2866    184718.97    10.472245    474.98556 
   36200    -258.7011    43.678274   -215.02282    3158.0358    180980.08    10.472245    470.15839 
   36300   -256.13642    36.633653   -219.50277    2648.6941    184158.42    10.472245    474.41999 
   36400    -256.3018    41.528822   -214.77297    3002.6257    189540.04    10.472245    479.35382 
   36500    -252.2217    40.234861   -211.98683    2909.0695    201655.35    10.472245    481.22125 
   36600   -256.49942    35.322983   -221.17643    2553.9298    187833.49    10.472245    481.85275 
   36700   -253.02367    41.485801   -211.53786    2999.5152    198702.52    10.472245    479.74193 
   36800   -252.62317      42.2474   -210.37577    3054.5805    198168.71    10.472245    479.88632 
   36900   -254.31808    36.091382    -218.2267    2609.4868    194292.99    10.472245    473.20898 
   37000   -256.50734    35.345789   -221.16155    2555.5788    181734.71    10.472245    471.45674 
   37100   -250.49143     39.61695   -210.87448    2864.3931    205639.62    10.472245     465.2298 
   37200   -253.10876    34.395541   -218.71322    2486.8737    192538.33    10.472245    465.37779 
   37300   -252.17739    33.895171   -218.28222    2450.6958    198709.93    10.472245    467.13418 
   37400   -252.02816    36.801518   -215.22665    2660.8311    202377.42    10.472245    463.63823 
   37500   -256.19847    35.019533   -221.17893    2531.9897    184232.55    10.472245    464.24926 
   37600   -256.78987    41.429089   -215.36078    2995.4148    187009.46    10.472245    464.30289 
   37700   -251.42174    39.657347    -211.7644    2867.3139    205459.71    10.472245    463.65164 
   37800   -256.07602    38.710733   -217.36528    2798.8716     191703.3    10.472245    467.31705 
   37900    -252.8106    35.177782   -217.63281    2543.4315     195718.3    10.472245    469.56321 
   38000    -257.1437    38.161339   -218.98236    2759.1492    186685.67    10.472245    473.81589 
   38100   -255.37101    39.197949   -216.17306    2834.0984    192796.84    10.472245    474.34321 
   38200   -248.29571    41.529658   -206.76605    3002.6861    214493.63    10.472245    475.97403 
   38300   -255.51328    38.557974   -216.95531    2787.8268    188282.01    10.472245    474.41907 
   38400   -256.79679    37.509053   -219.28773    2711.9875    182247.99    10.472245    475.94856 
   38500   -256.80429    40.034558   -216.76974    2894.5871    189251.04    10.472245    478.05136 
   38600   -249.81973    40.093495   -209.72624    2898.8484    209217.05    10.472245    481.01855 
   38700   -256.63128    37.595015   -219.03626    2718.2027    189340.66    10.472245    476.45476 
   38800   -257.31859    41.510971   -215.80762    3001.3351    191063.54    10.472245    473.02383 
   38900   -255.16922    36.252153   -218.91707    2621.1109    190483.81    10.472245    477.69167 
   39000   -258.49255     39.07482   -219.41773    2825.1959    181865.78    10.472245    480.34939 
   39100   -255.88469     44.62554   -211.25915    3226.5253    194832.98    10.472245    485.95236 
   39200   -257.79505     34.11394   -223.68111    2466.5133    175996.15    10.472245     487.5994 
   39300   -256.99288    38.187279    -218.8056    2761.0248    184573.43    10.472245    490.71828 
   39400    -250.2364    38.413242   -211.82316    2777.3624    202374.69    10.472245    491.51831 
   39500    -255.5217    34.710858   -220.81084    2509.6718    189496.62    10.472245    492.07123 
   39600    -254.3536    37.222278   -217.13132     2691.253    191936.53    10.472245    489.28308 
   39700   -253.10173    43.442709   -209.65902     3141.004    196701.12    10.472245    493.42574 
   39800    -256.2185    34.175219   -222.04328    2470.9439    187010.33    10.472245     499.7692 
   39900    -254.4395     40.62456   -213.81494    2937.2456    194647.73    10.472245    496.35578 
   40000   -250.92864    36.178766   -214.74988    2615.8048    201992.42    10.472245    496.46522 
   40100   -255.22067    34.187475    -221.0332    2471.8301    187434.53    10.472245     498.8681 
   40200   -253.81743    41.251625    -212.5658    2982.5837    196212.96    10.472245    502.64072 
   40300   -256.16881    39.282044   -216.88677    2840.1787    191524.41    10.472245    501.40769 
   40400   -257.18485    36.407666   -220.77719    2632.3548    181380.01    10.472245    506.08542 
   40500    -253.4327    43.331451   -210.10125    3132.9598    198389.47    10.472245    507.34707 
   40600   -254.92209    35.738622   -219.18347    2583.9814    190299.19    10.472245    509.55891 
   40700   -252.22459     39.68885   -212.53574    2869.5917    198449.37    10.472245    511.35626 
   40800    -249.3709     36.42765   -212.94325    2633.7997    206555.76    10.472245    507.87602 
   40900    -254.5277    34.937229   -219.59047     2526.039    190520.39    10.472245    509.65232 
   41000   -256.44574    34.007031   -222.43871    2458.7836     187445.6    10.472245    507.96521 
   41100   -252.73962    40.187197   -212.55242    2905.6232    198834.59    10.472245     506.9773 
   41200   -254.37527     34.71409   -219.66118    2509.9055     190695.9    10.472245    507.99675 
   41300   -258.13177    39.311128   -218.82064    2842.2815    185582.53    10.472245    510.60588 
   41400   -254.09636    37.814943   -216.28142     2734.104    192370.88    10.472245    510.96061 
   41500   -255.43593    37.104362   -218.33157    2682.7274    188366.65    10.472245    515.38765 
   41600   -255.94552    39.126019    -216.8195    2828.8977    190061.06    10.472245    513.51003 
   41700   -250.46532    40.221345   -210.24398    2908.0922    203923.04    10.472245    514.94036 
   41800   -254.98568    34.127896   -220.85778    2467.5224     189795.5    10.472245    521.59463 
   41900   -255.50535    39.913955    -215.5914    2885.8673    194114.54    10.472245    520.35669 
   42000   -254.37158    40.250464   -214.12111    2910.1976    195354.12    10.472245    522.64714 
   42100   -257.70436    39.043975   -218.66038    2822.9658     184067.4    10.472245    526.22586 
   42200   -255.05306    38.615928   -216.43714     2792.017    192058.69    10.472245    525.17334 
   42300   -254.40351        43.96   -210.44351    3178.4052    195378.28    10.472245    528.60477 
   42400   -259.36024    39.236306   -220.12393    2836.8717    181148.91    10.472245     529.5017 
   42500   -257.36654    43.165618   -214.20093    3120.9697     186607.2    10.472245    525.41324 
   42600   -252.08396    36.651687   -215.43227    2649.9981    197468.64    10.472245    530.91393 
   42700   -260.31893    37.789446   -222.52949    2732.2605    173630.01    10.472245    527.12334 
   42800   -256.18182    41.479013   -214.70281    2999.0244     191327.3    10.472245    533.37211 
   42900   -256.79678    40.726265   -216.07052    2944.5991    191299.47    10.472245    535.31751 
   43000   -259.10983    33.485257   -225.62458    2421.0582    180636.61    10.472245    536.19276 
   43100   -253.54142    34.570695   -218.97072    2499.5377    190168.27    10.472245    539.42004 
   43200   -249.71763    37.989308   -211.72833     2746.711    203875.02    10.472245    537.04565 
   43300   -250.36784     44.39032   -205.97752    3209.5183    213305.28    10.472245    541.71184 
   43400   -254.07399    36.225996   -217.84799    2619.2196    191415.16    10.472245    542.77886 
   43500   -259.00989    39.683692    -219.3262    2869.2187    180318.37    10.472245    543.08416 
   43600   -251.46816    41.185014   -210.28315    2977.7676    200705.77    10.472245    548.31245 
   43700    -253.0767    38.505049   -214.57165    2784.0002    200622.15    10.472245    547.27019 
   43800   -251.28306    37.091288   -214.19177    2681.7821    202305.08    10.472245    546.65015 
   43900   -258.45475    33.765888   -224.68887    2441.3484    179577.24    10.472245    548.48534 
   44000   -259.68181     41.57015   -218.11166    3005.6138    177981.47    10.472245    549.51716 
   44100   -252.86315    37.344051    -215.5191    2700.0575    195797.36    10.472245    549.92457 
   44200   -256.04334    32.896986   -223.14636    2378.5248    186976.15    10.472245    554.34672 
   44300   -254.97804    40.611828   -214.36621     2936.325    193756.78    10.472245    552.66777 
   44400   -253.36782    38.676818     -214.691    2796.4195    197727.51    10.472245    557.04995 
   44500    -258.0819    39.771503    -218.3104    2875.5676    183136.17    10.472245    557.70857 
   44600   -254.46164    41.578941    -212.8827    3006.2494     190807.3    10.472245    560.61134 
   44700   -258.17999    42.785411   -215.39457    3093.4799    186403.79    10.472245    559.79689 
   44800   -255.13847    35.048373    -220.0901    2534.0749    189621.47    10.472245     563.1888 
   44900   -251.66751    41.458615    -210.2089    2997.5496    202654.13    10.472245    565.43691 
   45000   -257.53599    38.063196    -219.4728    2752.0533    183889.38    10.472245    563.20678 
   45100   -258.70786    39.011691   -219.69616    2820.6316     185645.7    10.472245    565.47708 
   45200   -256.64159    43.782812   -212.85878    3165.5942    190676.62    10.472245     568.1785 
   45300   -254.90156    38.113553     -216.788    2755.6942    192537.63    10.472245    576.08098 
   45400   -253.28825    36.730473   -216.55778    2655.6944    196114.23    10.472245    571.18156 
   45500   -256.91092     44.73546   -212.17546    3234.4727    193191.78    10.472245    579.15573 
   45600   -258.96281    36.883672   -222.07914    2666.7711     179786.3    10.472245    578.27465 
   45700   -255.53625    42.098315   -213.43793    3043.8013    190226.61    10.472245    583.09714 
   45800   -249.86659    37.652785   -212.21381    2722.3797    206004.86    10.472245    588.31618 
   45900   -254.11777    35.364837   -218.75293    2556.9559    194135.25    10.472245    588.89892 
   46000   -257.61476    33.088697   -224.52606     2392.386    179876.85    10.472245    588.11176 
   46100   -254.91455     42.15107   -212.76348    3047.6156    191960.89    10.472245    592.55799 
   46200   -255.44596    38.604704   -216.84125    2791.2055    190869.39    10.472245    595.82154 
   46300   -256.33076    35.366701   -220.96406    2557.0907    181512.99    10.472245    600.56852 
   46400   -252.73887     43.97414   -208.76473    3179.4276    199647.21    10.472245    604.51987 
   46500     -252.744     34.77437   -217.96963    2514.2639    198275.35    10.472245    600.10972 
   46600   -254.52094    36.774165   -217.74678    2658.8535    193867.21    10.472245     601.1346 
   46700   -248.33829    41.807405   -206.53089    3022.7678    210573.25    10.472245    602.85575 
   46800   -259.21849    41.264005   -217.95449    2983.4789    181966.08    10.472245    605.10188 
   46900   -254.97801    38.856577   -216.12144    2809.4165     193387.2    10.472245    604.51593 
   47000    -249.2217    39.160482   -210.06122    2831.3895    212104.63    10.472245    607.31938 
   47100   -255.39477    37.837914   -217.55686    2735.7649    189762.26    10.472245    609.56481 
   47200   -258.65381    41.250313    -217.4035    2982.4888    183545.76    10.472245     605.8056 
   47300    -251.9298    42.601397    -209.3284    3080.1752    202178.98    10.472245    611.20677 
   47400   -252.81536    43.432959    -209.3824     3140.299    201117.44    10.472245    615.30062 
   47500   -259.52683    39.837856   -219.68898    2880.3651    179843.42    10.472245    618.35381 
   47600   -255.65482    38.825948   -216.82887    2807.2019    188527.47    10.472245    622.72769 
   47700   -251.48248    42.238735   -209.24374     3053.954    199329.59    10.472245    617.69105 
   47800   -260.31933    38.506007   -221.81333    2784.0695    178484.14    10.472245    618.93691 
   47900   -251.36161    36.984686   -214.37692    2674.0746    194923.79    10.472245    619.31783 
   48000   -257.69797    40.754422   -216.94354    2946.6349    185209.13    10.472245    622.12328 
   48100   -261.00297    36.268558   -224.73441     2622.297    171325.47    10.472245    624.39986 
   48200   -254.39845      38.3714   -216.02705    2774.3371    195935.95    10.472245    629.17242 
   48300   -254.81135    38.079822   -216.73153    2753.2554    190486.66    10.472245    630.74991 
   48400     -259.568    36.065563   -223.50243      2607.62    175599.51    10.472245    623.79143 
   48500   -259.43359    43.631161   -215.80243    3154.6294    182838.05    10.472245    625.19824 
   48600   -254.08326    37.946994   -216.13626    2743.6516    194262.32    10.472245     632.3919 
   48700   -250.04531    43.283542   -206.76177    3129.4958    207089.84    10.472245     631.7944 
   48800   -256.79667    38.977699   -217.81897    2818.1738    188024.72    10.472245    635.09874 
   48900   -257.13381    38.559901   -218.57391    2787.9662    183298.77    10.472245    637.74138 
   49000   -256.70845    34.182744    -222.5257     2471.488    183905.05    10.472245    640.09201 
   49100   -252.70443    40.198114   -212.50632    2906.4125    195518.74    10.472245     641.4189 
   49200   -259.37958    38.781097   -220.59849    2803.9591    180570.56    10.472245    646.05143 
   49300   -254.64706     35.26409   -219.38297    2549.6717     192972.4    10.472245    649.13643 
   49400   -256.63571    41.753763   -214.88194    3018.8894    190475.17    10.472245      653.971 
   49500   -254.89644    38.354462   -216.54198    2773.1125    191036.41    10.472245    656.07114 
   49600   -257.10069    38.115741   -218.98494    2755.8524    185991.96    10.472245    653.10993 
   49700   -254.63022    36.102656   -218.52756    2610.3019    188698.52    10.472245    655.65929 
   49800   -253.26805    42.996732   -210.27132    3108.7588     202428.8    10.472245    659.64181 
   49900    -257.3107    36.433978   -220.87672    2634.2572    181294.52    10.472245    658.19076 
   50000   -252.04859    36.075996   -215.97259    2608.3743    199292.57    10.472245    658.58347 
   50100    -254.2015     39.81312   -214.38838    2878.5766    196290.58    10.472245    666.52993 
   50200   -257.61163    39.731661   -217.87997     2872.687    186101.96    10.472245     664.5734 
   50300   -251.35817    38.169342   -213.18883    2759.7278    204501.03    10.472245    657.94726 
   50400   -249.75717    34.979371    -214.7778    2529.0859    205502.37    10.472245    659.15602 
   50500   -255.91646    37.041463   -218.87499    2678.1797    187049.03    10.472245    660.53605 
   50600   -252.52422    43.693701   -208.83052    3159.1512    199602.68    10.472245    667.40064 
   50700   -260.71019    40.356923   -220.35326    2917.8948    176815.91    10.472245    673.22506 
   50800   -251.48026     37.36101   -214.11925    2701.2837    195728.48    10.472245    670.59433 
   50900   -254.22998    39.307196   -214.92279    2841.9972    199618.09    10.472245    670.75272 
   51000   -261.61177    34.188859   -227.42292    2471.9301     172029.4    10.472245     671.0873 
   51100    -258.3517    38.220965   -220.13074    2763.4603    183700.66    10.472245    671.87946 
   51200   -251.90062    39.039102   -212.86152    2822.6134    198492.88    10.472245    668.76716 
   51300   -256.90396     36.90362   -220.00034    2668.2134    187383.13    10.472245    670.83913 
   51400   -259.05712    37.762226   -221.29489    2730.2925    178789.75    10.472245    669.77481 
   51500     -255.794    39.213399    -216.5806    2835.2155    188954.39    10.472245    672.76534 
   51600   -254.29848    39.915834   -214.38265    2886.0031    193399.39    10.472245    672.23519 
   51700   -256.25921    38.520075   -217.73914    2785.0866    190913.07    10.472245    672.11926 
   51800   -255.17935    35.139663   -220.03969    2540.6753    184985.77    10.472245    674.14109 
   51900   -248.95823    38.971757   -209.98647    2817.7443    203838.11    10.472245    671.44238 
   52000   -254.41965    37.695436   -216.72421    2725.4634    192729.93    10.472245    675.65175 
   52100   -254.14222     39.11153   -215.03069    2827.8501    197002.17    10.472245     680.2036 
   52200   -256.17243    39.871191   -216.30124    2882.7753    192677.48    10.472245    673.05757 
   52300   -259.58578    36.243951   -223.34183    2620.5178    177318.05    10.472245     676.1362 
   52400   -251.72525    36.026636   -215.69861    2604.8055    198671.08    10.472245    678.99747 
   52500   -252.70325     39.27201   -213.43124    2839.4532    195709.45    10.472245    679.06258 
   52600   -255.33324    30.400313   -224.93293    2198.0099    185341.94    10.472245    682.93767 
   52700   -256.87335    37.785389   -219.08796    2731.9672    186666.11    10.472245    681.92016 
   52800   -256.29613    42.970987   -213.32514    3106.8974    191991.43    10.472245    685.42379 
   52900   -253.37052      39.3694   -214.00112    2846.4947    191173.74    10.472245    685.97143 
   53000   -261.89097    38.710843   -223.18012    2798.8796    173733.87    10.472245    684.46097 
   53100   -255.89251    36.296373   -219.59614    2624.3081    188691.07    10.472245    684.83162 
   53200   -254.52523    40.130515   -214.39471     2901.525    189848.31    10.472245    683.16115 
   53300    -255.4086    34.710958   -220.69764     2509.679    187251.69    10.472245    692.02712 
   53400   -259.56228    34.752451   -224.80983     2512.679    173806.42    10.472245    698.98469 
   53500   -253.59284    39.843922   -213.74892    2880.8037    198714.81    10.472245    701.96723 
   53600   -259.34768    40.511457   -218.83623     2929.068    181531.06    10.472245    713.29643 
   53700    -258.5017    37.309893   -221.19181    2697.5878     181765.5    10.472245     714.1151 
   53800   -257.38057    42.229887   -215.15069    3053.3142    195129.13    10.472245    715.34314 
   53900   -252.58055    36.299471   -216.28108    2624.5321    195790.72    10.472245    717.21791 
   54000   -261.09212    36.245181   -224.84693    2620.6067    171268.97    10.472245    723.30945 
   54100   -253.03144    38.269445   -214.76199    2766.9655    196411.31    10.472245    721.95842 
   54200   -254.56832    36.795025    -217.7733    2660.3617     193166.6    10.472245    724.63078 
   54300   -254.25985    38.004453    -216.2554     2747.806     191434.9    10.472245    726.71587 
   54400   -250.26288    37.358023   -212.90486    2701.0677    203035.75    10.472245    732.20193 
   54500   -258.14155    39.701357   -218.44019    2870.4959    181550.26    10.472245    733.78706 
   54600   -253.87101    35.638307    -218.2327    2576.7285    190968.66    10.472245    736.28921 
   54700   -254.32457    41.247773    -213.0768    2982.3052    192525.29    10.472245    735.83078 
   54800   -254.01051    34.330933   -219.67958    2482.2024    189961.78    10.472245    734.84766 
   54900   -257.73027    36.655397   -221.07488    2650.2663    182455.69    10.472245    739.45918 
   55000   -254.87941    42.740704    -212.1387    3090.2474     197619.1    10.472245    743.15238 
   55100   -259.39927    40.274002   -219.12527    2911.8994    177936.72    10.472245    741.32643 
   55200   -260.70857    31.492038   -229.21653     2276.944    171896.23    10.472245    745.85679 
   55300   -255.87916    38.214287   -217.66487    2762.9775    189540.51    10.472245    742.73326 
   55400   -256.95025    39.784026   -217.16622    2876.4731     188360.5    10.472245    748.03792 
   55500   -262.27606    37.874886   -224.40118     2738.438    168305.03    10.472245    748.79383 
   55600   -255.11794     38.35452   -216.76342    2773.1166    190320.72    10.472245    752.46051 
   55700   -248.81624    34.869104   -213.94713    2521.1133    207137.33    10.472245    755.12113 
   55800   -255.10531    40.090148   -215.01516    2898.6064    193219.18    10.472245    759.98147 
   55900   -255.64346    33.954664    -221.6888    2454.9973    188042.53    10.472245    763.21389 
   56000   -252.70016    41.445678   -211.25448    2996.6142     204250.1    10.472245    763.88381 
   56100   -255.63159     37.70973   -217.92186    2726.4969    186417.73    10.472245    761.89104 
   56200   -256.15346    38.001311   -218.15215    2747.5788    194180.16    10.472245     764.8771 
   56300   -261.29386    45.862571   -215.43129    3315.9653    176162.92    10.472245     765.4818 
   56400   -258.71263    41.521171   -217.19145    3002.0725    186604.96    10.472245    768.62817 
   56500    -255.3895    32.628525   -222.76097    2359.1145    188274.61    10.472245    767.83009 
   56600    -252.4302    35.387464   -217.04274    2558.5919    194206.29    10.472245    776.55338 
   56700   -255.30117    42.415194   -212.88598    3066.7123    189781.38    10.472245    770.59556 
   56800   -254.15027    35.453216   -218.69705     2563.346    192463.97    10.472245    774.93088 
   56900   -256.32993    41.309136   -215.02079    2986.7419    188052.73    10.472245    778.42589 
   57000    -253.3631    39.114248   -214.24885    2828.0467    196550.84    10.472245    781.30072 
   57100   -256.67358    35.256921   -221.41666    2549.1534    183401.54    10.472245    785.72896 
   57200   -256.03118    44.235043   -211.79614    3198.2915    190208.53    10.472245     794.2078 
   57300   -252.22868    38.370366   -213.85831    2774.2623    201043.08    10.472245    796.43469 
   57400   -254.33509    36.425536   -217.90956    2633.6469    193571.52    10.472245     798.5216 
   57500   -260.79998    36.073931   -224.72605     2608.225    174117.94    10.472245    800.17116 
   57600   -254.58724    40.115648   -214.47159    2900.4501     190779.2    10.472245    806.86529 
   57700    -256.8897    39.265925   -217.62377    2839.0132    185143.54    10.472245    809.93611 
   57800   -257.47734    33.761194   -223.71614     2441.009    181688.53    10.472245    804.14984 
   57900   -256.79657    43.641873    -213.1547    3155.4039    188826.96    10.472245    812.43272 
   58000   -258.16567    38.927162   -219.23851    2814.5199    185122.24    10.472245     809.9891 
   58100   -252.24078    38.252611   -213.98817    2765.7484    198448.73    10.472245    807.29711 
   58200   -254.30353    40.610118   -213.69342    2936.2013    198336.83    10.472245     804.0648 
   58300   -257.86771    38.852923   -219.01479    2809.1523    184186.37    10.472245    812.29019 
   58400   -256.04182    37.403771   -218.63805    2704.3754    186032.77    10.472245    811.31224 
   58500    -253.9202    39.849621   -214.07058    2881.2157    197014.28    10.472245    819.84284 
   58600   -252.95563    39.981935    -212.9737    2890.7824    198431.35    10.472245    824.38512 
   58700    -255.3801    31.842269   -223.53783    2302.2665    186369.38    10.472245    825.07924 
   58800   -255.86442    36.172063   -219.69236    2615.3201    182655.52    10.472245    822.86724 
   58900    -254.4357    39.129212   -215.30649    2829.1286    191964.14    10.472245    828.53245 
   59000   -256.20766    45.833701   -210.37395    3313.8779     187663.5    10.472245     832.4493 
   59100   -258.02867    37.777958   -220.25072    2731.4299    186455.07    10.472245    834.85973 
   59200   -255.16637    43.626144   -211.54023    3154.2667    193405.93    10.472245    842.63381 
   59300   -252.08698    40.780199   -211.30678    2948.4986    199949.74    10.472245    836.84077 
   59400   -257.53186    42.436109   -215.09575    3068.2246    182528.15    10.472245    845.41626 
   59500   -255.22257    34.434462   -220.78811    2489.6878    191168.49    10.472245    840.89754 
   59600   -254.66586    44.698465   -209.96739    3231.7979    199739.77    10.472245    845.06493 
   59700   -258.69767    42.687097   -216.01057    3086.3715    183570.82    10.472245    840.05694 
   59800   -255.66535    36.632803   -219.03255    2648.6327    189042.04    10.472245    841.44209 
   59900    -254.2237    38.802207   -215.42149    2805.4854    193876.82    10.472245    851.42987 
   60000   -260.97655    39.780336   -221.19621    2876.2063    174681.88    10.472245    850.34882 
   60100   -258.75331     36.88918   -221.86413    2667.1693    179850.72    10.472245    846.05012 
   60200   -255.15102    40.986457   -214.16456    2963.4115    191268.16    10.472245    849.10171 
   60300   -259.02497    37.666049   -221.35892    2723.3386    177530.99    10.472245    849.42029 
   60400   -262.76047    33.278956   -229.48152    2406.1422    164177.38    10.472245    850.63077 
   60500   -257.26513    38.837318   -218.42781     2808.024    182858.64    10.472245    854.43201 
   60600    -255.7634    40.188268   -215.57513    2905.7006    192744.31    10.472245    853.17005 
   60700   -254.50659     45.24318   -209.26341     3271.182    194744.77    10.472245    858.13121 
   60800   -255.01282     36.38815   -218.62467    2630.9437    189558.65    10.472245    869.85932 
   60900   -253.46495    34.085444    -219.3795     2464.453    191146.13    10.472245    873.31154 
   61000   -257.71042    45.327807   -212.38261    3277.3007    182998.34    10.472245    873.32338 
   61100    -259.6402    35.011302   -224.62889    2531.3946    174389.53    10.472245    872.46819 
   61200   -254.16209    39.996962   -214.16513    2891.8688    193187.19    10.472245    876.31232 
   61300   -255.46156    39.489553   -215.97201     2855.182    192122.33    10.472245    876.55826 
   61400   -258.26874    36.015553   -222.25319    2604.0041    178941.01    10.472245    872.46163 
   61500   -258.44831    38.483487   -219.96482    2782.4413    182170.26    10.472245    873.70415 
   61600    -257.4314     38.50789   -218.92351    2784.2056    186567.74    10.472245    872.09318 
   61700   -256.74412    40.963671   -215.78045     2961.764    189878.25    10.472245     876.7461 
   61800   -255.44968    39.578778    -215.8709    2861.6332    190685.38    10.472245    880.84706 
   61900   -255.21918    33.977539   -221.24164    2456.6512    188287.22    10.472245    888.29585 
   62000   -253.98514    44.065378   -209.91976    3186.0243    201004.71    10.472245    890.70157 
   62100   -254.85355    37.690902   -217.16264    2725.1356    188267.32    10.472245    898.58206 
   62200   -256.52254    40.463598   -216.05894    2925.6076    187513.45    10.472245    896.73007 
   62300   -246.38095    41.741078   -204.63987    3017.9723    222344.92    10.472245     895.6259 
   62400   -256.36849    40.343795    -216.0247    2916.9456    187358.37    10.472245    895.06092 
   62500   -257.69034    38.498678   -219.19166    2783.5395    186288.11    10.472245    891.81465 
   62600   -250.32383    42.499261   -207.82457    3072.7906     207029.8    10.472245    896.40147 
   62700   -255.52388    37.861933   -217.66194    2737.5015    189749.77    10.472245    897.39349 
   62800    -252.8807    33.115769   -219.76494    2394.3433     195023.9    10.472245    893.72065 
   62900   -251.04392    42.228489   -208.81543    3053.2132    202833.05    10.472245    901.75987 
   63000   -258.17558    41.115787   -217.05979    2972.7624    184880.54    10.472245     904.7287 
   63100   -253.68554    36.355987   -217.32956    2628.6183    190027.65    10.472245    905.61487 
   63200    -250.1676    42.356426   -207.81118    3062.4633    213049.18    10.472245    906.55541 
   63300   -256.54306    39.785411   -216.75765    2876.5732    191085.46    10.472245    909.79318 
   63400   -255.15091    35.327206   -219.82371    2554.2351    187451.76    10.472245    912.15765 
   63500   -249.82199    41.132538   -208.68945    2973.9735    201873.99    10.472245    918.13732 
   63600   -256.32113    39.427613   -216.89352    2850.7036    191183.97    10.472245    925.68729 
   63700   -255.09354    38.596805   -216.49673    2790.6343    192798.82    10.472245    931.00466 
   63800   -251.07198    42.925183    -208.1468    3103.5857    209204.17    10.472245    935.82644 
   63900   -253.84043    36.663222   -217.17721     2650.832    192714.27    10.472245    927.09733 
   64000   -256.45425    36.918553    -219.5357     2669.293    187516.95    10.472245    931.13438 
   64100   -253.99911    43.701229   -210.29788    3159.6955    199775.16    10.472245    932.79167 
   64200   -251.33657    37.176713   -214.15986    2687.9586    200037.54    10.472245    933.20335 
   64300    -261.2577    39.679334   -221.57837    2868.9036    172240.63    10.472245    930.72941 
   64400   -253.94113    41.130015   -212.81111    2973.7911    194353.31    10.472245    936.11522 
   64500   -253.57104     40.72328   -212.84776    2944.3832    200822.88    10.472245     938.8458 
   64600   -258.77136    40.479748   -218.29161    2926.7753    182279.62    10.472245    946.66201 
   64700   -254.75846     39.91907   -214.83939    2886.2371     191097.5    10.472245    946.63344 
   64800   -249.24253     41.06491   -208.17762    2969.0838    211892.41    10.472245    953.17002 
   64900   -258.43224    42.257538    -216.1747    3055.3135    184624.05    10.472245    958.92756 
   65000   -255.34606    36.244013   -219.10205    2620.5223    189902.84    10.472245    952.66771 
   65100   -255.52348    40.030848   -215.49263    2894.3188    191687.62    10.472245    956.45457 
   65200   -254.35859    41.748406   -212.61018    3018.5021    190185.36    10.472245    951.90708 
   65300   -257.80994    36.845305   -220.96463    2663.9971    179869.78    10.472245    959.52455 
   65400   -251.79093    36.217316   -215.57361     2618.592    203575.15    10.472245    955.98108 
   65500   -254.47574    39.278319   -215.19742    2839.9094    193399.85    10.472245    960.26959 
   65600   -253.91895    40.166292   -213.75266    2904.1118    193474.82    10.472245    968.05822 
   65700   -252.45679    38.572358   -213.88444    2788.8668    200142.02    10.472245    970.26501 
   65800   -256.51843    38.887656   -217.63077    2811.6635    188879.32    10.472245    973.07836 
   65900   -247.44078    40.437274   -207.00351    2923.7044    218736.42    10.472245    970.78584 
   66000   -254.99926     36.12428   -218.87498    2611.8654    190236.05    10.472245    966.94949 
   66100   -255.27504    36.966548   -218.30849    2672.7632    188878.58    10.472245    966.86347 
   66200   -252.14736    42.103715   -210.04364    3044.1917    197240.71    10.472245     967.0206 
   66300   -256.15268     33.87331   -222.27937    2449.1152    186633.67    10.472245    971.27098 
   66400   -258.35108    42.256465   -216.09461    3055.2359    185128.48    10.472245    975.43559 
   66500   -254.51299      42.2149   -212.29809    3052.2306    197414.02    10.472245    983.38292 
   66600   -252.38451    37.598462   -214.78605     2718.452    201108.28    10.472245     978.3155 
   66700   -255.74067    37.036695   -218.70397     2677.835    189325.97    10.472245    979.28654 
   66800   -261.72755    38.813963   -222.91359    2806.3354    171182.47    10.472245    978.67707 
   66900   -249.39595    37.555562   -211.84038    2715.3502    205267.07    10.472245    980.77621 
   67000   -257.46942    36.472172   -220.99724    2637.0187    187739.01    10.472245    984.39238 
   67100    -246.8832    32.807439   -214.07576    2372.0504    210149.49    10.472245    985.36445 
   67200   -254.24101    40.515324   -213.72569    2929.3476     194638.4    10.472245    991.06344 
   67300     -257.675    35.102279   -222.57272    2537.9724    180975.74    10.472245    1001.0395 
   67400   -256.37652    35.110437   -221.26608    2538.5623    186503.34    10.472245    1002.2605 
   67500   -250.72645    36.940916   -213.78553    2670.9099    202849.24    10.472245    1009.9956 
   67600   -255.32458    38.988221   -216.33636    2818.9346    193780.75    10.472245    1023.0709 
   67700   -255.99727    34.276441   -221.72083    2478.2625    185387.37    10.472245    1021.1415 
   67800   -252.26766    41.113421   -211.15424    2972.5913    197694.75    10.472245    1022.4835 
   67900   -256.99663     37.33914   -219.65749    2699.7024    186390.42    10.472245    1024.2829 
   68000   -256.54984    45.539012   -211.01083    3292.5713       194687    10.472245    1019.8037 
   68100   -251.47455    37.520583   -213.95396    2712.8211    197878.32    10.472245    1016.5529 
   68200   -253.83087    36.718016   -217.11286    2654.7938    193693.15    10.472245    1015.1173 
   68300   -251.26131    43.016668   -208.24465    3110.2003    204817.19    10.472245    1009.3868 
   68400   -251.95649    36.992534   -214.96396    2674.6421    199791.41    10.472245    1015.3258 
   68500   -259.57416    40.186346   -219.38782    2905.5617    179150.49    10.472245    1009.6348 
   68600   -255.07679     37.59019    -217.4866    2717.8539    190434.31    10.472245    1017.8362 
   68700   -249.88471    39.027367   -210.85734     2821.765    206827.31    10.472245    1017.1337 
   68800   -256.95484    35.870445   -221.08439    2593.5125    185837.91    10.472245    1016.7553 
   68900   -257.11047    40.754999   -216.35547    2946.6765     187883.2    10.472245     1015.786 
   69000   -256.86808    40.514835   -216.35325    2929.3122    187258.56    10.472245    1018.5746 
   69100   -258.75634    33.200069   -225.55627    2400.4384    178709.59    10.472245    1017.0768 
   69200   -256.41247    42.661759   -213.75071    3084.5396    188796.02    10.472245    1021.6143 
   69300   -257.31542    36.132944   -221.18248    2612.4918    188539.74    10.472245    1020.8633 
   69400    -258.5024    43.514886   -214.98751    3146.2225    183501.82    10.472245    1025.9036 
   69500   -251.01742    38.913372   -212.10405    2813.5228    206187.81    10.472245    1027.6602 
   69600   -251.27977    38.122965    -213.1568    2756.3747    202879.78    10.472245    1023.0912 
   69700   -250.10439     38.32863   -211.77576    2771.2447    205398.93    10.472245    1022.5516 
   69800   -259.51539     36.96054   -222.55485    2672.3288    177016.52    10.472245    1025.4406 
   69900   -261.90815    41.870611   -220.03754    3027.3378    172543.31    10.472245    1030.4693 
   70000   -253.05243    37.954138   -215.09829    2744.1681    194556.22    10.472245    1030.4639 
   70100   -255.53908    42.827997   -212.71109    3096.5589    189151.21    10.472245    1033.2911 
   70200   -256.06261    35.046105   -221.01651    2533.9109    183295.43    10.472245    1026.8917 
   70300   -252.67138    38.770637   -213.90074    2803.2028    197536.06    10.472245    1031.8914 
   70400   -256.63968    43.643047   -212.99664    3155.4888    192140.15    10.472245    1029.3923 
   70500   -255.41768    32.579843   -222.83784    2355.5947    185492.95    10.472245    1029.9486 
   70600   -258.09764    34.466382   -223.63126    2491.9957    176953.03    10.472245    1028.7058 
   70700   -258.31832     42.58616   -215.73216    3079.0736    185135.99    10.472245    1039.3735 
   70800   -252.33817    42.665408   -209.67276    3084.8033    205268.48    10.472245     1032.246 
   70900   -250.95166    41.178892   -209.77277     2977.325    202785.55    10.472245    1036.6077 
   71000   -253.58644     37.04734    -216.5391    2678.6046    197804.41    10.472245    1039.7197 
   71100   -251.31762    39.171872   -212.14575     2832.213    198895.03    10.472245    1046.0007 
   71200   -256.57674    40.270794   -216.30595    2911.6675    189422.87    10.472245    1049.8485 
   71300   -255.73959    35.921301   -219.81828    2597.1895    191029.14    10.472245    1051.8396 
   71400    -253.3339    42.175019   -211.15888    3049.3472    198614.31    10.472245    1048.9623 
   71500   -249.40478    35.674496   -213.73029     2579.345    208244.27    10.472245     1050.335 
   71600    -254.2351    43.435646   -210.79945    3140.4933     195096.7    10.472245    1045.3977 
   71700   -255.93489    41.191185   -214.74371    2978.2138    194123.46    10.472245    1048.8324 
   71800   -259.02927    38.765967    -220.2633    2802.8652    178826.93    10.472245    1053.9281 
   71900   -252.21255    44.016822   -208.19573    3182.5136    204427.66    10.472245     1042.347 
   72000   -256.00475      42.2318   -213.77296    3053.4525    190965.17    10.472245     1042.267 
   72100   -251.89182    35.566881   -216.32494    2571.5642    197304.99    10.472245     1035.948 
   72200   -261.03334    35.866522   -225.16682    2593.2289    172309.22    10.472245    1037.8946 
   72300    -253.0056    38.954958   -214.05065    2816.5296    197922.91    10.472245      1038.16 
   72400    -252.3846    40.014173   -212.37043    2893.1132    198059.86    10.472245    1036.7206 
   72500   -256.86038    36.527343   -220.33304    2641.0077    182072.94    10.472245    1035.5003 
   72600   -256.28172    37.813199   -218.46852    2733.9779    187100.82    10.472245    1044.2163 
   72700   -252.17372     38.76812    -213.4056    2803.0208    202995.57    10.472245    1045.3117 
   72800   -259.17323    41.460563   -217.71267    2997.6904    183233.39    10.472245    1050.5041 
   72900   -257.03924    32.169968   -224.86928    2325.9598    184105.35    10.472245     1045.265 
   73000   -257.41308    41.709923   -215.70316    3015.7197     188243.4    10.472245    1042.6171 
   73100   -253.14966    38.222183   -214.92748    2763.5484    194084.45    10.472245    1039.7825 
   73200   -262.20864    37.825669   -224.38297    2734.8795    170051.24    10.472245    1040.3773 
   73300   -253.14977    39.992693   -213.15708    2891.5602    199498.64    10.472245    1042.7424 
   73400   -255.21674    37.429858   -217.78688    2706.2615    192009.13    10.472245    1049.2756 
   73500   -258.07228     35.83033   -222.24195    2590.6121    180776.51    10.472245      1048.35 
   73600    -250.7395    40.880429   -209.85907    2955.7454    201830.51    10.472245    1049.1144 
   73700    -259.4177     41.25338   -218.16432    2982.7106    183415.05    10.472245    1054.5466 
   73800   -257.73312    40.677864   -217.05525    2941.0996    183181.22    10.472245    1059.5761 
   73900   -249.87864    42.463203   -207.41544    3070.1835    208876.89    10.472245    1067.0732 
   74000   -256.57936    39.152152   -217.42721    2830.7872    191678.05    10.472245    1065.8563 
   74100   -257.80333    41.230922   -216.57241    2981.0869    184770.48    10.472245    1066.8237 
   74200   -256.60415     41.37044   -215.23371    2991.1743    188989.69    10.472245     1071.463 
   74300   -256.83362    37.771319    -219.0623    2730.9499    187668.39    10.472245    1081.2656 
   74400   -259.42527    42.538458   -216.88681    3075.6246    180521.98    10.472245    1079.7175 
   74500   -256.15484    46.629793   -209.52505    3371.4372    195668.14    10.472245    1084.8954 
   74600   -255.25862    36.033086   -219.22553    2605.2719     190337.6    10.472245    1096.1756 
   74700   -250.79384    40.214671   -210.57917    2907.6097     206076.2    10.472245    1103.6794 
   74800   -253.81961     42.50765   -211.31196    3073.3971    197343.91    10.472245    1107.6496 
   74900   -253.55122    36.613021   -216.93819    2647.2024     193713.3    10.472245    1113.2158 
   75000   -258.14731    42.221768   -215.92554    3052.7272    187168.04    10.472245    1119.3874 
   75100   -250.52493    34.705113   -215.81982    2509.2564    200251.89    10.472245    1125.2335 
   75200   -252.79636    40.737261   -212.05909    2945.3941    199893.83    10.472245    1125.9616 
   75300   -254.45364    38.600405   -215.85323    2790.8947    193202.32    10.472245    1125.5207 
   75400   -262.51946    43.077787   -219.44167    3114.6193    170669.42    10.472245    1121.5801 
   75500    -255.4225    46.162873   -209.25963    3337.6779    193193.35    10.472245    1124.3649 
   75600   -254.91977    34.706519   -220.21325    2509.3581    188804.87    10.472245    1127.1871 
   75700   -255.06477    41.123392   -213.94137    2973.3122    193770.28    10.472245    1129.5037 
   75800    -251.0323    39.431579   -211.60073    2850.9904    203434.98    10.472245    1133.5364 
   75900    -258.6388    38.391298    -220.2475    2775.7758    181696.35    10.472245    1141.2795 
   76000   -255.66342    40.399244   -215.26418    2920.9547    190974.83    10.472245    1132.7085 
   76100   -253.50629    42.080076   -211.42621    3042.4825    198604.55    10.472245    1121.8239 
   76200   -258.38586    37.920761    -220.4651    2741.7549    181807.78    10.472245    1123.9344 
   76300   -253.26327     36.88612   -216.37715    2666.9481    199924.21    10.472245    1124.9246 
   76400   -251.15997    40.199648   -210.96032    2906.5234    200986.41    10.472245    1132.4201 
   76500    -256.6573    40.911387   -215.74592    2957.9838    187871.22    10.472245     1130.425 
   76600    -257.8195    38.603168   -219.21633    2791.0944    181941.74    10.472245    1135.2676 
   76700   -249.17726    34.383301   -214.79396    2485.9887    206637.88    10.472245     1135.081 
   76800   -254.61304    40.448262   -214.16477    2924.4988    195531.47    10.472245    1144.6898 
   76900   -258.61303    37.721518   -220.89151    2727.3492    176306.06    10.472245    1144.3659 
   77000   -256.14825    39.242746   -216.90551    2837.3373    186473.68    10.472245    1143.8179 
   77100   -255.38534    42.177853   -213.20748    3049.5521    192695.44    10.472245    1139.9643 
   77200    -257.8466    35.951419   -221.89519    2599.3671    181496.65    10.472245    1143.5828 
   77300   -259.14851    32.825883   -226.32263    2373.3839    176327.67    10.472245    1147.8899 
   77400   -255.49803     40.71223    -214.7858    2943.5843    190201.89    10.472245    1146.0768 
   77500   -251.70218    38.625233   -213.07695    2792.6898    202742.54    10.472245    1140.9129 
   77600   -254.69808    33.020206   -221.67788     2387.434    188591.67    10.472245    1147.3289 
   77700   -253.28053     37.83851   -215.44202     2735.808    198157.71    10.472245    1149.9376 
   77800   -258.64188    41.018163   -217.62372    2965.7039    181226.21    10.472245    1157.3388 
   77900   -255.66758    35.510949   -220.15663    2567.5202    186205.09    10.472245    1156.2155 
   78000    -251.7858    35.878992    -215.9068    2594.1305    198401.08    10.472245    1154.7645 
[...]
   81400   -252.79253     35.40045   -217.39208    2559.5309     194570.6    10.472245    1197.0943 
   81500   -255.99929    41.508348   -214.49095    3001.1454    188296.44    10.472245    1195.3034 
   81600   -253.27609    32.876985    -220.3991    2377.0787    190232.81    10.472245    1193.5997 
   81700   -254.08894    36.251083   -217.83785    2621.0335    194504.11    10.472245    1194.1977 
   81800   -255.18697    39.976669    -215.2103    2890.4016    189525.36    10.472245    1196.5398 
   81900   -252.63554    45.735275   -206.90026    3306.7615    202908.22    10.472245    1198.4199 
   82000   -257.07293    40.183663   -216.88927    2905.3677    189523.26    10.472245    1195.7413 
   82100   -257.22054    38.308979   -218.91156    2769.8239     183062.6    10.472245    1187.7527 
   82200   -255.27874     39.50979   -215.76895    2856.6452    189661.75    10.472245    1192.5002 
   82300   -254.32835    38.122897   -216.20545    2756.3698    189654.75    10.472245    1190.9273 
   82400   -251.64727    32.354359   -219.29291    2339.2917    192703.52    10.472245    1188.7994 
   82500    -251.2045    36.202707    -215.0018    2617.5358    200680.89    10.472245    1191.3905 
   82600   -255.44367    32.622143   -222.82153    2358.6531    189517.16    10.472245    1197.1071 
   82700    -257.6336    37.578895    -220.0547    2717.0372    181572.15    10.472245    1192.8711 
   82800   -255.16274    39.447663   -215.71508    2852.1533    190817.96    10.472245     1190.421 
   82900   -257.37425    51.176895   -206.19736    3700.2027    189156.73    10.472245    1186.1175 
   83000   -255.93405    38.208071   -217.72598    2762.5281    190537.85    10.472245    1193.7242 
   83100   -253.17554    39.129844    -214.0457    2829.1743    194875.97    10.472245    1192.2504 
   83200   -251.92109    42.517575   -209.40352    3074.1147     203902.1    10.472245    1195.0499 
   83300   -255.34444    36.763538    -218.5809    2658.0851    188718.28    10.472245    1197.8049 
   83400   -257.84123    44.873872   -212.96736    3244.4802    186251.86    10.472245    1191.7554 
   83500   -258.02115    34.527817   -223.49333    2496.4376    182104.98    10.472245     1194.373 
   83600   -253.04523    35.560041   -217.48519    2571.0696    200957.22    10.472245    1203.3755 
   83700   -252.79937    37.315953   -215.48342    2698.0259    196673.02    10.472245    1194.3428 
   83800   -258.80548    33.387991   -225.41749    2414.0256    177094.21    10.472245    1191.0394 
   83900   -256.73851    38.118007    -218.6205    2756.0162    188126.86    10.472245    1197.0139 
   84000   -254.04515    38.220911   -215.82424    2763.4564    190713.48    10.472245    1198.0088 
   84100   -253.75193    40.603617   -213.14831    2935.7313    193644.56    10.472245    1195.6262 
   84200   -255.54998    35.359545   -220.19043    2556.5733    193062.31    10.472245    1206.4748 
   84300    -254.7431    37.436713   -217.30639    2706.7571    193187.48    10.472245    1210.1421 
   84400   -250.36155     38.32025    -212.0413    2770.6388    207194.81    10.472245    1211.9241 
   84500   -254.99615    34.575065   -220.42108    2499.8537    191633.18    10.472245    1211.4913 
   84600   -251.07045    34.284848    -216.7856    2478.8703    196879.21    10.472245    1206.6633 
   84700   -257.46842    42.283995   -215.18443    3057.2264     182948.1    10.472245     1210.795 
   84800   -257.29293     37.96943    -219.3235    2745.2737    182735.38    10.472245    1216.9649 
   84900   -251.23583    35.952426   -215.28341      2599.44    196269.26    10.472245    1218.5883 
   85000   -251.80579    40.370533   -211.43526    2918.8788    199077.37    10.472245    1218.5924 
   85100   -259.92806    37.836408   -222.09165     2735.656    176307.64    10.472245      1213.06 
   85200   -248.64733    35.072949   -213.57438    2535.8518    210098.45    10.472245    1223.3432 
   85300   -255.10823    39.507115   -215.60111    2856.4518    192235.44    10.472245    1228.6675 
   85400   -258.00829    35.455998    -222.5523    2563.5471    180508.35    10.472245    1228.5796 
   85500   -261.55057    37.863921   -223.68665    2737.6452     174003.4    10.472245    1222.8586 
   85600   -255.68435    40.085324   -215.59903    2898.2576    194341.11    10.472245    1221.4722 
   85700   -252.50227    34.385291   -218.11698    2486.1326    192622.69    10.472245    1224.5589 
   85800    -262.7838    40.881004   -221.90279     2955.787    170745.39    10.472245    1236.7054 
   85900    -252.9875    40.647442   -212.34006       2938.9    200465.83    10.472245    1242.3677 
   86000   -254.77544     37.72581   -217.04963    2727.6595    193149.01    10.472245    1235.0781 
   86100   -260.55784    35.619359   -224.93848    2575.3584    175609.83    10.472245    1237.2254 
   86200    -256.1725    40.409863   -215.76263    2921.7225    187644.64    10.472245    1237.6306 
   86300    -255.5007    38.140668   -217.36003    2757.6547    185364.96    10.472245    1235.2606 
   86400   -261.17624    35.803083   -225.37316    2588.6421    171425.41    10.472245    1227.6037 
   86500   -257.03687    41.209346   -215.82753    2979.5268    188609.69    10.472245    1230.7741 
   86600   -257.63955    37.795066   -219.84448    2732.6669    185925.98    10.472245     1228.593 
   86700   -251.06591    34.555052   -216.51085    2498.4067    202714.39    10.472245    1220.6192 
   86800   -249.11592    34.657805   -214.45811    2505.8359    202916.67    10.472245    1227.5692 
   86900   -258.84253    37.092063   -221.75046    2681.8382    176981.48    10.472245    1235.4219 
   87000   -259.03808    32.296123   -226.74196    2335.0811    172772.47    10.472245    1238.6112 
   87100   -251.02579    34.679287    -216.3465    2507.3892    198336.15    10.472245    1236.4808 
   87200   -255.60278    38.618859   -216.98392    2792.2289    188104.64    10.472245    1237.2546 
   87300   -256.90402    33.194666   -223.70935    2400.0478    181293.79    10.472245    1239.2767 
   87400   -257.51169    40.313842   -217.19785      2914.78    185617.73    10.472245    1246.1704 
   87500   -252.81893    39.758104   -213.06083    2874.5989    197786.83    10.472245    1243.4227 
   87600   -247.27727    38.676328   -208.60094    2796.3841     216200.9    10.472245     1253.864 
   87700   -255.54491    37.038311    -218.5066    2677.9518    184941.97    10.472245     1250.885 
   87800   -255.26748    41.544223   -213.72326    3003.7392    187890.64    10.472245    1258.4927 
   87900   -251.01308    42.600933   -208.41215    3080.1417    206872.86    10.472245    1261.2127 
   88000   -253.67211    37.565623   -216.10649    2716.0777    192502.93    10.472245    1262.7901 
   88100   -258.47758    37.920806   -220.55677    2741.7582    182773.33    10.472245     1265.631 
   88200   -265.19589    40.404194   -224.79169    2921.3126    160763.17    10.472245    1268.6686 
   88300   -255.80291    38.630174   -217.17273     2793.047    191084.14    10.472245    1277.5658 
   88400   -253.46773    38.101404   -215.36633    2754.8158    193780.87    10.472245    1277.5158 
   88500   -254.48997    44.273382   -210.21658    3201.0634     194885.4    10.472245    1283.2123 
   88600   -259.45868    39.659153   -219.79953    2867.4445    181067.59    10.472245    1283.7179 
   88700   -257.23415     35.17625    -222.0579    2543.3207    179543.16    10.472245    1287.1306 
   88800    -252.8989    37.277051   -215.62185    2695.2132    191932.34    10.472245    1286.4636 
   88900   -254.93656    44.287545   -210.64901    3202.0874    201908.73    10.472245    1282.0759 
   89000   -254.84631    36.426198   -218.42011    2633.6947    192689.07    10.472245    1283.3679 
   89100   -250.93525    37.073317   -213.86193    2680.4828    201121.22    10.472245    1286.7991 
   89200   -253.12978    41.739893   -211.38989    3017.8866    198388.46    10.472245    1278.1019 
   89300   -253.34905    35.694874   -217.65418    2580.8183    193614.56    10.472245    1279.3552 
   89400   -249.16892    39.194562   -209.97435    2833.8535    209061.73    10.472245    1273.9155 
   89500   -255.95936    38.583184   -217.37618    2789.6495    187164.14    10.472245    1269.8093 
   89600   -253.48462    36.574947   -216.90968    2644.4496    197334.05    10.472245    1259.5253 
   89700   -250.26264     39.31268   -210.94996    2842.3938    208437.79    10.472245    1258.3871 
   89800   -256.91692    36.343766   -220.57315    2627.7347    187073.74    10.472245    1270.9817 
   89900   -252.84009    44.138081   -208.70201    3191.2809    199930.54    10.472245    1268.7315 
   90000   -255.52933    38.510257   -217.01907    2784.3768    187658.48    10.472245    1270.4587 
   90100   -259.52841    39.642904   -219.88551    2866.2697    176908.74    10.472245    1273.9978 
   90200   -251.84459    42.846287   -208.99831    3097.8813    200911.09    10.472245    1273.5093 
   90300   -256.47194    42.726912   -213.74503    3089.2503    190156.22    10.472245    1273.5897 
   90400     -253.646    35.006509   -218.63949     2531.048    196614.16    10.472245    1280.6507 
   90500   -248.07239    39.409622   -208.66277    2849.4028    213973.87    10.472245    1284.4836 
   90600   -254.18603    38.633104   -215.55293    2793.2589    190819.09    10.472245    1289.4266 
   90700   -253.66645    35.860571   -217.80588    2592.7986    194167.39    10.472245     1291.924 
   90800   -246.58255    39.235012   -207.34754    2836.7782    217315.76    10.472245    1295.0098 
   90900   -251.24887    36.266786   -214.98208    2622.1689    200607.58    10.472245    1297.1893 
   91000   -252.47143    36.830112   -215.64131    2662.8986    199804.71    10.472245    1300.9146 
   91100   -251.89405    39.206911   -212.68714    2834.7464    200777.89    10.472245    1305.6357 
   91200   -254.04357    37.664782   -216.37879     2723.247    190964.64    10.472245    1311.4171 
   91300   -257.90594      37.8456   -220.06034    2736.3206    184344.96    10.472245    1320.3239 
   91400   -252.58398     41.31508    -211.2689    2987.1717     199928.9    10.472245    1322.1003 
   91500   -255.63822    34.135903   -221.50232    2468.1013    186666.78    10.472245    1318.1899 
   91600   -257.40426    36.767781   -220.63648    2658.3919    183382.49    10.472245    1321.0466 
   91700   -253.01904    39.311955   -213.70708    2842.3413    194811.58    10.472245    1316.4963 
   91800   -250.33632    41.450826   -208.88549    2996.9864     208256.2    10.472245    1310.9076 
   91900    -257.9628    38.406774   -219.55603    2776.8947     182355.7    10.472245    1308.7095 
   92000   -257.39323    37.727732    -219.6655    2727.7985    186496.06    10.472245    1308.5681 
   92100   -250.91059    41.139628   -209.77096    2974.4861    203076.78    10.472245    1308.4061 
   92200   -257.61516    40.558405   -217.05675    2932.4624    187803.44    10.472245     1308.537 
   92300   -255.61641     36.30427   -219.31214     2624.879    189718.83    10.472245    1310.6623 
   92400   -252.28262    36.108927    -216.1737    2610.7553    197570.71    10.472245    1315.2932 
   92500   -251.04292    41.134301   -209.90862     2974.101     206038.1    10.472245    1321.0753 
   92600   -255.63482    33.835373   -221.79945    2446.3723    188929.24    10.472245     1324.232 
   92700   -257.64029    42.646483   -214.99381     3083.435    184577.26    10.472245    1325.5798 
   92800   -251.03907     40.04043   -210.99864    2895.0117    206301.47    10.472245      1327.15 
   92900   -256.37432    40.435476   -215.93884    2923.5743    191814.24    10.472245    1326.7514 
   93000   -253.51974     33.76206   -219.75768    2441.0716    189964.48    10.472245    1321.3585 
   93100   -253.76973    44.548861   -209.22087    3220.9812    201763.35    10.472245    1314.3271 
   93200   -255.78325    39.761433   -216.02181    2874.8395    190765.35    10.472245    1317.7862 
   93300   -260.39854    42.340751   -218.05779      3061.33    179926.56    10.472245    1315.3124 
   93400   -253.94079    42.675661   -211.26513    3085.5447    194906.96    10.472245    1315.0648 
   93500   -257.85761    35.622112   -222.23549    2575.5575    183066.86    10.472245    1319.1284 
   93600    -254.8244     39.45267   -215.37173    2852.5153    192780.82    10.472245    1322.6709 
   93700   -252.86797    38.807669    -214.0603    2805.8803    195448.69    10.472245    1324.9307 
   93800   -253.93464    30.091195   -223.84345      2175.66     189256.1    10.472245    1334.3691 
   93900   -250.98777    39.809516   -211.17826     2878.316    202355.82    10.472245    1337.6471 
   94000   -260.35709     40.91256   -219.44453    2958.0686    176248.97    10.472245     1335.477 
   94100   -253.58662    36.557794   -217.02882    2643.2093    193832.52    10.472245    1335.7064 
   94200   -252.69615    45.867699   -206.82845    3316.3361    203351.67    10.472245    1334.2482 
   94300   -255.15408    40.195403   -214.95868    2906.2166    193240.02    10.472245     1346.236 
   94400   -255.99957    38.261477    -217.7381    2766.3894    189959.57    10.472245    1352.4785 
   94500    -248.7852    42.065923   -206.71928    3041.4593    212970.49    10.472245    1352.0033 
   94600   -251.05558    36.633307   -214.42228    2648.6691    202010.62    10.472245    1351.3972 
   94700   -258.59315    42.578398   -216.01475    3078.5123     184108.4    10.472245    1347.1718 
   94800   -253.44207    31.565042   -221.87702    2282.2224    193535.14    10.472245    1352.6122 
   94900   -253.14577    36.247075   -216.89869    2620.7437    195340.67    10.472245    1350.5661 
   95000   -255.67377    40.125594   -215.54818    2901.1692    190715.91    10.472245    1344.8629 
   95100   -253.77776    32.141929   -221.63583    2323.9326    190246.37    10.472245    1350.5245 
   95200   -249.32677    38.102587   -211.22419    2754.9014    205895.81    10.472245    1349.6054 
   95300   -257.63902    38.743119   -218.89591    2801.2132    179303.51    10.472245     1360.177 
   95400   -256.46451    37.461087   -219.00342    2708.5194       189922    10.472245    1362.6266 
   95500   -252.53049    43.971286    -208.5592    3179.2213    204475.57    10.472245    1353.4006 
   95600   -254.97575    39.383142   -215.59261    2847.4882    187679.88    10.472245     1356.684 
   95700   -251.07182    39.080385   -211.99143    2825.5983    203750.39    10.472245    1352.1246 
   95800   -253.51702     41.45136   -212.06566     2997.025    191785.95    10.472245    1352.1888 
   95900   -256.44913     37.58919   -218.85994    2717.7816     188804.8    10.472245    1352.7865 
   96000   -249.85404    40.820355   -209.03369     2951.402     211271.7    10.472245    1350.8418 
   96100   -249.52981    37.115248   -212.41456    2683.5145    203349.26    10.472245    1353.4388 
   96200   -257.55928    41.724035   -215.83525      3016.74     184699.8    10.472245    1365.1031 
   96300   -259.09101    34.125442   -224.96557    2467.3449    177124.15    10.472245    1371.1156 
   96400   -260.40654    42.848693   -217.55785    3098.0553     178993.3    10.472245    1363.9619 
   96500   -249.26155    33.128815   -216.13274    2395.2866    200021.83    10.472245    1356.2428 
   96600   -253.04323    46.696494   -206.34674    3376.2598    203175.66    10.472245    1363.3263 
   96700   -251.62242    39.322028   -212.30039    2843.0696    199415.22    10.472245    1368.8152 
   96800   -256.59047    41.074075   -215.51639    2969.7465    186954.78    10.472245     1374.847 
   96900   -258.82757    37.251593   -221.57598    2693.3726    183353.65    10.472245    1383.6188 
   97000   -257.67549    40.527246   -217.14824    2930.2095    184175.61    10.472245    1383.9889 
   97100   -255.77835    41.908694   -213.86965    3030.0913    194399.49    10.472245    1383.9169 
   97200   -255.82895    36.478241   -219.35071    2637.4575    187387.51    10.472245    1389.3545 
   97300   -261.24352    42.160892   -219.08263    3048.3257    175700.74    10.472245    1382.9988 
   97400   -251.47295    40.270897   -211.20205    2911.6749    200532.19    10.472245    1378.8791 
   97500   -259.06256    39.211797   -219.85076    2835.0996    179559.72    10.472245    1382.2123 
   97600   -252.99126    35.276526   -217.71474    2550.5708    197230.66    10.472245     1382.168 
   97700   -252.81929    38.991635   -213.82766    2819.1815    197907.21    10.472245    1382.2098 
   97800   -262.19017    40.757583   -221.43259    2946.8634    173340.05    10.472245    1381.3358 
   97900   -249.39335    40.859256    -208.5341    2954.2146    209905.15    10.472245    1381.4957 
   98000    -257.7207    41.391547   -216.32915    2992.7004    185960.81    10.472245    1388.6763 
   98100   -256.92336    37.311728   -219.61163    2697.7204    181557.57    10.472245    1394.2318 
   98200   -248.61188    41.780153   -206.83173    3020.7975    211203.97    10.472245    1387.7352 
   98300   -258.88698    42.674836   -216.21215     3085.485    180621.84    10.472245    1395.6674 
   98400   -256.06029    35.883836   -220.17646    2594.4807    187052.12    10.472245    1393.7813 
   98500   -252.48551    40.633517   -211.85199    2937.8931    200159.43    10.472245    1385.8244 
   98600   -254.59482    38.917271   -215.67754    2813.8048    190358.85    10.472245    1387.6434 
   98700   -255.51687    35.367549   -220.14932     2557.152    185815.55    10.472245    1388.4037 
   98800   -247.59955    38.995774   -208.60378    2819.4807    212091.25    10.472245    1394.5345 
   98900   -254.58016    37.197127   -217.38303    2689.4345    195943.55    10.472245     1392.161 
   99000   -254.02961    35.084956   -218.94465    2536.7199    189626.92    10.472245    1384.1283 
   99100    -251.0438    39.424043   -211.61976    2850.4455    206558.66    10.472245     1386.105 
   99200   -255.00621    41.764129   -213.24209    3019.6389     194820.9    10.472245    1396.2087 
   99300   -257.06629    35.067801   -221.99848    2535.4796    183935.71    10.472245    1403.6176 
   99400   -255.89631    42.219055   -213.67726     3052.531    189346.94    10.472245    1401.4778 
   99500     -257.626    32.986842   -224.63916    2385.0217    179081.45    10.472245    1407.0783 
   99600   -255.97885    37.509202   -218.46965    2711.9982    191880.81    10.472245    1413.6301 
   99700   -259.34318    44.625222   -214.71796    3226.5022    180162.73    10.472245     1416.452 
   99800   -257.15246    32.191461     -224.961    2327.5138     182631.3    10.472245    1425.6227 
   99900   -253.68129    34.001737   -219.67955    2458.4008    191110.21    10.472245    1428.5918 
  100000   -250.89928    40.207445   -210.69183    2907.0872    206329.88    10.472245    1436.2582 
Loop time of 31.4526 on 1 procs for 100000 steps with 108 atoms

Performance: 1373.493 ns/day, 0.017 hours/ns, 3179.383 timesteps/s
100.0% CPU use with 1 MPI tasks x no OpenMP threads

MPI task timing breakdown:
Section |  min time  |  avg time  |  max time  |%varavg| %total
---------------------------------------------------------------
Pair    | 18.493     | 18.493     | 18.493     |   0.0 | 58.80
Neigh   | 1.5572     | 1.5572     | 1.5572     |   0.0 |  4.95
Comm    | 0.57422    | 0.57422    | 0.57422    |   0.0 |  1.83
Output  | 0.017959   | 0.017959   | 0.017959   |   0.0 |  0.06
Modify  | 10.727     | 10.727     | 10.727     |   0.0 | 34.11
Other   |            | 0.08345    |            |       |  0.27

Nlocal:    108 ave 108 max 108 min
Histogram: 1 0 0 0 0 0 0 0 0 0
Nghost:    1079 ave 1079 max 1079 min
Histogram: 1 0 0 0 0 0 0 0 0 0
Neighs:    5648 ave 5648 max 5648 min
Histogram: 1 0 0 0 0 0 0 0 0 0

Total # of neighbors = 5648
Ave neighs/atom = 52.2963
Neighbor list builds = 6714
Dangerous builds = 49
Total wall time: 0:00:31
