LAMMPS (3 Mar 2020)
Reading data file ...
  orthogonal box = (0 0 0) to (20.45 20.45 20.45)
  1 by 1 by 1 MPI processor grid
  reading atoms ...
  500 atoms
  read_data CPU = 0.00123595 secs
Reading potential file /usr/share/lammps-stable/potentials/Ag_u3.eam with DATE: 2007-06-11
Neighbor list info ...
  update every 1 steps, delay 10 steps, check yes
  max neighbors/atom: 2000, page size: 100000
  master list distance cutoff = 7.55
  ghost atom cutoff = 7.55
  binsize = 3.775, bins = 6 6 6
  2 neighbor lists, perpetual/occasional/extra = 1 1 0
  (1) pair eam, perpetual
      attributes: half, newton on
      pair build: half/bin/atomonly/newton
      stencil: half/bin/3d/newton
      bin: standard
  (2) compute rdf, occasional, copy from (1)
      attributes: half, newton on
      pair build: copy
      stencil: none
      bin: none
Setting up Verlet run ...
  Unit style    : metal
  Current step  : 0
  Time step     : 0.005
Per MPI rank memory allocation (min/avg/max) = 3.769 | 3.769 | 3.769 Mbytes
Step PotEng KinEng TotEng Temp Press Density c_msdall[4] 
       0        -1425    116.10146   -1308.8985         1800    14500.237    10.472245            0 
     100   -1350.3271    74.038305   -1276.2888    1147.8662    64932.455    10.472245  0.089564685 
     200   -1327.0905     102.4093   -1224.6812    1587.7211     84486.54    10.472245   0.14832151 
     300   -1309.5546    128.71457     -1180.84    1995.5496    99348.608    10.472245   0.14216107 
     400    -1307.456    120.90377   -1186.5522    1874.4535    99721.084    10.472245   0.16311751 
     500   -1309.7358    105.29392   -1204.4419    1632.4434    96050.295    10.472245   0.15065156 
     600   -1306.3649     117.3492   -1189.0157    1819.3445    100653.86    10.472245   0.15956922 
     700   -1301.1515    115.49805   -1185.6535    1790.6449     103018.1    10.472245   0.17692663 
     800   -1313.4113    113.15296   -1200.2584    1754.2874    95848.245    10.472245   0.14423822 
     900   -1308.6688    117.98554   -1190.6833    1829.2102      99188.5    10.472245   0.14745827 
    1000   -1303.6421    118.07566   -1185.5665    1830.6073    101790.98    10.472245     0.168831 
    1100   -1306.8614    109.10657   -1197.7548    1691.5534    100417.52    10.472245   0.16847474 
    1200   -1308.7564    117.80826   -1190.9481    1826.4617    98972.716    10.472245   0.14600967 
    1300   -1304.1542    116.83502   -1187.3192    1811.3728     101533.7    10.472245   0.17033703 
    1400   -1309.4947    108.55516   -1200.9395    1683.0045    96761.808    10.472245   0.17789877 
    1500   -1305.8341    120.22387   -1185.6102    1863.9125    100129.58    10.472245   0.18098348 
    1600   -1299.5148    110.53486     -1188.98    1713.6972    104446.36    10.472245   0.16650675 
    1700   -1309.0872     109.5678   -1199.5194    1698.7042    97120.655    10.472245   0.16633805 
    1800   -1300.2915    116.95334   -1183.3381    1813.2072     104145.2    10.472245   0.17735026 
    1900   -1307.9252    116.07888   -1191.8464    1799.6499    99354.991    10.472245   0.16281731 
    2000    -1308.374    113.41998    -1194.954    1758.4271    98401.131    10.472245   0.16043326 
    2100   -1305.3158    115.43919   -1189.8766    1789.7324    101729.67    10.472245   0.14421064 
    2200   -1308.0355    116.40885   -1191.6267    1804.7656    99088.495    10.472245   0.15647083 
    2300   -1300.8907    110.25453   -1190.6362    1709.3511    102870.09    10.472245   0.18494921 
    2400   -1307.6541    116.79686   -1190.8572    1810.7812    99427.503    10.472245   0.15855961 
    2500   -1314.9865    120.27812   -1194.7084    1864.7536    95276.296    10.472245   0.13700134 
    2600   -1311.0123     111.0351   -1199.9772    1721.4527     96446.72    10.472245   0.15238598 
    2700   -1300.9331    115.46266   -1185.4704    1790.0962    104216.41    10.472245   0.17739654 
    2800   -1308.9256    113.96849   -1194.9571    1766.9311    97463.883    10.472245   0.15855087 
    2900   -1311.9318    113.86271   -1198.0691    1765.2911    96246.928    10.472245   0.15848349 
    3000    -1303.767    112.03473   -1191.7323    1736.9506    100987.77    10.472245    0.1697141 
    3100   -1302.7545    126.27945    -1176.475    1957.7963    104054.07    10.472245   0.15640553 
    3200   -1308.0209    115.31274   -1192.7082     1787.772    98765.579    10.472245   0.15229595 
    3300   -1312.3245    117.41075   -1194.9138    1820.2988    96699.126    10.472245   0.14765703 
    3400   -1300.9657    115.50173   -1185.4639    1790.7019    103839.16    10.472245    0.1684504 
    3500   -1306.5244     112.5997   -1193.9247    1745.7098    98404.374    10.472245   0.17798818 
    3600   -1307.8625    110.13007   -1197.7324    1707.4215    98247.027    10.472245   0.17276802 
    3700    -1307.426    120.87575   -1186.5503     1874.019    100073.46    10.472245   0.15140362 
    3800   -1308.9122    114.73828   -1194.1739    1778.8656    98801.577    10.472245   0.17212652 
    3900   -1314.3966    115.85498   -1198.5416    1796.1786    95160.956    10.472245   0.15837749 
    4000   -1303.4178    115.57621   -1187.8416    1791.8566    101725.95    10.472245   0.16396011 
    4100     -1305.72    116.46322   -1189.2568    1805.6086    101061.03    10.472245   0.17258367 
    4200   -1315.4426    115.60938   -1199.8332    1792.3709    94571.577    10.472245   0.13546159 
    4300   -1305.4062    116.34253   -1189.0636    1803.7375    101031.08    10.472245   0.15097883 
    4400   -1306.6012    116.50669   -1190.0945    1806.2826    100360.15    10.472245    0.1662143 
    4500   -1309.8507    117.01044   -1192.8403    1814.0925    98416.602    10.472245   0.15575223 
    4600   -1316.2288    115.19724   -1201.0315    1785.9813    92844.954    10.472245   0.13687827 
    4700   -1305.1418    117.10486   -1188.0369    1815.5564    101012.61    10.472245   0.17165888 
    4800   -1305.2074    117.65543    -1187.552    1824.0922    101204.66    10.472245   0.16064641 
    4900   -1314.5211    115.03815    -1199.483    1783.5148    93938.512    10.472245    0.1446886 
    5000   -1325.8082    115.26554   -1210.5427    1787.0401    86559.746    10.472245   0.12638761 
    5100   -1311.1581     117.8049   -1193.3532    1826.4096    97112.242    10.472245   0.16028415 
    5200   -1297.6022    110.77152   -1186.8307    1717.3663    105941.88    10.472245    0.1973367 
    5300   -1310.6319    113.91808   -1196.7138    1766.1495    96555.555    10.472245   0.14561656 
    5400   -1309.1629    112.31047   -1196.8525    1741.2257    98029.778    10.472245   0.14531887 
    5500   -1304.4916    114.10844   -1190.3832    1769.1008    101113.58    10.472245   0.18321884 
    5600    -1303.264    112.24463   -1191.0194    1740.2048    102443.75    10.472245   0.16709238 
    5700   -1312.7034      107.957   -1204.7464    1673.7308    94575.128    10.472245   0.15523857 
    5800   -1309.4733    114.51058   -1194.9627    1775.3355    98397.708    10.472245   0.16166731 
    5900   -1308.3417    118.80608   -1189.5356    1841.9316    98498.479    10.472245    0.1702357 
    6000   -1310.3339    110.82797    -1199.506    1718.2414    97005.708    10.472245   0.15786922 
    6100   -1309.5096    111.93002   -1197.5796    1735.3272    97932.781    10.472245   0.14914358 
    6200   -1305.8205    114.11153    -1191.709    1769.1487    100023.58    10.472245   0.16484144 
    6300   -1305.6468    112.16038   -1193.4864    1738.8987    100488.24    10.472245   0.16116841 
    6400   -1308.4425    114.73528   -1193.7072    1778.8192    98535.229    10.472245   0.16853168 
    6500   -1301.7353     116.9078   -1184.8275    1812.5012     102906.1    10.472245   0.19714224 
    6600   -1307.5542    112.98526   -1194.5689    1751.6874    98226.756    10.472245   0.17296802 
    6700   -1308.2693    113.46467   -1194.8046    1759.1201    98983.669    10.472245   0.15776378 
    6800   -1309.0345    123.06628   -1185.9682    1907.9803    98395.515    10.472245   0.20402312 
    6900    -1303.672    113.02257   -1190.6494    1752.2658    101245.79    10.472245   0.18344094 
    7000   -1312.8409    119.03921   -1193.8017    1845.5459    95640.067    10.472245   0.16636674 
    7100   -1309.3845    111.61215   -1197.7723    1730.3992    97258.477    10.472245   0.18009292 
    7200   -1307.0411    121.95467   -1185.0865    1890.7462    99844.462    10.472245   0.16484002 
    7300   -1311.9368    114.54211   -1197.3947    1775.8243    96106.742    10.472245   0.15965322 
    7400   -1311.4438    114.60816   -1196.8356    1776.8483    97362.867    10.472245   0.16173493 
    7500   -1306.1803    119.52118   -1186.6592    1853.0181    100648.33    10.472245   0.16651622 
    7600   -1312.2935    117.76607   -1194.5275    1825.8076    97046.346    10.472245   0.16301932 
    7700    -1312.017    112.73077   -1199.2862    1747.7419    95690.113    10.472245   0.15296809 
    7800   -1306.0122    117.73028    -1188.282    1825.2527    101540.82    10.472245   0.17520487 
    7900   -1306.9979    112.92447   -1194.0734    1750.7449    99835.299    10.472245   0.16614331 
    8000   -1317.2643    109.71647   -1207.5478    1701.0091    92305.781    10.472245   0.14987216 
    8100   -1312.3827     122.8315   -1189.5512    1904.3403     97001.48    10.472245    0.1534208 
    8200   -1308.5167    119.45078   -1189.0659    1851.9268    98803.269    10.472245   0.17084927 
    8300   -1308.6061    109.68852   -1198.9176    1700.5758     97284.24    10.472245   0.19742639 
    8400   -1303.3933    117.24731    -1186.146    1817.7648    103131.68    10.472245   0.16448461 
    8500   -1304.7611    116.43094   -1188.3302    1805.1082    101383.35    10.472245   0.15484614 
    8600   -1312.7826    116.68278   -1196.0998    1809.0126     95154.16    10.472245    0.1486905 
    8700   -1306.6711     114.1638   -1192.5073     1769.959    100566.87    10.472245   0.16101578 
    8800   -1303.7172      121.819   -1181.8982    1888.6428    103405.12    10.472245   0.16735403 
    8900   -1308.4508    123.48855   -1184.9623    1914.5271    99197.941    10.472245   0.15460965 
    9000   -1306.6345    111.98532   -1194.6492    1736.1847    98776.438    10.472245    0.1879554 
    9100   -1300.8009    116.15116   -1184.6497    1800.7705    103689.35    10.472245   0.19899113 
    9200   -1306.4331     123.5204   -1182.9127    1915.0208    101036.18    10.472245   0.16037103 
    9300   -1305.3864    109.17721   -1196.2092    1692.6486    99755.785    10.472245   0.16930263 
    9400   -1306.7436    122.38961    -1184.354    1897.4895    100649.01    10.472245   0.16127961 
    9500    -1309.211    113.30406    -1195.907    1756.6299    98359.177    10.472245   0.18829348 
    9600    -1306.273    110.80683   -1195.4661    1717.9136    99684.293    10.472245   0.17546971 
    9700   -1302.8385    116.01154   -1186.8269    1798.6059    101766.01    10.472245   0.17167537 
    9800   -1312.1714     111.4297   -1200.7417    1727.5705     96362.77    10.472245   0.16117063 
    9900   -1314.7203    116.92115   -1197.7991    1812.7081    94276.139    10.472245   0.15433783 
   10000   -1304.3746    115.75062    -1188.624    1794.5607    100723.77    10.472245   0.16727297 
   10100   -1308.0901    111.09893   -1196.9912    1722.4423    99280.408    10.472245   0.17072015 
   10200   -1309.5219    112.79629   -1196.7256    1748.7577    98302.673    10.472245   0.15231505 
   10300   -1299.9289    112.50574   -1187.4231     1744.253    103862.41    10.472245   0.18149637 
   10400   -1308.7409    114.56556   -1194.1753    1776.1879    98368.569    10.472245   0.15465113 
   10500   -1313.9848    105.99541   -1207.9893     1643.319    93607.472    10.472245   0.15342396 
   10600   -1305.5056     111.7612   -1193.7444      1732.71    100005.83    10.472245   0.16588906 
   10700   -1307.0199    121.13871   -1185.8812    1878.0958    99626.723    10.472245   0.16914679 
   10800   -1309.8991    117.43448   -1192.4646    1820.6667    97305.757    10.472245   0.16009695 
   10900    -1307.995    109.09775   -1198.8973    1691.4167    98832.512    10.472245   0.14627382 
   11000   -1305.8014    117.53649   -1188.2649    1822.2482    101446.11    10.472245   0.15941265 
   11100   -1304.9236    113.92265    -1191.001    1766.2204    101469.91    10.472245   0.15967362 
   11200   -1308.0909    106.56758   -1201.5233    1652.1897    97514.507    10.472245   0.16612788 
   11300   -1315.0462    120.20114   -1194.8451      1863.56    94456.361    10.472245   0.14579482 
   11400   -1305.3744    118.15775   -1187.2166      1831.88     100228.3    10.472245   0.16575201 
   11500   -1310.3974    110.79424   -1199.6031    1717.7185     96149.75    10.472245   0.17942609 
   11600   -1306.9279    122.81605   -1184.1118    1904.1008     100770.8    10.472245   0.14529355 
   11700   -1310.1586    118.95661    -1191.202    1844.2654      97885.7    10.472245   0.16808175 
   11800   -1308.5873    110.88221   -1197.7051    1719.0824    98057.231    10.472245   0.17168106 
   11900   -1301.4611    119.28306   -1182.1781    1849.3265    103764.55    10.472245   0.16451794 
   12000   -1312.1842    118.27221    -1193.912    1833.6546    97444.323    10.472245   0.15684109 
   12100   -1311.2661    115.49987   -1195.7662    1790.6731    96767.446    10.472245   0.17127702 
   12200   -1308.0328    117.09855   -1190.9343    1815.4585    99819.796    10.472245   0.16583097 
   12300   -1302.9009    111.07846   -1191.8225    1722.1249    102404.15    10.472245    0.1660445 
   12400    -1312.913    108.94039   -1203.9726    1688.9771     95169.79    10.472245   0.16322522 
   12500   -1306.1932    116.11269   -1190.0805     1800.174    99655.966    10.472245   0.15919551 
   12600   -1308.5677    115.19634   -1193.3713    1785.9672    98113.708    10.472245    0.1700479 
   12700   -1310.8566     113.5272   -1197.3294    1760.0894    96927.982    10.472245    0.1637951 
   12800   -1297.2014    111.88019   -1185.3212    1734.5547    104881.99    10.472245    0.2085239 
   12900   -1307.5807    119.09398   -1188.4867     1846.395    100501.63    10.472245   0.17033231 
   13000   -1308.2865    112.39314   -1195.8934    1742.5074    97976.101    10.472245   0.17147094 
   13100   -1304.7798    119.08988   -1185.6899    1846.3315    102562.56    10.472245   0.18562012 
   13200   -1307.9626    117.55279   -1190.4098     1822.501    99183.183    10.472245    0.1727002 
   13300   -1307.3853    109.64412   -1197.7412    1699.8875    98146.396    10.472245   0.18670525 
   13400   -1301.4933    116.40141   -1185.0918    1804.6503    103911.87    10.472245   0.17021703 
   13500   -1308.5663    117.49511   -1191.0712    1821.6067    99265.499    10.472245   0.15743891 
   13600   -1302.7566    110.23964    -1192.517    1709.1201    101784.71    10.472245   0.17419028 
   13700   -1305.0546    112.77157   -1192.2831    1748.3744    100619.65    10.472245   0.16471386 
   13800   -1309.2425    117.13498   -1192.1076    1816.0233     97915.97    10.472245   0.14919665 
   13900   -1309.2251    114.41799   -1194.8071       1773.9    97943.689    10.472245    0.1598173 
   14000   -1303.0951    113.45926   -1189.6358    1759.0361    102154.91    10.472245   0.16197361 
   14100   -1303.9572    118.43497   -1185.5223     1836.178    102548.09    10.472245    0.1681433 
   14200   -1310.8137    111.06795   -1199.7457     1721.962    96938.221    10.472245   0.16088934 
   14300   -1311.6958    121.93556   -1189.7602      1890.45    97148.836    10.472245   0.16318307 
   14400   -1305.7941    117.08178   -1188.7123    1815.1986    101765.29    10.472245   0.16811716 
   14500   -1305.2739    111.61742   -1193.6565    1730.4808    100406.82    10.472245   0.17894167 
   14600   -1314.8063    110.73415   -1204.0722    1716.7868    93484.794    10.472245   0.14309788 
   14700   -1308.4207     117.2704   -1191.1503    1818.1229    99230.214    10.472245   0.16928636 
   14800   -1302.5124     115.0292   -1187.4832     1783.376    102604.17    10.472245   0.16646684 
   14900   -1314.5707     113.7837    -1200.787    1764.0662    94065.787    10.472245   0.14496686 
   15000   -1306.0605    120.68285   -1185.3776    1871.0283    101456.15    10.472245   0.16547797 
   15100   -1308.8546    119.07286   -1189.7817    1846.0675    99382.276    10.472245   0.15166926 
   15200   -1310.6177    113.40266   -1197.2151    1758.1587    96924.392    10.472245   0.15724704 
   15300   -1302.3627    121.72288   -1180.6399    1887.1527    103675.93    10.472245   0.17532611 
   15400   -1300.8421     115.1266   -1185.7155     1784.886    103682.51    10.472245   0.17478708 
   15500   -1309.9928    117.05089   -1192.9419    1814.7196    98617.239    10.472245   0.17591393 
   15600   -1306.8372    117.75652   -1189.0807    1825.6595    100668.83    10.472245   0.18388158 
   15700   -1302.8739    122.23712   -1180.6368    1895.1253    103444.25    10.472245   0.18570944 
   15800   -1308.9406    112.29349   -1196.6471    1740.9624    98282.009    10.472245   0.17215845 
   15900   -1306.3356    117.05609   -1189.2795    1814.8002     100611.9    10.472245   0.15738726 
   16000   -1309.9862    120.53456   -1189.4517    1868.7293    98106.462    10.472245   0.16106424 
   16100   -1307.8502    116.11184   -1191.7384    1800.1609    99223.358    10.472245   0.15276231 
   16200   -1306.7496    114.66409   -1192.0856    1777.7154    99296.445    10.472245   0.16538757 
   16300   -1308.9164     118.6066   -1190.3098    1838.8389    99141.002    10.472245   0.15639372 
   16400   -1306.1659    114.79745   -1191.3684    1779.7831    99738.353    10.472245   0.16225574 
   16500   -1313.2931    110.30586   -1202.9872    1710.1469    95169.394    10.472245   0.14485361 
   16600   -1309.3753    123.12217   -1186.2531    1908.8467    99226.239    10.472245   0.17874416 
   16700   -1304.5944    114.09624   -1190.4982    1768.9117    100920.25    10.472245   0.16784195 
   16800    -1307.302    109.64937   -1197.6527    1699.9688    98487.505    10.472245   0.18582339 
   16900   -1301.1302    118.43034   -1182.6999    1836.1062    104572.04    10.472245   0.16849701 
   17000   -1308.9033    113.65633   -1195.2469    1762.0914    99257.594    10.472245   0.15126962 
   17100   -1308.7389     117.8596   -1190.8793    1827.2577    98416.219    10.472245   0.16353552 
   17200   -1301.1867    119.09819   -1182.0885    1846.4603     103998.6    10.472245   0.18690619 
   17300   -1309.0894    116.56287   -1192.5265    1807.1535    98381.897    10.472245   0.16072081 
   17400   -1303.6369    112.06295    -1191.574    1737.3882    102187.62    10.472245   0.16644639 
   17500    -1306.014    122.66872   -1183.3453    1901.8167    102126.91    10.472245   0.17540486 
   17600   -1311.2723    117.05812   -1194.2141    1814.8317    97775.655    10.472245   0.16261043 
   17700   -1302.7992    107.79282   -1195.0064    1671.1855    100876.44    10.472245    0.1557126 
   17800   -1300.6073    122.69226    -1177.915    1902.1816    105202.42    10.472245   0.17630826 
   17900    -1303.758    117.70573   -1186.0522    1824.8721     102375.6    10.472245   0.16643441 
   18000   -1306.4195    110.31059   -1196.1089    1710.2202    99611.955    10.472245   0.16043179 
   18100   -1305.6353    116.43768   -1189.1976    1805.2126    100872.29    10.472245   0.16240935 
   18200   -1305.3102    121.41936   -1183.8908     1882.447    102313.82    10.472245   0.16820616 
   18300   -1311.3525    117.24515   -1194.1074    1817.7314    96441.967    10.472245   0.14917981 
   18400   -1303.9329    113.87954   -1190.0533    1765.5521    100979.26    10.472245   0.15164013 
   18500   -1295.9656    117.92369   -1178.0419    1828.2512    107242.19    10.472245   0.19504626 
   18600   -1306.1261    112.23101   -1193.8951    1739.9938    99192.649    10.472245   0.17885349 
   18700   -1308.8518    118.75831   -1190.0935    1841.1909    98900.581    10.472245   0.15870483 
   18800   -1297.6577    118.82745   -1178.8302    1842.2629    107029.46    10.472245   0.17942501 
   18900   -1309.3118    117.05137   -1192.2604    1814.7271     98426.62    10.472245   0.16788287 
   19000   -1309.3383    114.35165   -1194.9866    1772.8715    98232.101    10.472245   0.16588692 
   19100   -1300.9901    120.03466   -1180.9555    1860.9791    103980.98    10.472245   0.18012202 
   19200   -1305.2204    115.43096   -1189.7895    1789.6047    100360.21    10.472245   0.17210588 
   19300   -1309.4621    115.72643   -1193.7357    1794.1857    97611.406    10.472245   0.15668998 
   19400   -1310.1353    114.02241   -1196.1129     1767.767    97502.398    10.472245   0.15639212 
   19500   -1299.3764    115.85902   -1183.5174    1796.2413    104881.61    10.472245   0.19853768 
   19600   -1304.2541    110.22844   -1194.0256    1708.9466    100926.49    10.472245   0.16941006 
   19700   -1309.1991    113.82628   -1195.3728    1764.7263     97806.93    10.472245   0.17301879 
   19800   -1305.4583    121.30313   -1184.1551     1880.645    101537.93    10.472245    0.1618216 
   19900   -1318.8913    118.49653   -1200.3948    1837.1323    92455.663    10.472245   0.13743504 
   20000   -1304.2936    111.69435   -1192.5992    1731.6735    99976.561    10.472245    0.2046588 
   20100   -1303.3999    116.31403   -1187.0858    1803.2956    102440.55    10.472245   0.20372432 
   20200    -1304.929    111.19106    -1193.738    1723.8708    100171.73    10.472245   0.17762716 
   20300    -1312.003    107.85758   -1204.1454    1672.1895    95140.844    10.472245   0.17095769 
   20400   -1308.9687    116.43879   -1192.5299    1805.2298    98470.734    10.472245   0.16586363 
   20500    -1304.409    115.22083   -1189.1882    1786.3469    101058.02    10.472245   0.18088061 
   20600   -1310.6596    115.80743   -1194.8522    1795.4414    97435.561    10.472245   0.15212882 
   20700   -1311.0296    117.87728   -1193.1524    1827.5317     96499.05    10.472245   0.15351098 
   20800   -1301.9399     116.0293   -1185.9106    1798.8812    102639.83    10.472245    0.1829847 
   20900   -1302.3216    111.03732   -1191.2843    1721.4872    102687.61    10.472245   0.16738494 
   21000   -1308.5125    115.91038   -1192.6021    1797.0375    99014.796    10.472245   0.15975949 
   21100    -1304.265     118.5944   -1185.6706    1838.6498    101401.02    10.472245   0.19657895 
   21200   -1304.8159    118.87581   -1185.9401    1843.0126    102428.87    10.472245   0.18270126 
   21300   -1314.8903    120.60248   -1194.2878    1869.7823    94571.792    10.472245   0.14260144 
   21400   -1309.3303    118.18629    -1191.144    1832.3225    98226.302    10.472245   0.15264002 
   21500   -1302.4176    117.13541   -1185.2822      1816.03    102128.01    10.472245   0.18615757 
   21600   -1311.7432    112.95969   -1198.7835     1751.291    95923.269    10.472245   0.15464401 
   21700   -1305.5016    118.37199   -1187.1296    1835.2016    100277.52    10.472245   0.16881849 
   21800   -1307.0764    118.30351   -1188.7729    1834.1399    99331.954    10.472245    0.1750996 
   21900   -1308.6018    111.93068   -1196.6711    1735.3375    98092.082    10.472245   0.17384888 
   22000   -1306.9953    126.88687   -1180.1084    1967.2136    100618.51    10.472245   0.15693336 
   22100   -1314.1399    122.92348   -1191.2164    1905.7663    95852.272    10.472245   0.15463928 
   22200   -1309.4886    112.83265   -1196.6559    1749.3213    97659.086    10.472245   0.17374109 
   22300   -1299.6312    117.61437   -1182.0168    1823.4556    104505.98    10.472245   0.17646759 
   22400    -1304.376    115.33794   -1189.0381    1788.1626    101339.15    10.472245   0.16066592 
   22500   -1310.1533    112.14623   -1198.0071    1738.6793    96969.341    10.472245   0.16074325 
   22600   -1299.6963    116.78672   -1182.9096    1810.6241    105296.85    10.472245    0.1958051 
   22700   -1307.3693    118.43173   -1188.9376    1836.1277    99290.346    10.472245   0.15135186 
   22800   -1308.9864    113.73696   -1195.2495    1763.3414    98563.496    10.472245   0.16079059 
   22900   -1303.1359      117.343   -1185.7929    1819.2484    102923.61    10.472245   0.16773533 
   23000   -1289.7088    118.68853   -1171.0203    1840.1091    112068.41    10.472245   0.20075839 
   23100   -1304.1243     113.7085   -1190.4158    1762.9003    101392.37    10.472245   0.15379157 
   23200   -1309.9153    111.57486   -1198.3404     1729.821    97797.035    10.472245   0.15648191 
   23300   -1303.8272    118.25743   -1185.5697    1833.4254    102940.52    10.472245    0.1839173 
   23400   -1303.4367    116.17171    -1187.265    1801.0892    102802.95    10.472245   0.19289142 
   23500   -1313.9286    124.17147   -1189.7571    1925.1149    96472.433    10.472245   0.17607155 
   23600   -1305.9483    108.99188   -1196.9564    1689.7753    99270.471    10.472245   0.16963468 
   23700   -1310.9784    111.26367   -1199.7148    1724.9963    96488.494    10.472245   0.16284602 
   23800   -1302.7935    115.38265   -1187.4108    1788.8557    103129.24    10.472245    0.1798993 
   23900   -1312.8693      116.761   -1196.1083    1810.2253     96205.39    10.472245    0.1510985 
   24000   -1314.2667    112.94347   -1201.3233    1751.0394    95163.753    10.472245   0.15577299 
   24100   -1310.2071    117.09564   -1193.1114    1815.4133    98262.532    10.472245   0.16112501 
   24200   -1302.9392    117.20685   -1185.7324    1817.1376    102830.45    10.472245   0.16407222 
   24300   -1313.1617    116.66884   -1196.4928    1808.7965    94349.838    10.472245    0.1552032 
   24400   -1315.2301    121.95801   -1193.2721     1890.798    94515.933    10.472245   0.14026352 
   24500   -1308.9891     123.0156   -1185.9735    1907.1946    99765.795    10.472245   0.15110812 
   24600   -1307.0105    114.24355    -1192.767    1771.1955    99488.489    10.472245   0.16607146 
   24700   -1310.7805    110.02697   -1200.7535     1705.823    96923.964    10.472245   0.15056995 
   24800   -1311.3068    114.94239   -1196.3644    1782.0301    96411.954    10.472245   0.15226763 
   24900   -1314.2848    127.09725   -1187.1875    1970.4753    95870.599    10.472245   0.15355725 
   25000   -1310.4015    111.44286   -1198.9587    1727.7745    95792.624    10.472245   0.15203709 
   25100   -1314.3673    112.73155   -1201.6357     1747.754    94095.461    10.472245   0.15910448 
   25200   -1309.6144    118.15079   -1191.4636    1831.7721    98270.816    10.472245   0.15895072 
   25300    -1310.787    124.48754   -1186.2995    1930.0151    98192.873    10.472245   0.16808819 
   25400   -1307.3087    114.83405   -1192.4746    1780.3505    99826.994    10.472245    0.1624823 
   25500    -1312.088    112.84182   -1199.2462    1749.4635    95949.211    10.472245   0.15557821 
   25600   -1309.4539    124.00579   -1185.4482    1922.5461    99515.867    10.472245   0.16602625 
   25700   -1311.8899    117.42751   -1194.4624    1820.5586    97249.776    10.472245   0.16741826 
   25800   -1304.3242    110.26945   -1194.0548    1709.5823    100646.98    10.472245   0.16878682 
   25900   -1302.6928    120.00965   -1182.6831    1860.5913     103712.4    10.472245   0.17623476 
   26000   -1305.9915    112.40915   -1193.5823    1742.7556    99925.141    10.472245   0.16458093 
   26100   -1310.9841    113.20969   -1197.7744    1755.1669    97057.159    10.472245   0.14810853 
   26200   -1306.9483    114.94322    -1192.005     1782.043    100291.78    10.472245   0.15923944 
   26300   -1307.3299    116.37786    -1190.952    1804.2851    99840.293    10.472245   0.15603473 
   26400   -1314.3826    113.43129   -1200.9513    1758.6025      93390.8    10.472245   0.15437618 
   26500   -1310.7158    118.79827   -1191.9176    1841.8105    97555.923    10.472245   0.14648221 
   26600   -1301.9625    114.23316   -1187.7293    1771.0345    103558.48    10.472245   0.17932677 
   26700   -1308.9393    108.07432    -1200.865    1675.5498    97526.402    10.472245    0.1679569 
   26800   -1307.8578    112.25803   -1195.5998    1740.4127     98155.94    10.472245   0.18049987 
   26900   -1303.4376    114.08866    -1189.349    1768.7941    101748.45    10.472245   0.18465289 
   27000   -1309.8495    117.46547   -1192.3841    1821.1471    97980.805    10.472245   0.16000465 
   27100   -1316.0994     110.0911   -1206.0083    1706.8173    92506.764    10.472245   0.16221414 
   27200   -1306.1938    114.54812   -1191.6457    1775.9175    99885.877    10.472245   0.16594249 
   27300   -1306.7339    118.86476   -1187.8692    1842.8412    100332.31    10.472245   0.16337734 
   27400   -1316.9674    115.18668   -1201.7807    1785.8176    92872.051    10.472245   0.14239859 
   27500   -1307.1982      114.399   -1192.7992    1773.6055    99225.979    10.472245    0.1695492 
   27600   -1301.7571     111.7108   -1190.0463    1731.9285    102557.02    10.472245    0.1661207 
   27700   -1310.1547    111.09391   -1199.0608    1722.3645    96821.987    10.472245   0.14608859 
   27800   -1316.1774    113.83423   -1202.3431    1764.8495    93576.086    10.472245   0.14335621 
   27900   -1300.4181     110.8757   -1189.5424    1718.9815    104269.51    10.472245   0.17586441 
   28000   -1311.6083    116.84078   -1194.7675    1811.4621    96922.401    10.472245   0.16747485 
   28100   -1311.7702    109.47541   -1202.2948    1697.2719    96252.858    10.472245   0.17020986 
   28200   -1309.5751       121.59   -1187.9851    1885.0925     99780.78    10.472245   0.15288476 
   28300   -1309.0951    120.15314    -1188.942    1862.8159    98429.587    10.472245   0.16871607 
   28400   -1310.6492    107.78791   -1202.8613    1671.1093    97214.142    10.472245    0.1514223 
   28500   -1308.8414    115.36856   -1193.4729    1788.6373    98626.029    10.472245    0.1573045 
   28600   -1306.5349    117.46475   -1189.0702    1821.1359    99908.444    10.472245   0.15535042 
   28700   -1306.1673    122.20656   -1183.9607    1894.6515    100040.42    10.472245    0.1641536 
   28800   -1302.4292     106.4464   -1195.9828    1650.3111    101343.84    10.472245   0.17453329 
   28900   -1306.0574    113.03088   -1193.0265    1752.3947    100155.63    10.472245   0.16760989 
   29000   -1304.9797     120.5758   -1184.4039    1869.3687    101399.52    10.472245   0.17162772 
   29100   -1310.5298    117.43191   -1193.0979    1820.6268    97447.935    10.472245   0.15693041 
   29200    -1307.629    113.97177   -1193.6572    1766.9819    98558.083    10.472245   0.17966533 
   29300   -1297.7554    118.69906   -1179.0564    1840.2723    106033.14    10.472245    0.1784837 
   29400    -1303.335    117.98494     -1185.35    1829.2008    102484.53    10.472245   0.16561483 
   29500     -1309.09    115.19781   -1193.8922      1785.99    98340.745    10.472245   0.15905558 
   29600   -1307.7354    116.94659   -1190.7888    1813.1027    98590.036    10.472245   0.16852804 
   29700   -1306.4798    125.29571   -1181.1841    1942.5447     101033.8    10.472245   0.15992927 
   29800   -1312.8016    116.87027   -1195.9314    1811.9194    96124.302    10.472245   0.15316248 
   29900   -1306.5985    116.62575   -1189.9727    1808.1284    100906.86    10.472245   0.15482764 
   30000   -1303.6202    127.77312    -1175.847    1980.9536    104316.45    10.472245   0.18150727 
   30100   -1308.0251    117.41397   -1190.6111    1820.3487     99110.85    10.472245   0.16776263 
   30200   -1311.4286    114.95694   -1196.4717    1782.2557    96355.995    10.472245   0.15284459 
   30300   -1303.0627      117.747   -1185.3157    1825.5119    103880.06    10.472245   0.16657012 
   30400   -1306.0478    116.89636   -1189.1515    1812.3238     100805.5    10.472245   0.15169508 
   30500    -1311.956    117.98587   -1193.9701    1829.2152    96051.974    10.472245    0.1521906 
   30600   -1301.7896    115.57445   -1186.2151    1791.8293    103710.59    10.472245   0.17229529 
   30700   -1304.1486    120.42275   -1183.7259    1866.9959    102924.43    10.472245   0.17780749 
   30800   -1311.7535    115.56242   -1196.1911    1791.6428    96337.815    10.472245   0.15806224 
   30900   -1307.6939    122.98379   -1184.7101    1906.7014    99397.762    10.472245   0.17108946 
   31000   -1303.6796    118.06427   -1185.6153    1830.4307     101591.9    10.472245   0.18337285 
   31100   -1300.0726    108.80181   -1191.2707    1686.8286    103154.66    10.472245   0.18339874 
   31200   -1306.1733    111.61328     -1194.56    1730.4166    99894.327    10.472245   0.17118577 
   31300   -1311.0632    113.38144   -1197.6818    1757.8297    96179.624    10.472245   0.15494656 
   31400   -1302.3958    117.78921   -1184.6066    1826.1662    103249.76    10.472245    0.1773005 
   31500   -1309.2454    115.04625   -1194.1992    1783.6403    98717.725    10.472245   0.16623073 
   31600   -1311.8349    116.11663   -1195.7183    1800.2352    96327.901    10.472245   0.16430806 
   31700   -1306.4905    119.03298   -1187.4575    1845.4493       100018    10.472245   0.15625453 
   31800   -1313.4265     109.8648   -1203.5617    1703.3088    93953.237    10.472245   0.15191187 
   31900   -1307.6115    109.19129   -1198.4202    1692.8669    98567.421    10.472245   0.16758291 
   32000   -1309.8171    123.28715   -1186.5299    1911.4046     99218.83    10.472245   0.15072041 
   32100   -1310.6755    114.37499   -1196.3005    1773.2333    97396.653    10.472245    0.1582782 
   32200   -1315.4929    116.72538   -1198.7675     1809.673    94569.902    10.472245   0.13913423 
   32300   -1302.2568    111.03824   -1191.2186    1721.5014    102586.94    10.472245   0.16722286 
   32400   -1305.1014    110.51007   -1194.5914    1713.3128    100457.06    10.472245   0.16408122 
   32500   -1311.2604    110.26585   -1200.9945    1709.5266    96607.875    10.472245   0.14555531 
   32600   -1301.8381     115.4336   -1186.4045    1789.6456    103259.07    10.472245   0.16584339 
   32700   -1304.7149    113.18281   -1191.5321    1754.7502    100099.54    10.472245   0.17632059 
   32800   -1316.6488    109.66723   -1206.9816    1700.2458    93109.685    10.472245    0.1444072 
   32900   -1312.8588    111.81244   -1201.0464    1733.5043    95350.309    10.472245   0.15331938 
   33000   -1304.5653    114.86046   -1189.7049    1780.7599    101634.49    10.472245    0.1660612 
   33100   -1309.7264    123.31211   -1186.4143    1911.7916    98703.959    10.472245   0.14642195 
   33200   -1313.0926    112.84867    -1200.244    1749.5698     94948.49    10.472245   0.16257401 
   33300    -1310.763    121.41464   -1189.3484    1882.3738     99177.37    10.472245   0.15964697 
   33400   -1301.9617    113.68871    -1188.273    1762.5934    101886.28    10.472245   0.15497362 
   33500   -1305.0214    108.02251   -1196.9989    1674.7466     99882.89    10.472245   0.16162259 
   33600   -1303.9203    121.52177   -1182.3985    1884.0347    102240.92    10.472245   0.15567835 
   33700   -1301.9029    114.00732   -1187.8956    1767.5331    103514.25    10.472245   0.17653184 
   33800   -1313.1725    116.94035   -1196.2322    1813.0058    95673.831    10.472245   0.15419793 
   33900   -1306.8866    114.21813   -1192.6685    1770.8014    100283.81    10.472245   0.16650255 
   34000   -1305.6187    115.47122   -1190.1474     1790.229    101099.55    10.472245   0.17084563 
   34100   -1302.4848    122.45732   -1180.0275    1898.5391    103613.86    10.472245   0.19068252 
   34200   -1305.8187    112.10386   -1193.7148    1738.0225    99780.822    10.472245   0.17903608 
   34300   -1311.8185    117.50165   -1194.3168     1821.708    96702.848    10.472245   0.15535022 
   34400   -1304.1082    124.91039   -1179.1979    1936.5708    102494.88    10.472245   0.16902791 
   34500   -1306.3963    116.99888   -1189.3974    1813.9133     100215.1    10.472245   0.16661875 
   34600   -1300.5811    105.95153   -1194.6295    1642.6387    103296.86    10.472245   0.16510205 
   34700   -1301.3254    110.58801   -1190.7374    1714.5212    103156.47    10.472245   0.17274264 
   34800   -1301.5118    116.58186   -1184.9299    1807.4479    103857.87    10.472245   0.19057081 
   34900   -1313.1484    113.84149   -1199.3069    1764.9622    94134.307    10.472245   0.15097009 
   35000   -1308.8694    115.15999   -1193.7094    1785.4037    97610.598    10.472245   0.16458225 
   35100   -1305.9714    117.10944   -1188.8619    1815.6273    100294.42    10.472245   0.17937553 
   35200   -1305.0049    115.97066   -1189.0342    1797.9721    100240.33    10.472245   0.17498679 
   35300   -1310.6136    113.68769   -1196.9259    1762.5777    97060.228    10.472245   0.15219854 
   35400   -1305.2805    114.07039   -1191.2101    1768.5109    100612.94    10.472245   0.15911429 
   35500   -1300.7286    115.87834   -1184.8502    1796.5407    104035.72    10.472245   0.15783868 
   35600   -1311.1586    118.37432   -1192.7843    1835.2377    97659.854    10.472245   0.14688199 
   35700   -1305.5334    114.50512   -1191.0282    1775.2508    100502.31    10.472245   0.15411069 
   35800   -1304.1531     127.0547   -1177.0984    1969.8155    103118.43    10.472245   0.16185062 
   35900   -1304.1149    110.99244   -1193.1225    1720.7913    101754.26    10.472245   0.15808724 
   36000   -1309.9271    119.62688   -1190.3002    1854.6569      98458.6    10.472245   0.16582488 
   36100   -1305.2215     124.3606   -1180.8609     1928.047    102040.23    10.472245   0.16524129 
   36200   -1309.6719    113.41807   -1196.2539    1758.3975    97908.218    10.472245   0.15490878 
   36300   -1305.5668    114.12202   -1191.4447    1769.3114    100416.25    10.472245   0.18543031 
   36400   -1307.3333    121.73056   -1185.6027    1887.2718    100486.81    10.472245   0.17591995 
   36500   -1310.1836    115.61913   -1194.5644    1792.5221    97746.576    10.472245   0.18373553 
   36600   -1302.2547    122.18913   -1180.0655    1894.3812    104123.07    10.472245   0.17222847 
   36700   -1307.2087    118.88809   -1188.3206    1843.2031    100188.11    10.472245   0.16879102 
   36800   -1308.6692    113.39006   -1195.2791    1757.9633    97924.482    10.472245   0.17367679 
   36900   -1299.4177    119.94187   -1179.4758    1859.5405    105421.94    10.472245   0.18328556 
   37000   -1308.1343    124.41288   -1183.7214    1928.8576    100181.78    10.472245   0.17569477 
   37100   -1315.9781    121.97095   -1194.0071    1890.9987    95014.094    10.472245   0.13942739 
   37200   -1305.4359    108.10051   -1197.3354    1675.9557    100295.98    10.472245   0.14954635 
   37300   -1307.2707    125.34878   -1181.9219    1943.3675    101162.49    10.472245   0.17554427 
   37400    -1305.921    110.76095     -1195.16    1717.2024    99986.097    10.472245   0.16236209 
   37500    -1307.744     112.5876   -1195.1564    1745.5222    98728.207    10.472245    0.1685231 
   37600   -1306.6219    119.96994    -1186.652    1859.9756    100972.66    10.472245   0.15510146 
   37700    -1307.813    116.15211   -1191.6608    1800.7853    99091.032    10.472245   0.16191429 
   37800    -1311.514    113.74537   -1197.7687    1763.4719    97017.123    10.472245   0.14050313 
   37900   -1301.7679    117.38822   -1184.3797    1819.9494    103890.84    10.472245   0.15773211 
   38000   -1307.4655    116.95743    -1190.508    1813.2706    100000.12    10.472245   0.16806408 
   38100   -1306.7794     113.8331   -1192.9462    1764.8321    99445.313    10.472245   0.18731754 
   38200   -1307.0151    122.26884   -1184.7463    1895.6171    101164.74    10.472245   0.16794165 
   38300   -1297.9343    122.23354   -1175.7007    1895.0698    106573.78    10.472245   0.17854453 
   38400   -1308.5974    115.37237    -1193.225    1788.6964    97847.436    10.472245   0.17515467 
   38500   -1305.3137    110.59286   -1194.7208    1714.5965    99521.262    10.472245   0.16009948 
   38600   -1306.0829    123.29152   -1182.7914    1911.4724    100976.08    10.472245   0.17339917 
   38700   -1302.2641    110.92754   -1191.3366    1719.7852    102456.12    10.472245   0.21071038 
   38800   -1308.5003    113.35678   -1195.1435    1757.4474    98920.341    10.472245   0.15693326 
   38900   -1309.7919    122.55909   -1187.2328    1900.1171    98258.081    10.472245   0.15690426 
   39000   -1305.9535    107.56215   -1198.3914    1667.6092    98924.418    10.472245   0.16853918 
   39100   -1311.2148    114.96759   -1196.2472    1782.4208    96861.712    10.472245   0.16116799 
   39200   -1299.8946    112.99916   -1186.8954    1751.9029     103991.9    10.472245   0.20165025 
   39300   -1306.0079    116.69355   -1189.3144    1809.1796    100447.03    10.472245   0.17405669 
   39400   -1311.9763    107.02822   -1204.9481    1659.3314    94541.305    10.472245   0.15596623 
   39500   -1305.1111    114.01774   -1191.0933    1767.6946    100629.53    10.472245   0.16889712 
   39600   -1305.9667    115.78105   -1190.1857    1795.0324    100447.89    10.472245   0.17229349 
   39700   -1313.0375    107.31739   -1205.7201    1663.8145    94413.835    10.472245   0.16160694 
   39800   -1304.0743    109.80142   -1194.2729    1702.3261    101502.57    10.472245   0.18837259 
   39900   -1311.1204    122.26426   -1188.8562     1895.546     97884.16    10.472245   0.14563492 
   40000   -1313.5249     116.3688   -1197.1561    1804.1447     95154.45    10.472245   0.14881687 
   40100   -1306.9057    111.01055   -1195.8952    1721.0721    99412.475    10.472245   0.17753023 
   40200   -1299.9323    113.13113   -1186.8012    1753.9489    104566.32    10.472245   0.17356909 
   40300   -1313.6692    115.19924     -1198.47    1786.0123    94997.768    10.472245   0.15652276 
   40400   -1308.2121    122.13496   -1186.0771    1893.5414    100171.56    10.472245   0.17056851 
   40500   -1304.0411     116.2616   -1187.7795    1802.4828    101647.38    10.472245   0.19580652 
   40600   -1310.1243    111.52909   -1198.5953    1729.1114    96843.316    10.472245   0.16472743 
   40700   -1308.9859    127.21371   -1181.7722    1972.2807    99786.992    10.472245   0.16410425 
   40800   -1305.6865    116.47304   -1189.2135    1805.7608    100564.74    10.472245   0.19060282 
   40900   -1309.9867    111.94624   -1198.0404    1735.5788    97994.494    10.472245   0.15161335 
   41000   -1308.4118    112.33037   -1196.0814    1741.5342    98196.999    10.472245   0.17824869 
   41100   -1297.0767     111.0105   -1186.0662    1721.0713    106470.28    10.472245   0.18122552 
   41200   -1316.9945     118.9905    -1198.004    1844.7908    93533.067    10.472245   0.15414135 
   41300   -1312.0082    114.63198   -1197.3762    1777.2177    96219.974    10.472245    0.1575372 
   41400   -1302.6898    115.81652   -1186.8733    1795.5823    103079.05    10.472245   0.16979664 
   41500   -1315.3125    117.22397   -1198.0885    1817.4031    94350.975    10.472245   0.14666714 
   41600   -1307.8692    116.91805   -1190.9511    1812.6601    98916.872    10.472245   0.16458038 
   41700   -1307.7594    122.72132   -1185.0381    1902.6321    100093.51    10.472245   0.15463168 
   41800   -1315.6557     119.1638   -1196.4919    1847.4775    93985.945    10.472245   0.14493788 
   41900   -1310.4711    119.20653   -1191.2646      1848.14    97661.506    10.472245   0.16320711 
   42000   -1310.5976    121.15014   -1189.4474    1878.2731    98597.564    10.472245   0.16034148 
   42100   -1307.9219    117.85646   -1190.0654    1827.2089    98967.424    10.472245   0.17540967 
   42200   -1314.3651    115.41122   -1198.9539    1789.2987    94667.988    10.472245   0.15467778 
   42300   -1303.9945    108.84307   -1195.1514    1687.4682    100939.73    10.472245   0.16283079 
   42400   -1308.1194    120.31385   -1187.8056    1865.3075     98775.14    10.472245   0.18234344 
   42500   -1310.7971     114.5686   -1196.2285     1776.235    96536.722    10.472245    0.1566463 
   42600   -1314.5239    111.95184   -1202.5721    1735.6655    93485.242    10.472245   0.14372726 
   42700   -1308.9372    117.49184   -1191.4454     1821.556    99312.997    10.472245   0.16943909 
   42800   -1308.1778    121.63888   -1186.5389    1885.8504    99756.592    10.472245   0.17566531 
   42900   -1311.5818    114.38485    -1197.197    1773.3862    96740.912    10.472245    0.1602373 
   43000   -1308.2138    114.54416   -1193.6696    1775.8561    97723.417    10.472245    0.1504493 
   43100    -1311.634    123.43711   -1188.1968    1913.7296    97579.104    10.472245   0.15697426 
   43200   -1304.1213    107.18561   -1196.9357    1661.7715    100900.83    10.472245   0.17669934 
   43300   -1308.7375    116.34513   -1192.3923    1803.7777    99114.689    10.472245    0.1501178 
   43400   -1306.3427    120.72492   -1185.6178    1871.6806    100820.75    10.472245   0.15674488 
   43500   -1312.8141    113.14405     -1199.67    1754.1492    95035.384    10.472245   0.17888925 
   43600   -1306.6647    114.76397   -1191.9008     1779.264    99946.514    10.472245   0.15165503 
   43700   -1311.5877     123.4677     -1188.12    1914.2037    96966.342    10.472245    0.1524071 
   43800   -1304.0991    121.21523   -1182.8839    1879.2823    102217.82    10.472245   0.15885851 
   43900   -1308.6649    113.07952   -1195.5854    1753.1488    97698.424    10.472245   0.17379164 
   44000   -1304.2636    117.16514   -1187.0984    1816.4908    101213.03    10.472245   0.17503336 
   44100   -1302.9007    121.61622   -1181.2844    1885.4991    103236.93    10.472245   0.17455267 
   44200   -1306.6968    115.86236   -1190.8344     1796.293    100259.91    10.472245   0.18343338 
   44300   -1308.2888    111.23644   -1197.0524    1724.5743    98501.169    10.472245   0.15553973 
   44400   -1311.6222    109.85191   -1201.7703    1703.1089    95979.061    10.472245   0.18223074 
   44500   -1306.7456    119.08678   -1187.6588    1846.2834    100932.64    10.472245   0.16838587 
   44600   -1308.7527     112.7584   -1195.9943    1748.1703    97569.708    10.472245   0.15617683 
   44700   -1312.7092    107.53734   -1205.1718    1667.2246    93919.136    10.472245   0.14454171 
   44800   -1307.4317    119.79649   -1187.6352    1857.2865    100012.84    10.472245   0.17732149 
   44900   -1305.7851    114.97986   -1190.8053    1782.6111    100966.91    10.472245   0.15739291 
   45000   -1310.0246    109.51376   -1200.5108    1697.8663    97565.603    10.472245   0.14845333 
   45100   -1307.4286    114.31504   -1193.1136    1772.3038    99406.812    10.472245    0.1482154 
   45200   -1310.8778     121.8719   -1189.0059     1889.463    98503.663    10.472245   0.16096388 
   45300   -1304.3461    114.30877   -1190.0374    1772.2067    101084.02    10.472245   0.18636663 
   45400   -1310.4236     120.7987   -1189.6249    1872.8245    97593.412    10.472245   0.16155719 
   45500   -1314.5369    112.06555   -1202.4714    1737.4285    94158.615    10.472245   0.14402886 
   45600   -1309.5297    118.00476   -1191.5249    1829.5081    98105.294    10.472245   0.15042488 
   45700   -1305.4467    113.97839   -1191.4683    1767.0846    100290.46    10.472245   0.15468324 
   45800    -1311.316    112.49979   -1198.8162    1744.1608    96632.502    10.472245   0.16014188 
   45900    -1306.723    121.55331   -1185.1697    1884.5237    100688.63    10.472245   0.16045577 
   46000   -1307.0777    114.38738   -1192.6903    1773.4254    99538.394    10.472245   0.15604915 
   46100   -1303.4616    106.85424   -1196.6074     1656.634    101058.55    10.472245   0.17488428 
   46200   -1307.6612    115.30705   -1192.3541    1787.6838    99436.132    10.472245   0.17230788 
   46300   -1307.5619    116.36284    -1191.199    1804.0523    99567.733    10.472245   0.15876524 
   46400    -1313.254    110.95813   -1202.2958    1720.2594    95328.144    10.472245   0.15334153 
   46500   -1301.7268    114.16695   -1187.5598     1770.008    102931.44    10.472245   0.19707323 
   46600   -1307.9201    117.63343   -1190.2867    1823.7511    99935.561    10.472245   0.17875644 
   46700   -1311.4238    108.62659   -1202.7973    1684.1119    96146.239    10.472245   0.15931916 
   46800   -1310.4957    108.55679   -1201.9389    1683.0299    96638.382    10.472245   0.15318008 
   46900   -1304.9466    115.78879   -1189.1578    1795.1524     101777.9    10.472245   0.17842884 
   47000   -1305.0965    117.84863   -1187.2478    1827.0875    102038.32    10.472245   0.16081052 
   47100   -1312.5381    111.72925   -1200.8089    1732.2146    95622.539    10.472245   0.15053465 
   47200   -1305.3936    113.92807   -1191.4656    1766.3043    99909.796    10.472245     0.168599 
   47300    -1307.656     117.9429   -1189.7131    1828.5491    99907.896    10.472245   0.15506485 
   47400    -1309.983    108.51723   -1201.4658    1682.4164    96160.992    10.472245   0.18548511 
   47500    -1300.489    108.69863   -1191.7904    1685.2288    103272.32    10.472245   0.18280219 
   47600   -1309.6388    122.48303   -1187.1557    1898.9379     99711.15    10.472245   0.16112005 
   47700   -1312.7708    112.98491   -1199.7859     1751.682    94725.712    10.472245   0.19940668 
   47800   -1307.8318    115.13111   -1192.7007    1784.9559    99060.628    10.472245   0.17797299 
   47900   -1309.6263    119.78062   -1189.8457    1857.0405    97397.975    10.472245   0.16026461 
   48000   -1305.0552    109.15123   -1195.9039    1692.2458    100617.68    10.472245   0.15642961 
   48100   -1314.7438    115.38405   -1199.3597    1788.8775    93830.196    10.472245   0.15956053 
   48200   -1305.8995    119.79517   -1186.1044    1857.2661    101157.68    10.472245   0.18708214 
   48300   -1310.9727    114.06502   -1196.9077    1768.4276    96506.893    10.472245   0.14524583 
   48400   -1310.5426    112.33109   -1198.2115    1741.5454    96582.691    10.472245   0.16164079 
   48500   -1311.4034    120.49163   -1190.9118    1868.0637    97660.156    10.472245   0.16043036 
   48600   -1303.2556    114.36493   -1188.8906    1773.0773     102298.8    10.472245    0.1795672 
   48700   -1300.0693    111.76169   -1188.3076    1732.7175    104059.81    10.472245    0.1673395 
   48800   -1309.0396    110.22288   -1198.8167    1708.8603    98231.726    10.472245   0.15622592 
   48900   -1308.9336    120.20961    -1188.724    1863.6914    98714.596    10.472245   0.14451485 
   49000   -1309.0071    119.95002   -1189.0571    1859.6667    99403.484    10.472245   0.15577056 
   49100   -1310.6702    114.60143   -1196.0688     1776.744    97210.909    10.472245   0.14705636 
   49200   -1302.3309    122.68283   -1179.6481    1902.0354    102491.47    10.472245   0.18220604 
   49300   -1302.7998    115.45126   -1187.3485    1789.9194    101127.31    10.472245   0.19693383 
   49400   -1311.5717    114.40354   -1197.1681     1773.676    96544.348    10.472245   0.16587801 
   49500    -1305.549    122.55939   -1182.9896    1900.1216       101850    10.472245   0.16094946 
   49600   -1305.8334     118.5026   -1187.3308    1837.2264    99472.994    10.472245   0.16684498 
   49700   -1307.3492    114.39912   -1192.9501    1773.6074    99558.049    10.472245   0.17416595 
   49800   -1303.0676    120.19282   -1182.8747    1863.4311    102472.31    10.472245   0.18424954 
   49900   -1299.1474    116.06626   -1183.0811    1799.4542     104577.9    10.472245   0.19214448 
   50000   -1307.5574    115.21221   -1192.3452    1786.2134    99632.574    10.472245   0.15844965 
   50100   -1309.3996    115.61583   -1193.7837    1792.4709    98518.351    10.472245   0.15520875 
   50200   -1306.1934    123.20272   -1182.9907    1910.0956    101801.03    10.472245   0.15902924 
   50300   -1309.5738     112.4061   -1197.1677    1742.7083    97328.158    10.472245   0.17141372 
   50400   -1308.3413    116.13685   -1192.2045    1800.5487     99649.18    10.472245   0.15578657 
   50500   -1304.1493    120.73095   -1183.4184    1871.7741    102023.23    10.472245   0.16466358 
   50600   -1304.9519    120.63058   -1184.3213    1870.2181     101848.3    10.472245   0.16088515 
   50700   -1314.1015    119.68496   -1194.4165    1855.5574    95396.783    10.472245   0.14612113 
   50800   -1310.8018    119.88452   -1190.9173    1858.6513    97503.797    10.472245   0.16044517 
   50900   -1300.0022    118.15196   -1181.8502    1831.7903    106258.08    10.472245   0.17791434 
   51000   -1315.7922    120.27495   -1195.5173    1864.7044    95012.592    10.472245   0.14012968 
   51100   -1309.2631    117.23088   -1192.0322    1817.5101    99042.645    10.472245    0.1632915 
   51200   -1306.5516    126.68044   -1179.8711     1964.013     101364.4    10.472245   0.15137517 
   51300   -1313.2083    115.59644   -1197.6118    1792.1703     95932.67    10.472245    0.1387604 
   51400   -1309.3049    118.89617   -1190.4087    1843.3283    98252.568    10.472245   0.15383538 
   51500   -1305.1442    121.08415   -1184.0601      1877.25    101775.22    10.472245   0.17178116 
   51600      -1313.4    113.94231   -1199.4577    1766.5252     95516.88    10.472245   0.14270296 
   51700   -1307.9051    118.95099   -1188.9541    1844.1782    99504.662    10.472245    0.1780974 
   51800   -1301.3223    112.05208   -1189.2703    1737.2197    103541.45    10.472245   0.17227153 
   51900   -1317.5723    120.48783   -1197.0845    1868.0048     92919.93    10.472245   0.15653623 
   52000   -1311.9134    119.83221   -1192.0812    1857.8404    97448.053    10.472245   0.15843444 
   52100   -1300.6571    117.15548   -1183.5016    1816.3411    104383.98    10.472245   0.16170862 
   52200   -1305.8249    108.60382   -1197.2211     1683.759    99542.897    10.472245   0.15990045 
   52300    -1306.847    115.72371   -1191.1233    1794.1434    99548.601    10.472245   0.17595372 
   52400   -1302.8398    122.27341   -1180.5663    1895.6879    103708.37    10.472245   0.15825622 
   52500   -1309.0659    119.04701   -1190.0189    1845.6668    99137.385    10.472245   0.16766155 
   52600   -1313.1068    116.41912   -1196.6877    1804.9249    95381.587    10.472245   0.14995796 
   52700   -1304.9762    121.71001   -1183.2662    1886.9531    102187.31    10.472245   0.16974203 
   52800   -1303.0508     110.7848    -1192.266    1717.5722    102211.72    10.472245   0.18481086 
   52900   -1309.3868    113.54887   -1195.8379    1760.4254    97384.241    10.472245   0.17128067 
   53000   -1313.8434    126.68674   -1187.1567    1964.1107    95864.762    10.472245   0.15471626 
   53100    -1312.063    107.48541   -1204.5776    1666.4195    95225.459    10.472245   0.14877361 
   53200   -1308.4425    113.77275   -1194.6697    1763.8964     98613.17    10.472245   0.17982696 
   53300   -1303.0347    113.54316   -1189.4916    1760.3368     102305.6    10.472245   0.18007823 
   53400   -1303.3909     116.9513   -1186.4396    1813.1756    102423.76    10.472245   0.16712428 
   53500    -1318.242    123.39497    -1194.847    1913.0762    92489.834    10.472245   0.14170709 
   53600   -1308.3593    115.83074   -1192.5285    1795.8029    99430.262    10.472245   0.16036191 
   53700   -1299.6484     112.7503   -1186.8981    1748.0447    104968.89    10.472245   0.17079281 
   53800    -1304.269    108.99202    -1195.277    1689.7775    101498.42    10.472245   0.17656781 
   53900    -1305.997     113.6269   -1192.3701    1761.6351    100382.85    10.472245   0.16402345 
   54000   -1306.5696     122.1945   -1184.3751    1894.4645    100608.34    10.472245    0.1564056 
   54100   -1316.4229    119.22093    -1197.202    1848.3632    93939.512    10.472245   0.14450521 
   54200   -1308.3365    121.03286   -1187.3036    1876.4548    99538.918    10.472245   0.17139071 
   54300   -1310.3439      123.644   -1186.6999     1916.937     99028.42    10.472245   0.14865267 
   54400   -1307.7967    111.32811   -1196.4686    1725.9954    97787.414    10.472245   0.16074784 
   54500   -1298.8274    116.69246   -1182.1349    1809.1627    105071.16    10.472245   0.17606796 
   54600   -1307.8244    122.70356   -1185.1208    1902.3569    99745.621    10.472245   0.17329806 
   54700    -1311.106    119.26249   -1191.8435    1849.0076    97430.749    10.472245   0.15112593 
   54800   -1315.4833    117.18077   -1198.3025    1816.7332    94736.904    10.472245   0.15482995 
   54900   -1303.2963    119.62003   -1183.6762    1854.5508    103340.85    10.472245   0.17416856 
   55000   -1309.3043    115.02276   -1194.2816    1783.2762    98349.274    10.472245    0.1599679 
   55100   -1309.0966    114.56522   -1194.5314    1776.1826    98367.962    10.472245   0.17447294 
   55200   -1308.4516    121.48843   -1186.9632    1883.5178    98834.087    10.472245   0.16277208 
   55300   -1312.3604    108.71314   -1203.6472    1685.4538    95024.155    10.472245   0.15890503 
   55400   -1309.2272    117.36787   -1191.8593     1819.634    97910.069    10.472245   0.15890381 
   55500   -1304.8587    115.96693   -1188.8917    1797.9142    101026.63    10.472245   0.16579582 
   55600    -1318.716    114.44967   -1204.2664    1774.3912    91909.909    10.472245   0.14170219 
   55700   -1311.4859    117.77487   -1193.7111     1825.944    96351.862    10.472245   0.14475779 
   55800   -1308.7011    117.02049   -1191.6806    1814.2483    98370.042    10.472245    0.1511987 
   55900   -1310.1303    111.26227    -1198.868    1724.9748    97352.208    10.472245   0.15746336 
   56000    -1308.476    115.64988   -1192.8262    1792.9988    97998.931    10.472245   0.15393167 
   56100   -1301.9752      114.995   -1186.9802    1782.8458    103069.48    10.472245   0.17966463 
   56200   -1318.1585    120.20435   -1197.9541    1863.6098    92692.868    10.472245   0.14718995 
   56300   -1312.2727    106.42952   -1205.8432    1650.0493    95276.193    10.472245   0.14558143 
   56400   -1306.0633    113.94694   -1192.1163     1766.597    100367.06    10.472245   0.15740554 
   56500   -1305.9361    115.53356   -1190.4025    1791.1954    100695.19    10.472245   0.16096843 
   56600    -1314.275    110.63878   -1203.6362    1715.3083    94066.446    10.472245   0.16371182 
   56700    -1309.243    119.00507   -1190.2379    1845.0167    99314.503    10.472245   0.15640788 
   56800   -1307.7944    112.82159   -1194.9728      1749.15     98498.06    10.472245   0.17114489 
   56900   -1305.4537    112.21162   -1193.2421    1739.6931    100518.53    10.472245    0.1623608 
   57000   -1303.9626    121.59321   -1182.3694    1885.1423    102277.15    10.472245   0.16437994 
   57100    -1309.358    113.06199    -1196.296     1752.877    98905.587    10.472245   0.15972166 
   57200   -1304.1828    111.69038   -1192.4924    1731.6119    101223.53    10.472245   0.16453213 
   57300   -1299.4718    119.94474    -1179.527    1859.5849    105374.56    10.472245   0.18778502 
   57400   -1304.8173    113.85098   -1190.9663    1765.1093    101264.09    10.472245   0.16749928 
   57500   -1311.0957    114.75737   -1196.3384    1779.1616    96554.997    10.472245   0.14558028 
   57600    -1301.962    119.54246   -1182.4195    1853.3481    104582.79    10.472245   0.18519179 
   57700   -1304.5164    117.80931   -1186.7071    1826.4779    101401.35    10.472245   0.20114705 
   57800   -1304.6744    111.90333    -1192.771    1734.9135       101201    10.472245   0.16167076 
   57900   -1311.1006    117.70011   -1193.4005     1824.785    96713.284    10.472245   0.16312095 
   58000   -1301.0758    119.31862   -1181.7572    1849.8777    103820.28    10.472245   0.17088608 
   58100   -1312.7247    116.91499   -1195.8097    1812.6128    95943.821    10.472245   0.15564831 
   58200   -1303.6704    110.45758   -1193.2128    1712.4991    101940.41    10.472245   0.17223566 
   58300   -1302.5715    123.70252   -1178.8689    1917.8444    103641.66    10.472245   0.17648242 
   58400    -1310.528    115.42889   -1195.0992    1789.5726    98281.637    10.472245   0.16004668 
   58500   -1308.7836    117.76531   -1191.0183    1825.7958    99447.186    10.472245   0.18590291 
   58600   -1302.1936    114.51964   -1187.6739    1775.4759    102573.43    10.472245   0.18484822 
   58700   -1314.0399    114.18227   -1199.8576    1770.2455    94577.907    10.472245   0.14647405 
   58800   -1311.4511     118.5933   -1192.8578    1838.6326    97100.715    10.472245   0.18751878 
   58900   -1305.1583    118.24611   -1186.9122    1833.2499    101934.84    10.472245    0.1626777 
   59000   -1306.2298    103.00016   -1203.2296    1596.8816    98042.855    10.472245   0.17615976 
   59100   -1304.9344    114.31408   -1190.6203    1772.2889    101351.48    10.472245   0.17453317 
   59200   -1309.7151    120.28267   -1189.4325    1864.8242    98476.477    10.472245   0.17010178 
   59300   -1315.9876    111.83324   -1204.1544    1733.8269    93610.516    10.472245   0.14069988 
   59400   -1306.3781    111.31724   -1195.0608     1725.827    98985.478    10.472245   0.15509621 
   59500   -1307.8156    115.98636   -1191.8292    1798.2154    99033.686    10.472245   0.18256298 
   59600   -1307.8479    127.29957   -1180.5484    1973.6118    101018.25    10.472245   0.15112856 
   59700   -1307.6422    115.40604   -1192.2362    1789.2184    99532.601    10.472245   0.16758073 
   59800   -1304.1446    108.86418   -1195.2805    1687.7955    100158.83    10.472245   0.17662952 
   59900   -1307.6536    126.76535   -1180.8882    1965.3295    100290.98    10.472245   0.16701591 
   60000   -1313.4334    116.54103   -1196.8923    1806.8149    94529.213    10.472245   0.14339965 
   60100   -1306.9166    112.14331   -1194.7733    1738.6341     99212.54    10.472245   0.16387402 
   60200    -1306.079    121.34945   -1184.7295    1881.3631    101179.65    10.472245   0.17866862 
   60300   -1312.2834    112.45222   -1199.8312    1743.4234    95620.239    10.472245   0.16055752 
   60400    -1305.576     111.8226   -1193.7534    1733.6619    99874.444    10.472245   0.17265364 
   60500   -1310.5053    121.47682   -1189.0285    1883.3379     98000.47    10.472245   0.15808558 
   60600   -1306.3631    114.42463   -1191.9385    1774.0029    99610.568    10.472245   0.17107155 
   60700   -1303.0918    120.51708   -1182.5748    1868.4584     102831.2    10.472245    0.1655824 
   60800   -1304.0991    117.66402   -1186.4351    1824.2254    101103.17    10.472245   0.16312787 
   60900   -1302.5824    107.38213   -1195.2002    1664.8183     101324.3    10.472245    0.1777215 
   61000   -1308.4337    126.15408   -1182.2796    1955.8526    100762.34    10.472245   0.18151692 
   61100   -1307.1667    121.98976   -1185.1769    1891.2903    100460.93    10.472245    0.1659013 
   61200   -1308.2347    114.24815   -1193.9865    1771.2668    98601.139    10.472245   0.16924321 
   61300   -1299.6286    110.66268   -1188.9659    1715.6788     104574.7    10.472245   0.17341915 
   61400   -1304.9154    118.96025   -1185.9552    1844.3217    101145.25    10.472245   0.15277424 
   61500   -1307.6346    108.67972   -1198.9549    1684.9356     98537.58    10.472245   0.15018505 
   61600   -1304.3879    116.01994   -1188.3679    1798.7361    101199.87    10.472245   0.16349573 
   61700   -1297.0151    126.82059   -1170.1945     1966.186    108153.72    10.472245   0.19466399 
   61800   -1306.7216     118.9327   -1187.7889    1843.8945    100706.41    10.472245   0.16174548 
   61900   -1310.2923    112.43234     -1197.86    1743.1151    97852.091    10.472245   0.16151092 
   62000   -1309.2517    120.21741   -1189.0343    1863.8124    99197.352    10.472245   0.16259171 
   62100   -1304.8461    117.64636   -1187.1997    1823.9515    101074.12    10.472245   0.15384619 
   62200   -1314.6382    115.00066   -1199.6375    1782.9335    94472.139    10.472245   0.13756892 
   62300     -1302.13    115.65019   -1186.4798    1793.0037    103154.01    10.472245   0.16473628 
   62400   -1302.7721    113.06456   -1189.7075    1752.9168    102060.65    10.472245   0.17861429 
   62500   -1306.9103    115.16816   -1191.7421    1785.5304    99265.118    10.472245   0.15263811 
   62600   -1310.9784    120.55913   -1190.4192    1869.1103    97409.519    10.472245   0.15631965 
   62700   -1296.4507    116.03578    -1180.415    1798.9816    107929.91    10.472245   0.18525405 
   62800   -1306.1343    112.58239   -1193.5519    1745.4414     100430.6    10.472245   0.16896284 
   62900   -1309.8558    115.81783    -1194.038    1795.6026     98013.91    10.472245    0.1648293 
   63000   -1297.3799    118.91825   -1178.4616    1843.6707    107005.99    10.472245   0.17573852 
   63100   -1306.0757    117.98047   -1188.0953    1829.1315    100793.81    10.472245   0.19002328 
   63200   -1313.9653    119.48015   -1194.4852    1852.3822    95857.362    10.472245   0.15320213 
   63300   -1310.7895    115.23081   -1195.5587    1786.5017     96732.86    10.472245     0.158141 
   63400     -1304.84    122.24689   -1182.5931    1895.2767    101712.63    10.472245   0.16962363 
   63500   -1305.1506    107.96488   -1197.1857    1673.8531    100163.36    10.472245   0.16121635 
   63600   -1308.6511    115.25574   -1193.3953    1786.8882    98418.977    10.472245   0.16480512 
   63700   -1305.9149    118.85778   -1187.0571     1842.733    101496.87    10.472245   0.16866535 
   63800   -1315.7798    114.35259   -1201.4272    1772.8861    94703.947    10.472245   0.15971982 
   63900   -1309.8627    116.88233   -1192.9804    1812.1063    97691.467    10.472245   0.16428054 
   64000   -1305.3978    116.05246   -1189.3453    1799.2404    101638.18    10.472245   0.17392848 
   64100   -1310.4036    112.38709   -1198.0166    1742.4135    97345.956    10.472245   0.16547212 
   64200   -1316.3923    107.38722   -1209.0051    1664.8972    92317.025    10.472245   0.14255234 
   64300   -1304.7455    114.48694   -1190.2586     1774.969    100857.52    10.472245   0.15311076 
   64400   -1304.6051    114.25928   -1190.3458    1771.4395    101610.69    10.472245   0.16842711 
   64500   -1312.1029    110.27882   -1201.8241    1709.7276    96195.654    10.472245   0.15397241 
   64600   -1306.7664    121.22202   -1185.5444    1879.3876    101066.44    10.472245   0.15490345 
   64700   -1311.7507    118.88987   -1192.8608    1843.2306    96615.155    10.472245    0.1629374 
   64800   -1310.0421    114.66678   -1195.3754    1777.7572    96311.271    10.472245   0.15300765 
   64900   -1303.0806    123.39967    -1179.681    1913.1492    103556.18    10.472245   0.17905643 
   65000   -1304.2066    113.63921   -1190.5674    1761.8261    101457.18    10.472245    0.1668064 
   65100   -1311.4996    118.78412   -1192.7155     1841.591    97543.014    10.472245   0.16241424 
   65200    -1297.922    114.50672   -1183.4153    1775.2756    106209.31    10.472245   0.17528099 
   65300   -1303.6856    115.60564     -1188.08    1792.3129    101992.35    10.472245   0.16935869 
   65400   -1314.8896    119.20273   -1195.6869     1848.081    95499.279    10.472245   0.15152958 
   65500    -1302.354    117.34422   -1185.0097    1819.2674    104072.86    10.472245   0.16676775 
   65600   -1304.9851    125.57799   -1179.4071     1946.921    101803.28    10.472245   0.15778005 
   65700   -1303.5117    112.63173   -1190.8799    1746.2064    103066.29    10.472245   0.15439185 
   65800   -1306.8073    109.20255   -1197.6047    1693.0415    98906.335    10.472245   0.16177337 
   65900   -1299.8568     116.3362   -1183.5206    1803.6393    105830.83    10.472245   0.17871669 
   66000   -1304.7355    115.47424   -1189.2613    1790.2758    100781.78    10.472245   0.16046339 
   66100     -1307.02    115.30439   -1191.7156    1787.6424    100145.35    10.472245   0.17612075 
   66200   -1310.4308    119.27679    -1191.154    1849.2293    97077.413    10.472245   0.15252758 
   66300   -1310.3344    109.23754   -1201.0968    1693.5839    97449.953    10.472245   0.14704982 
   66400   -1305.4531    118.94289   -1186.5102    1844.0526    102377.98    10.472245   0.15883749 
   66500   -1312.0623     121.3099   -1190.7524      1880.75    96515.932    10.472245   0.15215781 
   66600    -1310.368    109.37279   -1200.9952    1695.6808    96367.867    10.472245   0.16884666 
   66700   -1302.6708    114.70922   -1187.9616    1778.4151    102500.67    10.472245    0.1607388 
   66800   -1304.6422    116.42068   -1188.2215    1804.9491    101541.49    10.472245    0.1741342 
   66900   -1313.6306    113.96524   -1199.6653    1766.8806     94691.11    10.472245   0.15532617 
   67000   -1302.2645    119.31512   -1182.9494    1849.8235     102713.4    10.472245    0.1647603 
   67100   -1308.9191    116.28959   -1192.6295    1802.9166    99414.293    10.472245   0.16180462 
   67200   -1306.4137     111.8806   -1194.5331     1734.561    99533.062    10.472245   0.14807662 
   67300    -1300.822    123.29246   -1177.5295     1911.487    104864.99    10.472245    0.1659408 
   67400   -1307.0594    116.40666   -1190.6528    1804.7318     100068.1    10.472245   0.15675418 
   67500   -1314.8023    120.35629    -1194.446    1865.9654      94569.2    10.472245   0.14896249 
   67600   -1304.2895    125.41277   -1178.8768    1944.3596    102302.07    10.472245   0.16797257 
   67700   -1310.4407    120.54391   -1189.8968    1868.8743    97799.947    10.472245   0.15645332 
   67800   -1307.5196    114.78495   -1192.7347    1779.5891     98196.22    10.472245     0.171599 
   67900   -1303.8822    119.79122    -1184.091    1857.2048     103138.5    10.472245   0.15855386 
   68000   -1304.0166    115.24137   -1188.7752    1786.6653    101389.55    10.472245   0.16688129 
   68100   -1312.8692    114.74306   -1198.1261    1778.9398     95317.57    10.472245   0.16251841 
   68200    -1306.788    120.77616   -1186.0118    1872.4751    101252.97    10.472245   0.16453234 
   68300   -1311.7565    117.83942   -1193.9171    1826.9447    96714.002    10.472245   0.16411817 
   68400   -1309.6919    111.57355   -1198.1184    1729.8006    96975.822    10.472245   0.16334526 
   68500   -1304.5472    118.99262   -1185.5546    1844.8236     103517.4    10.472245   0.16496327 
   68600   -1314.2232    116.13512   -1198.0881    1800.5219    94784.335    10.472245   0.15945871 
   68700   -1309.8427    111.68348   -1198.1592     1731.505    96161.223    10.472245   0.16623909 
   68800   -1301.5143    112.36635    -1189.148     1742.092    104128.16    10.472245   0.16632073 
   68900   -1304.6845    113.89094   -1190.7935    1765.7287    102000.61    10.472245   0.16990306 
   69000   -1314.8872    111.05522    -1203.832    1721.7647    93702.254    10.472245   0.15845005 
   69100    -1304.568     114.8841   -1189.6839    1781.1264    101177.74    10.472245    0.1584388 
   69200   -1305.7025    114.91922   -1190.7833    1781.6709    100110.01    10.472245   0.16910809 
   69300   -1313.9764    111.53664   -1202.4398    1729.2285    94684.916    10.472245   0.14323912 
   69400     -1301.94    114.19024   -1187.7497    1770.3691    103293.59    10.472245   0.15428333 
   69500   -1310.7711    119.83877   -1190.9324     1857.942    97308.541    10.472245   0.15915833 
   69600   -1317.1565    115.42489   -1201.7316    1789.5106    93010.653    10.472245   0.13391866 
   69700   -1311.2709    111.26432   -1200.0066    1725.0064    96493.549    10.472245   0.16895584 
   69800   -1307.3926    119.37684   -1188.0158    1850.7803    100021.45    10.472245   0.16249014 
   69900   -1312.7014    119.35337    -1193.348    1850.4166    96439.236    10.472245    0.1786374 
   70000   -1313.3719    112.27786    -1201.094    1740.7202    94832.859    10.472245   0.18045692 
   70100    -1302.391    115.78642   -1186.6046    1795.1157    102686.93    10.472245   0.17971587 
   70200   -1315.8259    119.96777   -1195.8581     1859.942    94502.756    10.472245   0.15051681 
   70300    -1312.501    116.40584   -1196.0952     1804.719    96210.569    10.472245   0.16694349 
   70400   -1306.3236    122.93047   -1183.3932    1905.8748    100923.96    10.472245   0.16723768 
   70500   -1306.7665    109.99582   -1196.7706    1705.3401    99764.885    10.472245   0.16076206 
   70600   -1316.5002    122.61341   -1193.8868    1900.9592    94161.635    10.472245   0.15520591 
   70700   -1309.2561    120.49795   -1188.7581    1868.1617    98654.542    10.472245    0.1523314 
   70800   -1310.4962    119.06833   -1191.4278    1845.9973    98079.765    10.472245   0.15743515 
   70900   -1310.5075    116.76833   -1193.7392     1810.339    97150.336    10.472245   0.17286115 
   71000   -1305.9133    121.18021   -1184.7331    1878.7393    100677.31    10.472245   0.16559838 
   71100   -1305.9209    111.26349   -1194.6574    1724.9937    100223.32    10.472245   0.16871408 
   71200   -1307.5748    109.99541   -1197.5794    1705.3337    98908.603    10.472245   0.15232247 
   71300   -1307.7815    117.17945    -1190.602    1816.7128    98880.879    10.472245   0.15633638 
   71400   -1311.0437    118.66008   -1192.3836     1839.668    97720.401    10.472245   0.14543491 
   71500   -1310.3279    110.75731   -1199.5706     1717.146    96794.425    10.472245   0.14668698 
   71600   -1309.1244    120.21654   -1188.9079    1863.7989    98833.398    10.472245   0.16084054 
   71700    -1305.665    119.57895   -1186.0861    1853.9139    100989.35    10.472245   0.18346043 
   71800   -1314.9777    109.63031   -1205.3474    1699.6733    92834.206    10.472245   0.14503745 
   71900    -1309.601    112.92446   -1196.6765    1750.7447    97243.494    10.472245    0.1499268 
   72000   -1305.3991    118.65457   -1186.7445    1839.5826    101135.44    10.472245   0.16516206 
   72100   -1313.4231    116.22463   -1197.1985    1801.9095    94805.884    10.472245   0.14208659 
   72200   -1311.6073    113.72069   -1197.8866    1763.0893    96031.916    10.472245   0.17827607 
   72300   -1300.8686    111.25518   -1189.6134    1724.8647    102776.53    10.472245   0.17295244 
   72400   -1311.4657     117.1939   -1194.2718    1816.9367     96849.64    10.472245    0.1676211 
   72500   -1320.0099    120.82503   -1199.1848    1873.2327    91456.968    10.472245   0.16127033 
   72600   -1301.5554    115.96125   -1185.5942    1797.8262    104286.87    10.472245    0.1894518 
   72700   -1306.1359    112.62772   -1193.5082    1746.1442    99607.062    10.472245   0.18177559 
   72800   -1310.6356    115.58195   -1195.0537    1791.9456     97852.36    10.472245    0.1481557 
   72900   -1302.0566     115.3665   -1186.6901    1788.6053    102931.58    10.472245   0.17182825 
   73000   -1297.2887    118.61747   -1178.6713    1839.0074    107146.76    10.472245    0.1823973 
   73100   -1307.2642    112.36702   -1194.8972    1742.1024    98925.324    10.472245   0.17214395 
   73200   -1307.7127    120.29893   -1187.4137    1865.0763    99451.821    10.472245   0.16508142 
   73300   -1301.4592    120.88589   -1180.5734    1874.1763    103325.48    10.472245   0.18698332 
   73400   -1311.1678    112.50378    -1198.664    1744.2227    95796.176    10.472245   0.15787173 
   73500    -1307.424    117.82024   -1189.6038    1826.6474    98968.288    10.472245   0.14522386 
   73600   -1304.6484    117.04367   -1187.6048    1814.6077    100737.59    10.472245   0.17750202 
   73700   -1313.4849    111.38326   -1202.1017    1726.8505    94336.089    10.472245   0.15771084 
   73800    -1305.379    116.79488   -1188.5841    1810.7505     100320.6    10.472245   0.16726886 
   73900   -1306.1721    115.47838   -1190.6937    1790.3399    100053.49    10.472245   0.17123189 
   74000   -1312.6973    106.11494   -1206.5823    1645.1722    94824.584    10.472245   0.15786067 
   74100   -1303.7875    112.74213   -1191.0454     1747.918    101683.28    10.472245    0.1728349 
   74200   -1306.4183    116.24979   -1190.1685    1802.2997    100308.48    10.472245   0.17689204 
   74300   -1312.5911    113.79033   -1198.8007    1764.1689    94735.692    10.472245   0.15103157 
   74400   -1311.6823    114.23878   -1197.4435    1771.1215    96076.806    10.472245   0.14915783 
   74500   -1304.4845    118.94713   -1185.5374    1844.1183    101122.59    10.472245   0.16685035 
   74600   -1311.8749    114.00828   -1197.8666     1767.548    95838.214    10.472245   0.16803663 
   74700    -1310.923    111.61639   -1199.3066    1730.4648    96918.601    10.472245   0.15469856 
   74800   -1302.0381    115.61798   -1186.4201    1792.5043    103508.87    10.472245   0.15694274 
   74900   -1312.0168    114.91693   -1197.0998    1781.6355    96640.948    10.472245   0.14847429 
   75000   -1311.6975    119.03113   -1192.6663    1845.4207     96934.48    10.472245   0.16053782 
   75100   -1313.8048    129.64754   -1184.1573    2010.0141    96950.387    10.472245    0.1602745 
   75200   -1308.9273    112.10539   -1196.8219    1738.0461    98190.652    10.472245    0.1739699 
   75300   -1311.8594    120.59301   -1191.2664    1869.6355    96896.106    10.472245   0.16363075 
   75400    -1304.904    120.36205    -1184.542    1866.0549    101329.57    10.472245   0.15735325 
   75500   -1304.5203    118.19344   -1186.3269    1832.4334     101272.7    10.472245   0.17841638 
   75600   -1309.5722    112.30202   -1197.2701    1741.0947    97738.103    10.472245   0.15519149 
   75700   -1298.8588    115.68928   -1183.1696    1793.6096    105877.06    10.472245   0.16533716 
   75800   -1301.6181    117.00045   -1184.6176    1813.9376    103659.96    10.472245   0.15243827 
   75900   -1303.1646    108.66696   -1194.4976    1684.7378    101511.32    10.472245   0.17189546 
   76000    -1311.385    119.70637   -1191.6787    1855.8894    97097.017    10.472245   0.16140161 
   76100   -1301.8293    119.56797   -1182.2613    1853.7436    103988.79    10.472245     0.165001 
   76200   -1310.6486    114.70501   -1195.9436    1778.3499    96795.015    10.472245   0.14477297 
   76300   -1308.9113    115.75355   -1193.1578    1794.6061    98051.254    10.472245   0.17367508 
   76400   -1310.5101    120.91022   -1189.5999    1874.5534    98559.963    10.472245   0.15889113 
   76500   -1305.6977     113.6053   -1192.0924    1761.3003    101453.71    10.472245   0.15598195 
   76600   -1311.1751    111.74308    -1199.432     1732.429    96477.214    10.472245   0.14758975 
   76700   -1310.5853    114.69009   -1195.8952    1778.1186    97369.909    10.472245   0.15669357 
   76800   -1303.3503     116.0158   -1187.3345    1798.6719     102002.5    10.472245    0.1738028 
   76900   -1316.2927    116.16115   -1200.1315    1800.9254     94025.88    10.472245   0.14386226 
   77000    -1311.973    116.97583   -1194.9972    1813.5558    96308.292    10.472245   0.15657476 
   77100   -1307.6646    116.23658    -1191.428    1802.0948    99217.956    10.472245   0.16872597 
   77200   -1309.9796    113.14725   -1196.8323    1754.1988    96704.197    10.472245   0.16468184 
   77300    -1305.322    118.61079   -1186.7112    1838.9039    101048.33    10.472245   0.17999316 
   77400   -1306.4354    118.86578   -1187.5696    1842.8571    100505.56    10.472245   0.17642563 
   77500   -1308.4315    113.14494   -1195.2865     1754.163     98032.25    10.472245   0.16613672 
   77600   -1305.1801    117.45288   -1187.7272     1820.952    100898.58    10.472245    0.1689827 
   77700   -1305.5878    124.76076   -1180.8271     1934.251    102418.93    10.472245   0.16037821 
   77800   -1314.0314     117.8076   -1196.2238    1826.4514    94774.446    10.472245   0.14912552 
   77900   -1310.6264    118.33385   -1192.2926    1834.6102    97579.379    10.472245   0.16506935 
   78000   -1298.3791    117.64892   -1180.7302    1823.9913    105869.06    10.472245   0.20934819 
[...]
   81400   -1305.2818    109.60937   -1195.6724    1699.3487    100734.03    10.472245   0.15955281 
   81500   -1303.9999    115.39513   -1188.6048    1789.0493    102153.17    10.472245   0.15890111 
   81600   -1309.8581    108.51741   -1201.3407    1682.4192    96882.847    10.472245   0.15807749 
   81700   -1305.0003    114.80421   -1190.1961    1779.8878    101697.11    10.472245   0.17409363 
   81800   -1307.6049    117.97262   -1189.6323    1829.0098    100067.85    10.472245   0.16324888 
   81900    -1311.877    113.45867   -1198.4183    1759.0269    95932.231    10.472245   0.16486385 
   82000   -1303.3216    120.06956   -1183.2521    1861.5201    102838.77    10.472245   0.16748207 
   82100   -1308.6079    119.86297   -1188.7449    1858.3172    99019.729    10.472245   0.15761151 
   82200   -1305.8593    112.08856   -1193.7707    1737.7852    100930.08    10.472245   0.16435627 
   82300   -1303.8938    110.53567   -1193.3581    1713.7097    101478.25    10.472245   0.16084092 
   82400   -1305.5254    122.39423   -1183.1311     1897.561       101607    10.472245   0.18387843 
   82500   -1312.6565    116.55977   -1196.0967    1807.1055    95786.563    10.472245    0.1645284 
   82600   -1310.0373    115.30158   -1194.7357    1787.5989    98278.455    10.472245   0.15795813 
   82700   -1304.7166    114.22327   -1190.4933    1770.8811    100249.94    10.472245   0.17413809 
   82800   -1304.5488    113.24185   -1191.3069    1755.6655     100690.3    10.472245   0.14832014 
   82900   -1311.7082    112.96732   -1198.7409    1751.4093    96513.294    10.472245   0.15708965 
   83000   -1312.2518    111.39471    -1200.857    1727.0281    95606.001    10.472245   0.17098682 
   83100   -1310.2905    121.79952    -1188.491    1888.3409    97829.538    10.472245   0.19306269 
   83200   -1306.7293    113.18501   -1193.5443    1754.7842    99482.697    10.472245   0.17465571 
   83300   -1315.4651    115.74062   -1199.7244    1794.4057    93729.344    10.472245   0.14245571 
   83400   -1305.0576    121.19504   -1183.8625    1878.9692    101538.94    10.472245   0.16591807 
   83500   -1306.8808    112.16092   -1194.7198    1738.9071    99023.085    10.472245   0.17806199 
   83600   -1310.6254    123.55342    -1187.072    1915.5328    99019.055    10.472245   0.15611761 
   83700   -1299.1508    114.98088   -1184.1699    1782.6269    105520.01    10.472245   0.16670121 
   83800   -1307.1864    113.34693   -1193.8395    1757.2946    98743.732    10.472245   0.14624429 
   83900   -1303.0145    113.57335   -1189.4412    1760.8049    103126.34    10.472245   0.16356372 
   84000   -1304.7697    123.03143   -1181.7382      1907.44    102344.91    10.472245   0.18542755 
   84100   -1306.6371    114.79824   -1191.8389    1779.7952    98648.482    10.472245   0.17855434 
   84200   -1305.1354    114.85857   -1190.2768    1780.7306    100375.63    10.472245   0.15951425 
   84300   -1303.3939    120.69258   -1182.7013    1871.1791    102782.69    10.472245   0.18344214 
   84400   -1306.9555    112.68968   -1194.2658    1747.1048    99505.884    10.472245   0.16832048 
   84500   -1309.0052    113.76793   -1195.2373    1763.8217    97502.097    10.472245   0.15846989 
   84600   -1297.7421    119.26784   -1178.4743    1849.0905    106892.35    10.472245   0.18153684 
   84700   -1303.5061    113.48071   -1190.0254    1759.3688    102901.94    10.472245   0.16821462 
   84800   -1310.1951    115.48061   -1194.7145    1790.3746     97394.94    10.472245   0.15563308 
   84900   -1302.3126    122.29756    -1180.015    1896.0623    103464.59    10.472245   0.16924159 
   85000   -1312.8901    121.39157   -1191.4985    1882.0161    96955.681    10.472245   0.13881741 
   85100   -1309.0714    115.59358   -1193.4778     1792.126    99010.141    10.472245   0.14826107 
   85200   -1303.2843    115.96669   -1187.3177    1797.9105    102286.35    10.472245   0.16825008 
   85300   -1304.6851    121.61558   -1183.0695    1885.4891    102356.69    10.472245   0.15911214 
   85400   -1312.1088    115.69053   -1196.4183     1793.629    97053.759    10.472245   0.14447226 
   85500   -1305.3896    116.77338   -1188.6162    1810.4173    101743.61    10.472245   0.16014067 
   85600   -1305.9967    124.08722   -1181.9095    1923.8087    101954.16    10.472245   0.15266702 
   85700   -1307.3545     116.6183   -1190.7362    1808.0129    100364.01    10.472245   0.17143657 
   85800   -1308.2148    109.34228   -1198.8725    1695.2079    97374.576    10.472245   0.17335818 
   85900   -1311.4786    110.53583   -1200.9428    1713.7122    94998.797    10.472245   0.16540146 
   86000   -1298.2612    112.60944   -1185.6518    1745.8608    104877.65    10.472245   0.16830383 
   86100   -1310.6542    115.81334   -1194.8409     1795.533    96529.913    10.472245   0.15341238 
   86200    -1313.115    113.65977   -1199.4552    1762.1448    95272.348    10.472245   0.16448869 
   86300   -1308.7054    115.73108   -1192.9743    1794.2578    98221.431    10.472245   0.15623608 
   86400   -1311.3966    124.07348   -1187.3231    1923.5956    96796.828    10.472245   0.15553281 
   86500    -1308.725    116.82723   -1191.8977     1811.252    97871.581    10.472245    0.1449638 
   86600   -1308.7252     108.2033   -1200.5219    1677.5494    97461.498    10.472245   0.15233575 
   86700   -1302.8171    116.64213    -1186.175    1808.3824    103076.47    10.472245   0.16168945 
   86800   -1310.4756    117.74539   -1192.7302    1825.4869    97120.138    10.472245   0.15170798 
   86900   -1309.1583     105.2013    -1203.957    1631.0073    97045.935    10.472245   0.14746233 
   87000   -1306.6696     111.6755   -1194.9941    1731.3813    99936.267    10.472245   0.17101983 
   87100   -1307.7134    119.46112   -1188.2523     1852.087    99752.328    10.472245   0.16507863 
   87200   -1314.1171    115.31892   -1198.7982    1787.8677    93943.195    10.472245   0.16487188 
   87300   -1309.2488    119.50212   -1189.7467    1852.7226      99159.1    10.472245   0.15273778 
   87400   -1308.0992     120.3625   -1187.7367    1866.0617    99992.024    10.472245   0.16295022 
   87500   -1308.7683    111.84788   -1196.9204    1734.0538    98346.537    10.472245   0.16280214 
   87600   -1301.0483    122.32818   -1178.7201    1896.5371    104141.65    10.472245   0.17709992 
   87700   -1307.9742     120.7997   -1187.1745      1872.84    99670.886    10.472245   0.17288265 
   87800   -1308.7254    112.52019   -1196.2052    1744.4771     98481.33    10.472245   0.16605122 
   87900   -1303.9058    122.31402   -1181.5918    1896.3175    102777.31    10.472245   0.17136617 
   88000   -1301.9551    114.91476   -1187.0403    1781.6017    102812.65    10.472245   0.17651752 
   88100   -1310.7517    116.70376   -1194.0479    1809.3379    96550.673    10.472245    0.1624847 
   88200   -1309.5836    123.33877   -1186.2448     1912.205    97956.605    10.472245   0.18025616 
   88300   -1305.8952     124.0639   -1181.8313    1923.4471    101584.48    10.472245   0.18610914 
   88400   -1309.9277    115.05813   -1194.8695    1783.8246    97970.067    10.472245   0.15656096 
   88500   -1305.3995    114.13438   -1191.2651    1769.5029    101104.09    10.472245   0.18162869 
   88600   -1300.2852     119.2746   -1181.0106    1849.1953    103933.88    10.472245   0.16905811 
   88700   -1302.7902    111.56314   -1191.2271    1729.6393    101871.79    10.472245   0.18279428 
   88800   -1305.8336    109.52129   -1196.3123    1697.9831    99633.389    10.472245    0.1701996 
   88900   -1304.6316    112.24683   -1192.3848    1740.2391    100954.01    10.472245   0.16783566 
   89000   -1306.1827    120.55856   -1185.6241    1869.1014    100014.38    10.472245   0.17388791 
   89100   -1312.9167    113.67478   -1199.2419    1762.3775    94897.632    10.472245   0.15457217 
   89200   -1307.0253    112.63645   -1194.3889    1746.2796    98583.563    10.472245   0.18325688 
   89300   -1306.5275    118.97621   -1187.5513    1844.5692    101172.65    10.472245   0.17175573 
   89400   -1323.2754    120.94897   -1202.3264    1875.1541    89426.387    10.472245   0.14388614 
   89500   -1308.1327    115.28894   -1192.8438    1787.4029    98547.246    10.472245   0.16073259 
   89600   -1308.5589    119.96129   -1188.5976    1859.8416    99359.889    10.472245   0.16277131 
   89700   -1308.0672     109.7813   -1198.2859    1702.0142    97993.214    10.472245   0.16039549 
   89800   -1307.4591    110.41873   -1197.0404    1711.8968    98600.705    10.472245   0.14966836 
   89900   -1306.0325    116.31673   -1189.7158    1803.3374    100300.79    10.472245   0.16972209 
   90000   -1307.6579    113.76027   -1193.8976    1763.7029    99337.478    10.472245   0.16948009 
   90100   -1314.8968    113.55351   -1201.3433    1760.4973    94175.769    10.472245   0.16201436 
   90200   -1307.3578    120.39623   -1186.9616    1866.5848    100898.17    10.472245   0.15667378 
   90300   -1307.7579    115.66406   -1192.0939    1793.2186    99172.478    10.472245    0.1599061 
   90400   -1315.2947    106.43499   -1208.8597    1650.1341    92690.252    10.472245   0.14316768 
   90500   -1312.5053    113.23487   -1199.2704    1755.5573    95669.503    10.472245   0.14443184 
   90600   -1307.7729     120.1975   -1187.5754    1863.5037    99592.037    10.472245   0.16479272 
   90700   -1310.7013    121.12357   -1189.5777    1877.8612    97066.063    10.472245   0.16615287 
   90800   -1314.1183    116.47303   -1197.6453    1805.7606    95764.455    10.472245   0.15319049 
   90900   -1309.6446    123.74114   -1185.9034     1918.443    99162.822    10.472245   0.16497638 
   91000   -1309.5169    120.24143   -1189.2755    1864.1848    98609.168    10.472245   0.15426639 
   91100   -1310.7362    112.97318    -1197.763    1751.5002    97392.388    10.472245   0.16683646 
   91200   -1306.7626    126.03127   -1180.7314    1953.9486    101783.06    10.472245   0.15533865 
   91300   -1308.1876    115.41238   -1192.7752    1789.3166    98792.882    10.472245   0.15763288 
   91400   -1307.8536    111.56585   -1196.2878    1729.6813    98086.373    10.472245   0.15495935 
   91500   -1304.2439     124.7015   -1179.5424    1933.3322    102692.26    10.472245   0.16481409 
   91600   -1305.9402    112.75447   -1193.1858    1748.1093    100500.11    10.472245   0.18157394 
   91700   -1308.8765    115.03731   -1193.8392    1783.5017    99494.944    10.472245   0.16160274 
   91800   -1303.5234    125.14247   -1178.3809     1940.169    102687.96    10.472245   0.17701475 
   91900   -1309.0663    121.89369   -1187.1726    1889.8009    98811.248    10.472245   0.15473415 
   92000   -1303.2811    109.55705    -1193.724    1698.5376    100628.58    10.472245   0.17295931 
   92100   -1301.8677    116.10077   -1185.7669    1799.9892    104033.51    10.472245   0.16952096 
   92200   -1301.8445    116.82279   -1185.0217    1811.1832    103219.97    10.472245   0.18984751 
   92300   -1313.4811    117.58562   -1195.8954    1823.0099    95041.526    10.472245   0.14404705 
   92400    -1302.364    114.03517   -1188.3289    1767.9649    103154.43    10.472245   0.16415101 
   92500   -1296.8929    121.10846   -1175.7845    1877.6269    107221.43    10.472245   0.18389932 
   92600   -1315.1303     119.5807   -1195.5496     1853.941    95436.249    10.472245   0.15744056 
   92700    -1311.736    119.75689   -1191.9791    1856.6726    96411.696    10.472245   0.17140163 
   92800   -1303.2566    119.22733   -1184.0292    1848.4625    103083.03    10.472245   0.16665667 
   92900   -1311.2088    111.71368   -1199.4951    1731.9732    96954.919    10.472245   0.18427967 
   93000   -1311.2105    124.19955    -1187.011    1925.5501    98097.542    10.472245   0.14894559 
   93100   -1313.7909    119.83926   -1193.9517    1857.9496    96511.377    10.472245    0.1588729 
   93200   -1322.0541    110.12896   -1211.9252    1707.4042    89024.745    10.472245   0.13471946 
   93300   -1313.9509    115.44684   -1198.5041    1789.8509    94824.928    10.472245   0.16546607 
   93400    -1303.793    119.12366   -1184.6693    1846.8551    102602.16    10.472245   0.15651371 
   93500   -1309.3608    115.40052   -1193.9603    1789.1328    97917.354    10.472245   0.13961485 
   93600   -1311.2147    113.48788   -1197.7268    1759.4799    97380.393    10.472245   0.14886281 
   93700   -1310.8114    119.55562   -1191.2558    1853.5521    97471.586    10.472245   0.15873102 
   93800   -1303.5914    110.47465   -1193.1168    1712.7636    101802.68    10.472245   0.17247609 
   93900   -1313.8584    123.47114   -1190.3873    1914.2572    95485.065    10.472245   0.14125206 
   94000   -1307.4219    119.26941   -1188.1525    1849.1149    100167.49    10.472245   0.16310791 
   94100   -1309.1208    108.36088   -1200.7599    1679.9925    97404.746    10.472245   0.16398504 
   94200   -1301.2575    115.98751     -1185.27    1798.2333    104120.82    10.472245   0.16558392 
   94300   -1306.1267    115.82732   -1190.2994    1795.7497    100492.19    10.472245   0.16100404 
   94400   -1312.2019     113.2818   -1198.9201    1756.2849    95632.846    10.472245   0.15209903 
   94500   -1305.3998    125.21787   -1180.1819    1941.3379    101779.46    10.472245   0.17719055 
   94600    -1307.348    116.17681   -1191.1712    1801.1681    99598.239    10.472245   0.17061639 
   94700   -1311.9519    114.94604   -1197.0059    1782.0867    96365.424    10.472245   0.15639909 
   94800   -1300.4773    121.27591   -1179.2014    1880.2229    104939.83    10.472245   0.16659325 
   94900   -1307.0514    116.06895   -1190.9824    1799.4959     99655.11    10.472245   0.16370588 
   95000   -1312.2408     116.7161   -1195.5248    1809.5291    96843.626    10.472245   0.14856667 
   95100   -1304.6562    120.90016    -1183.756    1874.3975    102378.08    10.472245   0.16183896 
   95200   -1302.9984    111.09974   -1191.8986    1722.4549    102067.42    10.472245   0.16931606 
   95300   -1311.7034    116.34808   -1195.3554    1803.8235    95953.468    10.472245   0.15220402 
   95400   -1300.3684    115.02468   -1185.3437     1783.306    104556.83    10.472245   0.17337956 
   95500   -1298.2172    124.40658   -1173.8106    1928.7598    105980.43    10.472245    0.1713934 
   95600   -1309.2079    116.88008   -1192.3278    1812.0714    98531.289    10.472245   0.15661832 
   95700   -1312.9733     115.9118   -1197.0615    1797.0595    95946.541    10.472245   0.16219647 
   95800   -1300.0081    115.61963   -1184.3885    1792.5298    104319.33    10.472245   0.18441469 
   95900   -1313.2985    117.92438   -1195.3742    1828.2619    95503.844    10.472245   0.15722734 
   96000    -1314.105    118.08133   -1196.0237    1830.6952    96349.872    10.472245   0.15015982 
   96100   -1306.3991    121.21525   -1185.1839    1879.2825    101230.43    10.472245    0.1583507 
   96200   -1311.3271    111.59002   -1199.7371     1730.056    97004.438    10.472245   0.16860497 
   96300   -1313.1404    119.05994   -1194.0804    1845.8673    95486.355    10.472245   0.16332414 
   96400   -1309.5562    119.34132   -1190.2149    1850.2298    98584.955    10.472245   0.16410721 
   96500    -1313.013    110.18576   -1202.8272    1708.2849    95143.986    10.472245   0.15711966 
   96600   -1304.9796     109.3054   -1195.6742     1694.636    100419.87    10.472245     0.178272 
   96700   -1307.5155    118.60622   -1188.9092     1838.833    100607.43    10.472245     0.192232 
   96800   -1304.7793    110.38425    -1194.395    1711.3622    100880.84    10.472245   0.16413854 
   96900   -1311.5569    112.98382   -1198.5731     1751.665    96033.876    10.472245   0.15090533 
   97000   -1296.9678    111.53484    -1185.433    1729.2005     106144.8    10.472245    0.1674767 
   97100   -1307.7223    113.22127    -1194.501    1755.3464    98917.693    10.472245   0.16541704 
   97200   -1310.8823    117.47716   -1193.4051    1821.3284    98185.745    10.472245   0.15019087 
   97300   -1303.5268    119.74928   -1183.7776    1856.5545    102383.78    10.472245   0.17325332 
   97400   -1312.3544    114.40899   -1197.9455    1773.7604    95819.518    10.472245   0.18039748 
   97500   -1305.8484    114.90402   -1190.9444    1781.4352    100332.29    10.472245   0.16482916 
   97600   -1309.1663    120.44003   -1188.7262    1867.2638     98606.57    10.472245   0.16087345 
   97700   -1306.0844    113.46481   -1192.6195    1759.1222    99554.744    10.472245   0.19547726 
   97800   -1306.5357    125.35406   -1181.1816    1943.4493    100769.71    10.472245   0.17695348 
   97900   -1301.4149    117.76322   -1183.6517    1825.7633     104197.2    10.472245   0.18418052 
   98000   -1308.3848    115.45673   -1192.9281    1790.0043     98601.76    10.472245    0.1647149 
   98100   -1311.7278    120.80288   -1190.9249    1872.8893    96981.054    10.472245   0.14826013 
   98200   -1300.7722    119.50242   -1181.2698    1852.7274    104913.49    10.472245   0.16341102 
   98300   -1312.0564    115.20131   -1196.8551    1786.0444    95900.849    10.472245   0.14851451 
   98400    -1307.059    117.48558   -1189.5735    1821.4589    100175.85    10.472245   0.15514824 
   98500   -1304.4671    119.78309    -1184.684    1857.0788    101835.27    10.472245   0.16730603 
   98600   -1314.6249    115.48459   -1199.1403    1790.4363    94309.851    10.472245   0.13919054 
   98700   -1305.8958    119.18541   -1186.7104    1847.8125     100757.5    10.472245   0.16748392 
   98800   -1303.7209    115.08392   -1188.6369    1784.2243    102498.76    10.472245   0.17814379 
   98900   -1310.5061    117.65391   -1192.8522    1824.0687    98144.081    10.472245   0.15968223 
   99000   -1305.1526    116.65853    -1188.494    1808.6367    101838.75    10.472245   0.16795536 
   99100   -1305.5084    115.33455   -1190.1738      1788.11    102010.52    10.472245   0.16133242 
   99200   -1312.9068    112.57626   -1200.3305    1745.3464    95704.012    10.472245   0.14743506 
   99300   -1298.4717    112.30553   -1186.1662    1741.1491    105229.27    10.472245    0.1727863 
   99400    -1310.368     119.2094   -1191.1586    1848.1844    97576.475    10.472245   0.14132053 
   99500    -1310.718    112.02171   -1198.6963    1736.7489     96800.14    10.472245   0.14950305 
   99600   -1300.0752    118.52108   -1181.5541    1837.5131    104614.48    10.472245   0.15994174 
   99700   -1308.7403    116.75224    -1191.988    1810.0895    98695.597    10.472245   0.15750285 
   99800   -1310.7171    117.95739   -1192.7597    1828.7738    96768.211    10.472245   0.16505486 
   99900   -1304.7092    126.22237   -1178.4868    1956.9114    102018.13    10.472245   0.15724818 
  100000   -1309.1296    115.70495   -1193.4247    1793.8527    98369.158    10.472245   0.14741895 
Loop time of 147.661 on 1 procs for 100000 steps with 500 atoms

Performance: 292.561 ns/day, 0.082 hours/ns, 677.225 timesteps/s
100.0% CPU use with 1 MPI tasks x no OpenMP threads

MPI task timing breakdown:
Section |  min time  |  avg time  |  max time  |%varavg| %total
---------------------------------------------------------------
Pair    | 88.311     | 88.311     | 88.311     |   0.0 | 59.81
Neigh   | 6.7467     | 6.7467     | 6.7467     |   0.0 |  4.57
Comm    | 1.1753     | 1.1753     | 1.1753     |   0.0 |  0.80
Output  | 0.037297   | 0.037297   | 0.037297   |   0.0 |  0.03
Modify  | 51.119     | 51.119     | 51.119     |   0.0 | 34.62
Other   |            | 0.2719     |            |       |  0.18

Nlocal:    500 ave 500 max 500 min
Histogram: 1 0 0 0 0 0 0 0 0 0
Nghost:    1962 ave 1962 max 1962 min
Histogram: 1 0 0 0 0 0 0 0 0 0
Neighs:    25626 ave 25626 max 25626 min
Histogram: 1 0 0 0 0 0 0 0 0 0

Total # of neighbors = 25626
Ave neighs/atom = 51.252
Neighbor list builds = 6043
Dangerous builds = 1
Total wall time: 0:02:27
