LAMMPS (3 Mar 2020)
Reading data file ...
  orthogonal box = (0 0 0) to (12.27 12.27 12.27)
  1 by 1 by 1 MPI processor grid
  reading atoms ...
  108 atoms
  read_data CPU = 0.000890749 secs
Reading potential file /usr/share/lammps-stable/potentials/Ag_u3.eam with DATE: 2007-06-11
Neighbor list info ...
  update every 1 steps, delay 10 steps, check yes
  max neighbors/atom: 2000, page size: 100000
  master list distance cutoff = 7.55
  ghost atom cutoff = 7.55
  binsize = 3.775, bins = 4 4 4
  2 neighbor lists, perpetual/occasional/extra = 1 1 0
  (1) pair eam, perpetual
      attributes: half, newton on
      pair build: half/bin/atomonly/newton
      stencil: half/bin/3d/newton
      bin: standard
  (2) compute rdf, occasional, copy from (1)
      attributes: half, newton on
      pair build: copy
      stencil: none
      bin: none
Setting up Verlet run ...
  Unit style    : metal
  Current step  : 0
  Time step     : 0.005
Per MPI rank memory allocation (min/avg/max) = 3.723 | 3.723 | 3.723 Mbytes
Step PotEng KinEng TotEng Temp Press Density c_msdall[4] 
       0       -307.8    41.492507   -266.30749         3000    23991.314    10.472245            0 
     100   -281.26218    30.303914   -250.95827      2191.04    108141.14    10.472245   0.15948901 
     200   -269.90063    42.702961   -227.19767    3087.5185    146341.19    10.472245   0.22429059 
     300   -260.08346     45.87784   -214.20562    3317.0693    178591.21    10.472245   0.30233558 
     400   -259.37753     35.82673    -223.5508    2590.3518    173250.77    10.472245    0.5024046 
     500   -256.55527    42.055683   -214.49958    3040.7189    188189.63    10.472245   0.85113965 
     600   -251.90099    43.210963   -208.69003    3124.2482    202260.31    10.472245    2.3142307 
     700   -255.16402    40.661098   -214.50292    2939.8873    195576.53    10.472245    4.0504262 
     800   -255.69694    44.251808   -211.44513    3199.5036    195767.35    10.472245    5.4687388 
     900   -243.10605    38.316805   -204.78925    2770.3897    221043.62    10.472245    6.4222235 
    1000   -256.87859    39.523376   -217.35521    2857.6275    185246.51    10.472245    7.6628064 
    1100   -253.47179    42.381282   -211.09051    3064.2604    201494.79    10.472245     9.144111 
    1200     -253.198    43.867668   -209.33033    3171.7294    196774.58    10.472245    11.789446 
    1300   -258.30331    45.797721   -212.50559    3311.2765     183679.5    10.472245    13.002602 
    1400   -254.04379    44.931622   -209.11217    3248.6557    194287.44    10.472245    13.983502 
    1500   -257.11582    40.909311    -216.2065    2957.8336    185089.17    10.472245    15.435081 
    1600   -256.76481    39.178117   -217.58669    2832.6645     187620.5    10.472245    16.702326 
    1700   -250.19392    41.114781   -209.07914    2972.6896    206613.29    10.472245    17.405426 
    1800   -255.21102    39.693582   -215.51744    2869.9338    186534.24    10.472245    18.689002 
    1900   -250.63142    39.294241   -211.33717    2841.0606    206551.83    10.472245    20.082249 
    2000    -247.1076    40.093728   -207.01388    2898.8652     212132.3    10.472245    21.545585 
    2100   -249.26434    34.605286   -214.65905    2502.0387    207140.71    10.472245    23.320053 
    2200    -256.6282    48.380433   -208.24777    3498.0124    195434.32    10.472245    25.081292 
    2300   -255.21087    43.343087   -211.86778    3133.8011    190190.43    10.472245    28.674097 
    2400   -255.29015    44.357247    -210.9329    3207.1271    195990.09    10.472245    31.008415 
    2500   -253.13313    37.460802   -215.67233    2708.4988     188869.1    10.472245    31.847043 
    2600    -262.5063    34.967845   -227.53845    2528.2526    168967.16    10.472245    33.775958 
    2700   -254.53991    38.221777   -216.31813    2763.5191    193097.46    10.472245       34.727 
    2800    -252.7049    42.821133   -209.88376    3096.0626    200300.82    10.472245    36.355555 
    2900   -253.20118    35.617534   -217.58364    2575.2265    191054.06    10.472245    35.683273 
    3000   -259.77074    38.152137   -221.61861    2758.4839     176443.5    10.472245    38.766439 
    3100   -261.25128    50.353918   -210.89736    3640.6996    180576.42    10.472245     39.28406 
    3200   -252.01558    39.742251   -212.27333    2873.4527    195345.77    10.472245    40.191334 
    3300   -261.30171    41.694964   -219.60674    3014.6381    174196.16    10.472245    41.168143 
    3400   -251.54554    41.587696   -209.95784    3006.8824     200385.7    10.472245    43.813153 
    3500   -250.14465    41.878218   -208.26643    3027.8878    205184.47    10.472245    44.234462 
    3600   -255.53625    36.905966   -218.63028     2668.383    187538.75    10.472245    44.729571 
    3700    -253.5052    43.492286   -210.01292    3144.5885    198442.08    10.472245    45.303585 
    3800   -252.07875    43.629665   -208.44909    3154.5213    205746.14    10.472245    46.771665 
    3900   -254.71579    38.161007   -216.55478    2759.1252    191908.86    10.472245    49.050396 
    4000   -244.51508    40.948872   -203.56621     2960.694    218043.14    10.472245    51.733711 
    4100   -250.66141    39.639607   -211.02181    2866.0313    205911.42    10.472245    52.174504 
    4200   -256.60486    42.732687   -213.87217    3089.6678    188892.47    10.472245    55.287458 
    4300   -251.59647    48.057183   -203.53929    3474.6407     210779.2    10.472245    58.291741 
    4400   -253.53613     39.56668   -213.96945    2860.7585    197908.19    10.472245    60.199671 
    4500   -249.55933     39.55095   -210.00838    2859.6211    202969.83    10.472245    63.070718 
    4600    -250.6145    43.114095    -207.5004    3117.2444    204208.34    10.472245    66.729238 
    4700   -252.61957    37.915436   -214.70413    2741.3699    200834.68    10.472245    68.791333 
    4800   -253.63091    39.582202   -214.04871    2861.8808       195758    10.472245    72.470395 
    4900   -249.20564    45.360315   -203.84533    3279.6511    209753.06    10.472245     74.29086 
    5000   -253.41265    38.671147    -214.7415    2796.0095    195381.54    10.472245    76.001488 
    5100   -252.40692    39.549455   -212.85746    2859.5131     198334.9    10.472245    77.665405 
    5200   -250.55614    42.199752   -208.35639    3051.1354    206546.81    10.472245     79.54195 
    5300   -255.15258    36.478576   -218.67401    2637.4818    190513.07    10.472245    81.496861 
    5400    -254.7749    41.739994   -213.03491    3017.8939    195535.88    10.472245    82.842174 
    5500   -248.30968    42.188345   -206.12134    3050.3107     212709.3    10.472245    82.058781 
    5600   -254.06949    38.545022   -215.52447    2786.8903    195262.58    10.472245     86.53827 
    5700   -252.89699    38.087351   -214.80964    2753.7997     197735.9    10.472245    88.223236 
    5800   -253.83955    44.180327   -209.65922    3194.3353    199782.39    10.472245    89.994118 
    5900   -248.68319     42.05752   -206.62567    3040.8517    211841.06    10.472245    93.710144 
    6000   -254.08059    37.988931   -216.09166    2746.6838    195870.45    10.472245    98.104516 
    6100   -256.33018    44.607698   -211.72248    3225.2352    191883.49    10.472245    99.549922 
    6200   -249.26477    38.800213   -210.46455    2805.3412     205935.7    10.472245    99.141763 
    6300    -251.4332     32.40612   -219.02707    2343.0342    201105.79    10.472245    102.47289 
    6400   -244.22773    34.862582   -209.36515    2520.6418    216933.03    10.472245    103.56098 
    6500   -247.11546    38.625846   -208.48961    2792.7341    215375.63    10.472245    107.64619 
    6600   -255.59703    38.854081   -216.74295     2809.236    189270.22    10.472245     113.0642 
    6700   -253.16228    41.850397   -211.31188    3025.8763    202931.33    10.472245    112.18917 
    6800   -251.37495    41.173684   -210.20127    2976.9484    205993.36    10.472245    113.38182 
    6900   -254.34982    38.896065   -215.45376    2812.2716    191474.69    10.472245    115.07014 
    7000   -253.68196    35.522575   -218.15938    2568.3607    197164.57    10.472245    111.86217 
    7100   -251.82269    42.896913   -208.92578    3101.5417    204956.24    10.472245    113.61245 
    7200   -258.27452    43.509541   -214.76498    3145.8361    184734.32    10.472245    113.83566 
    7300   -257.23185    39.560975   -217.67088     2860.346    184225.65    10.472245    116.70324 
    7400    -252.8279    43.599194   -209.22871    3152.3182     199411.1    10.472245    118.80341 
    7500    -251.6892    40.744845   -210.94436    2945.9424    206567.53    10.472245    118.48561 
    7600   -247.36079    33.802817   -213.55798    2444.0184    209270.07    10.472245    119.10221 
    7700   -250.39981    44.966767   -205.43304    3251.1967    204782.48    10.472245    120.08642 
    7800   -252.79663    44.886968   -207.90966     3245.427    199405.19    10.472245    123.28602 
    7900   -252.79443    36.967839   -215.82659    2672.8565     197885.9    10.472245    126.53881 
    8000    -249.7285    43.182123   -206.54637     3122.163    208876.12    10.472245    129.50677 
    8100   -255.02788    40.255167   -214.77271    2910.5376    193991.66    10.472245    130.65244 
    8200   -251.39248     39.42834   -211.96414    2850.7562    199651.29    10.472245    133.89915 
    8300   -249.09116    44.238655   -204.85251    3198.5526     211369.4    10.472245    135.48128 
    8400   -253.26776    36.022296   -217.24547    2604.4916    196408.83    10.472245     132.4023 
    8500   -247.44959    39.181697    -208.2679    2832.9234     212141.3    10.472245    133.36254 
    8600   -250.12468    41.987994   -208.13669    3035.8248    204138.65    10.472245    135.28643 
    8700    -258.9026    36.482527   -222.42007    2637.7674    175716.52    10.472245    135.76923 
    8800    -253.8532    42.159981   -211.69322    3048.2599    202156.53    10.472245    137.18221 
    8900    -249.2332    44.200045   -205.03315     3195.761    206771.33    10.472245    139.08428 
    9000   -253.23392    39.383156   -213.85077    2847.4893    198391.06    10.472245    138.95462 
    9100   -258.79651    46.649306    -212.1472     3372.848    185054.76    10.472245    140.75442 
    9200   -251.40293    49.703719   -201.69922    3593.6888    205027.08    10.472245    144.39647 
    9300   -246.29017    44.842969    -201.4472    3242.2458    215793.77    10.472245    149.46726 
    9400   -247.67361    36.243709    -211.4299    2620.5003    215832.74    10.472245    154.39343 
    9500   -256.55429    40.771974   -215.78232    2947.9039     188361.6    10.472245    154.34995 
    9600   -247.34631    40.819614    -206.5267    2951.3484    217590.59    10.472245    153.85006 
    9700   -250.98402    42.418747   -208.56527    3066.9692    205442.88    10.472245    152.60361 
    9800   -255.91227    40.820458   -215.09181    2951.4094    189372.71    10.472245    155.77552 
    9900   -259.28197    37.665558   -221.61641    2723.3032    181252.51    10.472245    156.39052 
   10000   -250.74937    41.528362   -209.22101    3002.5924    202767.51    10.472245    156.11418 
   10100   -246.04453    38.063379   -207.98115    2752.0665    215655.13    10.472245    156.42356 
   10200   -255.59867    38.440693   -217.15798    2779.3471    186509.58    10.472245    157.94296 
   10300   -254.90637    47.292954   -207.61341    3419.3852    196741.66    10.472245    159.38369 
   10400   -255.67096    41.739064   -213.93189    3017.8266    188853.61    10.472245    161.27243 
   10500   -252.78725    40.910155    -211.8771    2957.8947    201846.01    10.472245    162.26155 
   10600    -255.5524    49.941329   -205.61107    3610.8685    196719.68    10.472245    161.66174 
   10700    -255.7179    39.879331   -215.83857    2883.3639    193976.94    10.472245    164.35909 
   10800   -256.27126    46.332658    -209.9386    3349.9536    192236.29    10.472245     162.5383 
   10900     -253.355    43.811112   -209.54389    3167.6403       205881    10.472245    162.55836 
   11000   -250.37709    40.974439   -209.40265    2962.5426    209829.06    10.472245    162.84277 
   11100   -261.86981    41.505902   -220.36391    3000.9685    172383.99    10.472245    164.04728 
   11200   -255.84061    42.439154   -213.40145    3068.4447    192567.14    10.472245    162.17526 
   11300   -251.03556    39.683735   -211.35183    2869.2218    203353.78    10.472245    160.95195 
   11400    -247.7082    36.359286   -211.34891    2628.8568    210932.41    10.472245    164.78732 
   11500   -253.66842    37.810252   -215.85817    2733.7649     198146.3    10.472245    167.86211 
   11600   -248.28971    43.446522   -204.84319    3141.2796    211965.31    10.472245    169.87098 
   11700   -249.94073    42.371796   -207.56893    3063.5746    209473.02    10.472245    173.78169 
   11800   -252.08855    38.789877   -213.29867    2804.5939    201534.33    10.472245    173.52316 
   11900   -248.86476    36.235117   -212.62964    2619.8791    206883.09    10.472245    176.57888 
   12000   -251.58366    46.350568   -205.23309    3351.2486    206218.05    10.472245     179.9039 
   12100    -257.5963    41.382206    -216.2141     2992.025    185745.23    10.472245    180.85672 
   12200   -253.74088    40.836241   -212.90464    2952.5506    194846.33    10.472245    182.05064 
   12300   -250.44527    39.640578   -210.80469    2866.1014     203460.7    10.472245    180.69468 
   12400   -250.85498    38.269554   -212.58543    2766.9734    203463.84    10.472245    183.54476 
   12500   -255.44384    41.147854   -214.29599    2975.0808    192727.87    10.472245    182.44408 
   12600    -253.1932    43.869318   -209.32388    3171.8488    199417.96    10.472245    182.05083 
   12700   -253.18644    46.380031   -206.80641    3353.3788    195220.96    10.472245    184.00084 
   12800   -253.76619    38.143368   -215.62282    2757.8498    198262.78    10.472245    185.25389 
   12900   -251.48695    42.982161   -208.50479    3107.7053    209051.39    10.472245    185.00153 
   13000   -249.54365    38.684979   -210.85868    2797.0095    206699.49    10.472245     190.7208 
   13100   -254.27017    35.682969    -218.5872    2579.9576    193319.23    10.472245    195.77343 
   13200   -253.16666    44.787518   -208.37914    3238.2367    200561.15    10.472245    195.96461 
   13300   -251.51666    40.769221   -210.74744    2947.7049    202694.27    10.472245    198.50118 
   13400   -254.24592    39.450199   -214.79572    2852.3367    196667.63    10.472245    199.11343 
   13500   -252.41155    43.251408   -209.16014    3127.1725    203745.27    10.472245     199.2165 
   13600   -251.80324    46.515932   -205.28731    3363.2048    200930.32    10.472245    202.47021 
   13700   -250.09306    36.157924   -213.93514    2614.2979    204817.62    10.472245    202.51662 
   13800   -254.46231     43.81288   -210.64943    3167.7682    200411.48    10.472245    205.45989 
   13900   -254.52584     43.33682   -211.18902     3133.348    191837.54    10.472245    210.50804 
   14000   -258.21502    40.856326    -217.3587    2954.0028    183307.21    10.472245     216.3444 
   14100   -252.57822      44.5085   -208.06972     3218.063    201009.58    10.472245    221.11206 
   14200    -248.0722    39.700783   -208.37142    2870.4544    210067.98    10.472245    224.12653 
   14300   -248.42274    38.795763   -209.62698    2805.0195    211138.35    10.472245    224.69502 
   14400   -252.00971    37.466946   -214.54276    2708.9431    196533.73    10.472245    223.39924 
   14500    -253.7822    38.512917   -215.26928    2784.5691    191911.05    10.472245     225.6586 
   14600   -256.90179     47.34909    -209.5527     3423.444    190901.45    10.472245     228.0133 
   14700   -254.55933    37.578944   -216.98038    2717.0408    190782.94    10.472245    229.46572 
   14800   -253.31071    35.575537   -217.73517      2572.19    193098.22    10.472245    231.83708 
   14900   -251.61682    44.481807   -207.13501     3216.133    203701.64    10.472245    232.74903 
   15000   -252.16091    39.108647   -213.05227    2827.6417    202598.79    10.472245    236.76604 
   15100   -255.72275     38.21953   -217.50322    2763.3566       188566    10.472245    236.52936 
   15200   -254.78713    44.369266   -210.41786     3207.996    192059.29    10.472245    236.58031 
   15300   -252.37725    42.875719   -209.50153    3100.0094    199925.55    10.472245    234.33919 
   15400   -253.71381    38.060295   -215.65352    2751.8435     194745.8    10.472245    234.45233 
   15500   -258.29632    40.362078   -217.93425    2918.2675    181574.28    10.472245    236.08834 
   15600   -246.70023    40.122371   -206.57786    2900.9362     217514.1    10.472245    237.35306 
   15700   -253.19886    42.050695   -211.14816    3040.3583    196807.08    10.472245    238.59705 
   15800   -256.60801    35.626895   -220.98112    2575.9033    186762.34    10.472245      238.551 
   15900   -254.99803    46.006987   -208.99104    3326.4069    193997.37    10.472245    238.74375 
   16000   -254.77896    44.064169   -210.71479    3185.9369    194262.65    10.472245    239.17883 
   16100   -259.94371    41.153207    -218.7905    2975.4679    176353.43    10.472245    241.58121 
   16200   -249.73983     41.47752   -208.26231    2998.9165     206283.1    10.472245    242.83223 
   16300   -253.26241    44.287663   -208.97475     3202.096    203152.57    10.472245    246.26754 
   16400    -258.0067     45.30608   -212.70062    3275.7298    187963.87    10.472245    249.93543 
   16500   -250.37673    32.572113   -217.80462    2355.0358    201361.79    10.472245    253.85192 
   16600   -249.75393    43.218964   -206.53497    3124.8267    209988.83    10.472245    254.77531 
   16700   -254.33809    41.282715   -213.05538    2984.8316    194044.25    10.472245     255.9443 
   16800   -260.05682    37.049013   -223.00781    2678.7256    172751.49    10.472245     256.2569 
   16900    -251.5849    38.062783   -213.52212    2752.0234    201986.53    10.472245    256.89519 
   17000   -255.71148    48.021219   -207.69026    3472.0404    195827.14    10.472245    254.48149 
   17100    -255.5147    40.120914   -215.39379    2900.8308    187966.06    10.472245    257.03314 
   17200   -258.22381    41.828456   -216.39535    3024.2899    184346.48    10.472245    256.42792 
   17300   -249.35649    41.359557   -207.99693    2990.3874    208474.92    10.472245    253.30073 
   17400    -251.2357    38.339288   -212.89642    2772.0153    204336.81    10.472245       255.81 
   17500   -253.54952    42.963661   -210.58586    3106.3677    205616.12    10.472245     259.5528 
   17600   -249.32357    42.603026   -206.72055     3080.293    211659.03    10.472245    263.52693 
   17700     -253.324     35.87863   -217.44537    2594.1043     196856.5    10.472245    264.52111 
   17800    -252.8676    39.438967   -213.42863    2851.5246    197251.73    10.472245    265.12357 
   17900   -250.27711    43.463444   -206.81366    3142.5032    209715.14    10.472245    266.75842 
   18000   -250.60586    43.348489   -207.25737    3134.1917    207449.36    10.472245    271.76348 
   18100   -254.32844    36.907243    -217.4212    2668.4753    193286.38    10.472245     274.6518 
   18200    -251.1829    43.534587   -207.64831    3147.6469    207254.14    10.472245    274.13425 
   18300   -251.84256    41.120738   -210.72183    2973.1203    200366.32    10.472245    276.05525 
   18400   -252.54941    36.974471   -215.57494    2673.3361    197526.65    10.472245    278.02025 
   18500   -258.16511    34.379101   -223.78601     2485.685    180536.82    10.472245    279.70041 
   18600   -250.30801    37.116946   -213.19107    2683.6373    205216.24    10.472245    284.44456 
   18700   -249.20954     44.30802   -204.90152    3203.5678    213844.59    10.472245    282.36057 
   18800   -254.83829    41.029661   -213.80862    2966.5352     192668.1    10.472245    284.96722 
   18900   -253.15656    39.839171   -213.31739    2880.4602    199000.61    10.472245    286.94339 
   19000    -251.7137    44.749881   -206.96382    3235.5154    203947.78    10.472245    289.08516 
   19100   -246.80909    45.058068   -201.75102     3257.798    217012.27    10.472245    285.48044 
   19200   -257.51856    43.709345   -213.80921    3160.2823    186229.62    10.472245    287.99991 
   19300   -247.28022     38.83624   -208.44398    2807.9461    215647.49    10.472245    288.52813 
   19400   -246.50646     42.20484   -204.30162    3051.5033     220758.1    10.472245     288.6855 
   19500   -255.51668    44.350835   -211.16585    3206.6635    193234.11    10.472245    291.49477 
   19600   -250.92795    36.274409   -214.65354      2622.72    202560.36    10.472245    291.68313 
   19700   -245.22673    42.932909   -202.29382    3104.1443    224970.04    10.472245    294.34371 
   19800   -252.44512    39.264217    -213.1809    2838.8897    193706.64    10.472245    299.55381 
   19900   -257.43234    43.237826   -214.19451    3126.1905    186565.64    10.472245    304.60783 
   20000   -248.95513    45.408605   -203.54653    3283.1426    213448.22    10.472245    308.48313 
   20100   -250.22063    37.583084   -212.63755    2717.3401    201804.03    10.472245    311.37838 
   20200   -251.80819    40.342241   -211.46595    2916.8332    200087.41    10.472245    311.54811 
   20300   -253.64606    45.904181   -207.74188    3318.9738    200852.94    10.472245    316.82323 
   20400   -251.43552    43.215707   -208.21981    3124.5912    205859.02    10.472245    314.71563 
   20500   -252.16713    40.680207   -211.48692    2941.2689    200893.58    10.472245    316.18532 
   20600   -243.93406    41.896344   -202.03771    3029.1983    224513.07    10.472245    319.43285 
   20700   -251.78773    39.078029    -212.7097     2825.428    204401.16    10.472245    317.17354 
   20800   -250.82968     41.26474   -209.56494     2983.532    204226.71    10.472245    319.36561 
   20900   -253.39313    45.461185   -207.93195    3286.9442    203641.02    10.472245    323.72613 
   21000   -257.63285    41.271354    -216.3615    2984.0102    185324.73    10.472245     325.3267 
   21100   -254.44981    44.750274   -209.69953    3235.5438    200587.19    10.472245     326.1058 
   21200   -249.74229    41.994032   -207.74826    3036.2614    209426.55    10.472245    327.71998 
   21300   -255.54064    38.778576   -216.76206    2803.7768    190699.93    10.472245    328.46981 
   21400    -253.4767    45.655204    -207.8215    3300.9722    202949.91    10.472245     329.3973 
   21500   -249.99329    40.597818   -209.39547    2935.3121    203767.09    10.472245    332.18529 
   21600   -252.59553    40.491931    -212.1036    2927.6561    199168.14    10.472245    334.70226 
   21700   -249.91034    45.960078   -203.95026    3323.0153    212286.49    10.472245    334.71866 
   21800    -250.4848    42.523119   -207.96168    3074.5156    205208.45    10.472245    340.72412 
   21900   -248.94271    35.646394   -213.29632    2577.3131    212895.41    10.472245    338.14356 
   22000   -250.90918     41.78557   -209.12361    3021.1892    204515.37    10.472245    338.16434 
   22100   -249.04831    42.478242   -206.57007    3071.2708    209382.28    10.472245    336.46141 
   22200   -250.35594    35.130217   -215.22572    2539.9924    207614.07    10.472245    336.44945 
   22300   -247.83908    44.828951   -203.01013    3241.2323    216943.97    10.472245    337.19233 
   22400   -247.40202    38.489036   -208.91298    2782.8424    213286.59    10.472245     342.0135 
   22500   -252.83933    40.245468   -212.59386    2909.8364    199763.44    10.472245    346.14418 
   22600   -248.82372    38.598895   -210.22482    2790.7855    206183.14    10.472245     352.2766 
   22700   -250.52523    39.451448   -211.07378     2852.427    205548.46    10.472245     353.9983 
   22800   -254.80688    34.061901   -220.74498    2462.7508     190529.1    10.472245    355.10029 
   22900   -252.48032    43.508605   -208.97172    3145.7684    201647.13    10.472245    352.57847 
   23000   -255.19917    42.453002   -212.74617    3069.4459    194804.19    10.472245    352.24765 
   23100   -252.85559    36.157022   -216.69857    2614.2327    194490.59    10.472245    350.54946 
   23200   -247.46077    41.305783   -206.15498    2986.4995    218968.28    10.472245    352.26928 
   23300   -257.86392     43.72401   -214.13991    3161.3426    187511.45    10.472245    351.03862 
   23400   -251.59698    46.273189   -205.32379    3345.6539    204633.55    10.472245    359.39137 
   23500   -248.81677    43.627411   -205.18935    3154.3583    211556.48    10.472245    360.60332 
   23600   -252.82531    38.733401   -214.09191    2800.5106    206151.26    10.472245    364.95619 
   23700   -249.85182    41.744763   -208.10706    3018.2387    207910.84    10.472245    365.23562 
   23800   -249.46463     45.14369   -204.32094    3263.9886    212883.14    10.472245    368.14101 
   23900   -255.65078    39.789049   -215.86173    2876.8362    186673.98    10.472245    366.59364 
   24000   -254.84723    46.063288   -208.78394    3330.4776    194968.65    10.472245    364.40846 
   24100    -249.1507    42.842631   -206.30807     3097.617    213395.85    10.472245    369.02022 
   24200   -250.93738    36.496907   -214.44047    2638.8071     202106.8    10.472245    368.57293 
   24300   -250.90633    37.417323   -213.48901    2705.3552     202618.7    10.472245     372.7198 
   24400   -253.58896    44.005492   -209.58347    3181.6944    198722.57    10.472245    372.24359 
   24500   -249.00559    39.032048   -209.97354    2822.1034     209132.7    10.472245    378.30213 
   24600   -252.58261    35.100131   -217.48248    2537.8171    195425.04    10.472245    385.89416 
   24700   -253.13378    47.621862   -205.51192     3443.166    205964.37    10.472245    386.85573 
   24800   -250.46506    37.999396   -212.46566    2747.4404    204204.62    10.472245    390.44266 
   24900     -245.826     40.13934   -205.68666    2902.1631    218976.06    10.472245    393.45956 
   25000   -250.02537    43.807908   -206.21746    3167.4087    210780.39    10.472245    393.13342 
   25100   -255.81354    42.431811   -213.38173    3067.9138    191719.83    10.472245    394.12466 
   25200   -252.17262    44.829941   -207.34268    3241.3039    203230.17    10.472245    393.48009 
   25300   -253.98108    44.672037   -209.30904    3229.8871    196680.35    10.472245    399.07974 
   25400     -250.541    37.896751   -212.64425    2740.0189    205249.09    10.472245    404.83611 
   25500   -253.91735    44.181779   -209.73558    3194.4404    196498.67    10.472245    403.61504 
   25600   -253.85599    35.328479   -218.52751    2554.3272    196285.73    10.472245    406.41385 
   25700   -249.01943    42.523377   -206.49606    3074.5342    209784.18    10.472245    411.88666 
   25800   -255.12555    41.419357    -213.7062    2994.7111    194668.37    10.472245    413.74718 
   25900   -248.92552    35.678872   -213.24665    2579.6614    202947.53    10.472245    415.20081 
   26000   -251.23761    47.240743   -203.99687    3415.6102     208981.1    10.472245     415.4961 
   26100   -253.64182     38.59231   -215.04951    2790.3094    193392.65    10.472245    414.61629 
   26200   -251.36377    42.023994   -209.33978    3038.4277    199388.11    10.472245    419.62936 
   26300   -250.66428    44.575401   -206.08888    3222.9001    205968.69    10.472245    421.26736 
   26400   -254.46516    37.237139   -217.22802    2692.3275    193317.79    10.472245    418.06497 
   26500   -253.54901    45.146081   -208.40293    3264.1615     200672.8    10.472245    418.26931 
   26600   -247.86821    41.500666   -206.36755      3000.59    215785.69    10.472245    422.26358 
   26700   -256.62042    40.302859   -216.31756    2913.9859    187051.37    10.472245    424.93127 
   26800    -257.3572    34.315643   -223.04156    2481.0969    183572.69    10.472245    428.32086 
   26900   -252.93172    40.947644   -211.98408    2960.6052    200435.71    10.472245    423.72679 
   27000   -250.53205    40.454537   -210.07751    2924.9525    205141.68    10.472245    429.08112 
   27100   -253.81579    36.798226   -217.01756    2660.5931    190773.72    10.472245    428.12659 
   27200   -246.10663    41.196691   -204.90994    2978.6119    218447.14    10.472245    439.60694 
   27300   -249.93691    40.384012   -209.55289    2919.8534    207427.08    10.472245    446.27298 
   27400   -258.95405    40.085884   -218.86817    2898.2981    181546.32    10.472245    447.88765 
   27500   -252.82633    37.929027    -214.8973    2742.3525    196719.43    10.472245    449.40729 
   27600    -256.1276    46.142538   -209.98506    3336.2076    193220.81    10.472245    451.35458 
   27700   -250.55498    39.775857   -210.77913    2875.8824    198836.79    10.472245    455.19868 
   27800   -250.04649    45.170367   -204.87612    3265.9174     210139.9    10.472245    458.96687 
   27900   -250.86984     41.87664    -208.9932    3027.7737    203521.48    10.472245    466.56066 
   28000   -247.61128    37.525718   -210.08557    2713.1924    213189.64    10.472245    473.80215 
   28100   -253.58704    45.027561   -208.55948    3255.5923    198472.38    10.472245    474.33736 
   28200   -254.68369    36.841878   -217.84181    2663.7493    190920.72    10.472245    472.07361 
   28300   -251.71714    43.203189   -208.51395    3123.6862     205914.5    10.472245    474.45721 
   28400   -250.83241    39.726577   -211.10583    2872.3194    203894.29    10.472245    478.28519 
   28500   -256.58411    34.283364   -222.30075     2478.763     187974.1    10.472245    481.37134 
   28600   -251.60595    38.884244   -212.72171    2811.4169    200426.64    10.472245    482.02018 
   28700   -250.38741     41.21891    -209.1685    2980.2184    205031.02    10.472245    482.77629 
   28800   -247.58038    37.147826   -210.43255      2685.87    213553.32    10.472245    481.86507 
   28900   -252.43197    37.042077   -215.38989    2678.2241    196838.82    10.472245    479.85181 
   29000   -250.22511    45.626182   -204.59893    3298.8739    205540.32    10.472245    483.14869 
   29100   -250.05642     39.40349   -210.65293    2848.9595    208633.94    10.472245     482.9046 
   29200   -255.78657    39.972061   -215.81451    2890.0684    190247.35    10.472245    482.95928 
   29300   -252.81039    38.499301   -214.31109    2783.5847    198501.59    10.472245    482.49202 
   29400   -252.88456    45.322825   -207.56173    3276.9405    200773.41    10.472245    484.37781 
   29500   -252.44182    37.755784   -214.68604    2729.8267    200515.94    10.472245    487.36595 
   29600   -255.43934    41.851227   -213.58811    3025.9363    190965.07    10.472245    489.26827 
   29700   -253.58344    45.478789   -208.10465    3288.2171    203465.66    10.472245    490.20617 
   29800   -248.85694    47.102769   -201.75417    3405.6344    214254.72    10.472245    487.20558 
   29900   -254.95465    40.461996   -214.49265    2925.4918    190983.98    10.472245     491.0695 
   30000   -248.77514    40.295446    -208.4797    2913.4499    210672.37    10.472245    498.46768 
   30100   -246.41075    40.141719   -206.26904    2902.3351    216420.89    10.472245    501.10961 
   30200   -252.46692    39.979878   -212.48705    2890.6336    199429.62    10.472245     499.9964 
   30300    -248.2657    35.617759   -212.64794    2575.2428    206641.09    10.472245    501.17609 
   30400   -247.94481    45.988248   -201.95656    3325.0521    216438.97    10.472245    507.67766 
   30500   -252.93443    42.501586   -210.43284    3072.9587    197457.92    10.472245    508.08375 
   30600   -250.90223     40.18301   -210.71922    2905.3205    205368.04    10.472245     505.1801 
   30700   -251.60824    40.812904   -210.79534    2950.8632    199609.46    10.472245    511.83609 
   30800   -255.65886    37.049088   -218.60977     2678.731    188186.62    10.472245    510.00639 
   30900   -251.70352    43.716578   -207.98695    3160.8053    202231.48    10.472245    514.54872 
   31000   -253.63942    40.472094   -213.16733    2926.2219    201741.57    10.472245    518.53361 
   31100   -249.82456    40.081497   -209.74306    2897.9809    208146.54    10.472245    520.56925 
   31200   -253.31865    45.684682   -207.63397    3303.1035    199783.11    10.472245    520.20451 
   31300   -258.21699    42.071866   -216.14512     3041.889    181111.23    10.472245    519.28516 
   31400   -253.46266    47.096515   -206.36615    3405.1822    198591.32    10.472245    519.81999 
   31500   -250.66736    42.724264    -207.9431    3089.0588    209815.08    10.472245    521.97297 
   31600   -254.54887    39.600984   -214.94788    2863.2387    189762.44    10.472245    521.57356 
   31700   -258.84641    34.667242   -224.17916    2506.5183    175397.52    10.472245    522.78186 
   31800   -255.28438    43.081201   -212.20318    3114.8661    194657.35    10.472245    529.90468 
   31900   -251.65485    45.349732   -206.30512    3278.8859    201851.05    10.472245    532.74741 
   32000   -256.83881    39.825631   -217.01317    2879.4812    184556.19    10.472245    537.64097 
   32100   -250.36176    41.168016   -209.19375    2976.5386    204984.71    10.472245    540.11066 
   32200   -250.84598    41.626923   -209.21905    3009.7186    204803.45    10.472245    542.64084 
   32300   -251.35836      35.6201   -215.73826     2575.412    200017.47    10.472245    549.48956 
   32400   -247.50988    41.482338   -206.02754    2999.2648    209894.07    10.472245    550.51984 
   32500   -251.90805    39.763391   -212.14466    2874.9811    199385.08    10.472245    549.31449 
   32600   -255.53735    33.847986   -221.68937    2447.2842    184691.17    10.472245    548.00146 
   32700   -252.71843    42.513963   -210.20447    3073.8535    200659.76    10.472245    552.90688 
   32800   -251.14602    39.964277   -211.18174    2889.5056    201826.85    10.472245    552.56903 
   32900    -255.1103      39.3763     -215.734    2846.9936    195036.94    10.472245    551.98883 
   33000       -247.5     41.51392   -205.98608    3001.5483     211982.5    10.472245    551.55862 
   33100   -253.90047    38.400403   -215.50007    2776.4341    197374.68    10.472245    552.38853 
   33200   -253.00434    40.178673   -212.82567     2905.007     198614.9    10.472245    552.42927 
   33300   -249.38945    42.839064   -206.55038    3097.3591    210664.57    10.472245    558.57348 
   33400   -249.67165    42.673576   -206.99807    3085.3939    210652.82    10.472245    562.08952 
   33500   -253.01303    38.923193   -214.08983    2814.2329    196820.92    10.472245    561.21612 
   33600   -246.34352     41.56653   -204.77699    3005.3521    217580.38    10.472245    557.77594 
   33700   -251.83965    45.358639   -206.48101    3279.5299    205054.75    10.472245    555.61658 
   33800   -250.73861    40.553678   -210.18493    2932.1206    206364.32    10.472245    559.99271 
   33900   -259.09555    41.884724   -217.21082    3028.3582    182803.11    10.472245      569.682 
   34000   -254.74584    34.431173   -220.31467    2489.4499    192072.33    10.472245    569.66394 
   34100   -251.75321    42.419464   -209.33375    3067.0211    201677.07    10.472245    567.68648 
   34200   -252.14784    45.205779   -206.94206    3268.4778     202886.9    10.472245     572.2346 
   34300   -245.16492    42.552023   -202.61289    3076.6054    220544.21    10.472245    577.71729 
   34400   -252.69081    38.428776   -214.26204    2778.4855    194939.63    10.472245    578.66685 
   34500   -255.49502    48.616657   -206.87837    3515.0918     197531.9    10.472245    576.80407 
   34600   -257.98286    44.700228   -213.28263    3231.9254    187594.67    10.472245    579.73757 
   34700   -254.29696    41.250169    -213.0468    2982.4784    199744.26    10.472245    577.94076 
   34800   -248.52896    44.031709   -204.49725    3183.5899    213054.53    10.472245    575.76667 
   34900   -255.78557    42.138418   -213.64715    3046.7008    192743.32    10.472245    576.50213 
   35000   -255.27999    40.906885    -214.3731    2957.6582    192388.32    10.472245    579.21851 
   35100   -252.02893    43.888116   -208.14082    3173.2078    202488.69    10.472245     582.8374 
   35200   -249.70325    36.587474   -213.11578    2645.3553    206725.78    10.472245    588.38983 
   35300   -248.44197    38.516321   -209.92565    2784.8152    205588.62    10.472245     587.2274 
   35400   -248.27747    41.718016   -206.55946    3016.3049    214210.81    10.472245    589.53369 
   35500   -252.08304    35.777678   -216.30536    2586.8053    203676.77    10.472245    596.16078 
   35600    -252.3836    42.240076   -210.14353    3054.0509    198685.17    10.472245    603.64575 
   35700   -250.10305    48.980961   -201.12209    3541.4318    211828.56    10.472245    604.83358 
   35800   -252.44716    39.189215   -213.25794    2833.4669    198007.03    10.472245    609.33474 
   35900   -253.43836    42.651742   -210.78661    3083.8153    199766.43    10.472245    608.30162 
   36000   -249.27021    45.024814    -204.2454    3255.3936    208329.98    10.472245    612.08767 
   36100   -252.03259    38.663066   -213.36952    2795.4252    205912.61    10.472245    608.14309 
   36200   -253.03349      45.2676   -207.76589    3272.9476     198814.3    10.472245    610.79855 
   36300   -253.85611    35.969438   -217.88667    2600.6699    196352.64    10.472245    612.34011 
   36400   -259.95812    37.153254   -222.80487    2686.2625    173828.76    10.472245    614.51078 
   36500   -250.88342    37.442876   -213.44054    2707.2027    208956.48    10.472245    613.03947 
   36600   -247.51355    41.824687   -205.68887    3024.0174    210762.25    10.472245    610.90255 
   36700    -255.2964    38.678807   -216.61759    2796.5633     193433.1    10.472245    605.54733 
   36800   -253.01851    42.286276   -210.73223    3057.3913    198076.44    10.472245    606.59969 
   36900   -253.60629    46.063878   -207.54241    3330.5203    201524.19    10.472245     604.1423 
   37000   -255.75068    36.556154   -219.19453    2643.0908    185983.17    10.472245    605.56785 
   37100   -254.02544    43.212714   -210.81273    3124.3748    195786.81    10.472245    610.29309 
   37200   -253.32271    45.803659   -207.51905    3311.7059    195559.93    10.472245    605.24674 
   37300    -254.4906    36.155238   -218.33537    2614.1037    194143.59    10.472245     605.7569 
   37400   -255.17788    46.497231   -208.68064    3361.8527    193106.74    10.472245     603.7274 
   37500   -255.65911    44.037834   -211.62127    3184.0328    193295.17    10.472245    606.53467 
   37600    -255.1538    40.423618   -214.73018     2922.717    192569.15    10.472245    610.93406 
   37700   -247.10139    42.232261   -204.86912    3053.4859    212570.68    10.472245    608.42991 
   37800   -249.35799    36.919067   -212.43892    2669.3302    206142.32    10.472245    608.13788 
   37900   -247.64557    41.097784   -206.54779    2971.4607     211610.8    10.472245    609.65778 
   38000   -249.72203    44.301364   -205.42067    3203.0866    210603.82    10.472245    610.17794 
   38100   -250.95654    39.333533   -211.62301    2843.9014    196595.74    10.472245    612.38488 
   38200   -255.07946    40.915921   -214.16353    2958.3116    192514.68    10.472245    614.06772 
   38300   -254.86852    36.934001   -217.93452      2670.41    193789.91    10.472245    624.29112 
   38400   -249.27853    40.270916   -209.00762    2911.6763     207702.6    10.472245    615.09678 
   38500   -254.91731    45.008682   -209.90863    3254.2273    196774.46    10.472245    621.45344 
   38600   -256.33913    39.149136      -217.19    2830.5691       185049    10.472245    627.19397 
   38700   -251.85569    44.502273   -207.35342    3217.6128    202563.31    10.472245    631.45339 
   38800   -250.13961     41.47886   -208.66075    2999.0133    205704.26    10.472245    629.14258 
   38900    -252.5851    44.281067   -208.30404    3201.6191    199738.27    10.472245    629.10472 
   39000   -256.24695     40.08079   -216.16616    2897.9298    184565.75    10.472245    625.51482 
   39100   -255.77137    34.945089   -220.82628    2526.6072    189936.92    10.472245     626.9412 
   39200   -252.76774    43.945556   -208.82218    3177.3609    202111.51    10.472245     634.2805 
   39300    -247.4976    37.020213   -210.47738    2676.6433     209215.3    10.472245    632.87282 
   39400   -254.17122    36.786478   -217.38474    2659.7437    195458.95    10.472245    639.13601 
   39500   -251.30503    42.333422   -208.97161       3060.8    205769.46    10.472245     638.4489 
   39600   -248.39831    40.995501   -207.40281    2964.0654    213809.76    10.472245    633.86452 
   39700   -254.05592    41.420948   -212.63497    2994.8262    192189.88    10.472245    643.55132 
   39800   -260.45878    43.358529   -217.10025    3134.9176    177203.63    10.472245    638.53717 
   39900   -249.43257    45.192736   -204.23983    3267.5348    210284.84    10.472245    636.36957 
   40000   -253.79706    42.630981   -211.16608    3082.3142    197774.62    10.472245    634.00992 
   40100   -252.54085    41.424624   -211.11622    2995.0919       195747    10.472245     632.6271 
   40200   -252.22484    40.354516   -211.87033    2917.7208    200992.25    10.472245    639.49281 
   40300   -249.96889    41.257609   -208.71128    2983.0164    207346.28    10.472245    639.07407 
   40400   -254.07894    42.721194   -211.35775    3088.8368    198140.14    10.472245    645.34182 
   40500   -250.71817    39.441767   -211.27641     2851.727    208525.57    10.472245    643.92119 
   40600   -251.59867    42.958539   -208.64013    3105.9974    199347.39    10.472245    647.36848 
   40700   -255.45953    38.747229   -216.71231    2801.5104    188189.25    10.472245    652.85563 
   40800   -252.02626    43.495304   -208.53096    3144.8067    202017.36    10.472245    655.56891 
   40900   -252.79976    41.793141   -211.00662    3021.7365    199158.54    10.472245    662.49871 
   41000   -250.94419    43.592087    -207.3521    3151.8043    203309.26    10.472245    664.07883 
   41100   -249.96504     42.17715   -207.78789    3049.5012    211304.86    10.472245    669.20307 
   41200   -254.20261    38.989764   -215.21284    2819.0462    194211.05    10.472245    670.75934 
   41300   -250.82277    41.179439   -209.64333    2977.3645    210732.57    10.472245    674.72707 
   41400   -251.36201    41.907435   -209.45458    3030.0002    205318.48    10.472245     670.8422 
   41500    -254.1183    38.053575   -216.06472    2751.3576    193452.53    10.472245    673.97023 
   41600    -258.3467    37.079291   -221.26741    2680.9147    179020.34    10.472245    672.95121 
   41700   -250.68134    38.414638   -212.26671    2777.4633    205324.23    10.472245    671.26043 
   41800   -248.99784    42.175709   -206.82213     3049.397    207439.64    10.472245    670.45011 
   41900   -255.48751    37.166339   -218.32117    2687.2085    191764.41    10.472245    673.76288 
   42000   -254.20573    37.250429    -216.9553    2693.2884    193507.87    10.472245    668.59244 
   42100   -249.60782    39.630993   -209.97683    2865.4085    204252.81    10.472245    671.31132 
   42200   -250.86461    41.742132   -209.12248    3018.0484    205429.06    10.472245    675.16429 
   42300   -256.00016    41.411483   -214.58868    2994.1418    189690.13    10.472245    676.47836 
   42400   -249.17131    45.279136   -203.89218    3273.7817    212383.42    10.472245    678.42325 
   42500   -252.86315    39.506779   -213.35637    2856.4275    196031.58    10.472245    672.97856 
   42600   -246.40583    39.721255   -206.68458    2871.9346    213657.21    10.472245    681.02638 
   42700    -251.0756    43.173467   -207.90213    3121.5372     203930.6    10.472245    687.05421 
   42800   -251.95202    37.490432   -214.46159    2710.6412     198734.6    10.472245    694.04391 
   42900   -258.01154    36.363481   -221.64806    2629.1601    178611.02    10.472245    696.62739 
   43000   -257.58516    44.106198   -213.47896    3188.9757    191433.43    10.472245      698.264 
   43100   -253.40438    43.728571   -209.67581    3161.6724    202143.29    10.472245    700.43185 
   43200   -253.68421    40.119592   -213.56461    2900.7353    195816.36    10.472245    701.09699 
   43300   -247.61294     37.01035   -210.60259    2675.9302    210481.29    10.472245    701.37653 
   43400   -249.01479    44.628887    -204.3859    3226.7672    211123.31    10.472245    706.91785 
   43500   -255.65675    38.529985   -217.12676    2785.8031    188483.42    10.472245    711.61398 
   43600   -252.06207    44.084931   -207.97714     3187.438     205465.5    10.472245    712.35989 
   43700   -251.81472    42.892379   -208.92234    3101.2139    202529.22    10.472245    717.82646 
   43800   -254.65919    33.898802   -220.76039    2450.9584    184615.85    10.472245    715.47027 
   43900   -255.39533    42.543203   -212.85213    3075.9677    191681.04    10.472245     718.5151 
   44000   -249.88312    40.975123     -208.908     2962.592    210571.67    10.472245    720.17283 
   44100   -254.43464    36.044768   -218.38987    2606.1165    190988.25    10.472245    724.07566 
   44200   -251.10701    45.657153   -205.44986    3301.1132    203340.46    10.472245    722.10577 
   44300   -249.34988    37.353756   -211.99613    2700.7592    206829.98    10.472245    719.67886 
   44400   -253.86121    35.550016    -218.3112    2570.3448    193038.57    10.472245    722.31227 
   44500   -248.95875     42.87449   -206.08426    3099.9205    209890.77    10.472245    727.33016 
   44600   -249.78954    40.198554   -209.59099    2906.4444    209280.99    10.472245    729.83185 
   44700   -252.15378    35.397135   -216.75665    2559.2912    196839.59    10.472245    724.23417 
   44800   -249.73937    44.392864    -205.3465    3209.7023    208727.74    10.472245    726.57213 
   44900   -257.01305    41.744861   -215.26819    3018.2458    187656.56    10.472245    736.03106 
   45000   -250.96792    43.927216    -207.0407    3176.0349     206646.7    10.472245    736.00225 
   45100   -249.77454    41.836975   -207.93757    3024.9059    207778.02    10.472245    736.75155 
   45200   -252.69819    40.329141   -212.36904    2915.8861    195944.44    10.472245    734.07226 
   45300   -249.51705    49.622869   -199.89418    3587.8432    211107.87    10.472245    740.16646 
   45400   -251.67228    46.000152   -205.67213    3325.9127    206718.65    10.472245    745.28299 
   45500   -251.31822    40.647334   -210.67088    2938.8921    208075.82    10.472245    754.28045 
   45600   -248.07039    45.553072   -202.51732    3293.5879    217492.78    10.472245    752.66173 
   45700   -253.06653    39.775351   -213.29118    2875.8459    193564.33    10.472245    756.91968 
   45800   -255.79772    40.434666   -215.36305    2923.5158    192189.58    10.472245    755.92266 
   45900   -244.75357    41.425658   -203.32792    2995.1667    222920.18    10.472245    764.31841 
   46000   -251.73209    41.232683   -210.49941    2981.2142    202489.24    10.472245    758.26288 
   46100   -247.51285    36.208839   -211.30401    2617.9791    212029.11    10.472245    754.26457 
   46200   -248.90584    45.146389   -203.75945    3264.1838    209762.55    10.472245    748.69163 
   46300   -251.49444    34.530428   -216.96402    2496.6263    198468.93    10.472245    753.38739 
   46400   -248.96482    41.854861   -207.10996    3026.1991    211607.02    10.472245     760.0382 
   46500    -249.8723    43.098667   -206.77363     3116.129    205378.34    10.472245    766.40124 
   46600   -253.48403     38.82985   -214.65418    2807.4841    201174.31    10.472245     758.5759 
   46700   -252.35669    44.788319   -207.56837    3238.2945    198681.91    10.472245    761.90751 
   46800   -254.15516     41.52863   -212.62653    3002.6118    196203.41    10.472245    766.82281 
   46900   -250.71757    37.238753   -213.47882    2692.4442    198340.42    10.472245    764.66105 
   47000    -251.3904    44.945919   -206.44448    3249.6894    206061.49    10.472245    766.28291 
   47100   -255.33971    42.259476   -213.08024    3055.4536    191032.39    10.472245    771.39871 
   47200   -252.17381    38.122096   -214.05171    2756.3119    203719.82    10.472245    769.76322 
   47300   -249.03392    45.822523   -203.21139    3313.0697    214748.67    10.472245    773.15203 
   47400   -253.90521     40.03079   -213.87442    2894.3146    195037.17    10.472245    776.66213 
   47500   -256.63847    44.329524   -212.30894    3205.1226    189855.66    10.472245    777.45454 
   47600   -249.66169    44.363269   -205.29842    3207.5625    211716.83    10.472245     781.9001 
   47700   -252.15015    40.359691   -211.79046    2918.0949    198830.49    10.472245    777.42714 
   47800   -256.64669    43.191123   -213.45556    3122.8137    190548.51    10.472245    777.08619 
   47900   -246.09929     45.11958   -200.97971    3262.2454    220665.42    10.472245    778.19116 
   48000   -248.90458    42.485681   -206.41889    3071.8087    213366.96    10.472245    785.32284 
   48100   -256.44322    41.363366   -215.07985    2990.6629    188583.84    10.472245    787.29005 
   48200   -250.30881    41.264099   -209.04472    2983.4856    208807.38    10.472245    792.41629 
   48300   -251.57607    46.648754   -204.92732    3372.8081    207650.58    10.472245    796.90955 
   48400    -251.0027    39.274832   -211.72787    2839.6572    205984.32    10.472245    791.48295 
   48500   -255.58001    43.691444   -211.88856     3158.988    191689.57    10.472245    792.68808 
   48600     -249.274    40.811556   -208.46245    2950.7658    209522.05    10.472245    795.78415 
   48700    -247.9897    39.776681   -208.21302     2875.942     208841.6    10.472245    795.61908 
   48800   -251.74528    37.165824   -214.57945    2687.1713    202166.06    10.472245    791.51542 
   48900   -251.99101    43.230164   -208.76084    3125.6365    200604.43    10.472245     798.1711 
   49000   -256.44439    35.130042   -221.31435    2539.9798    184192.63    10.472245    791.79741 
   49100   -254.35696    41.099015   -213.25794    2971.5497    195321.55    10.472245    794.90026 
   49200   -249.26511    39.511037   -209.75408    2856.7353    206077.81    10.472245    796.36778 
   49300   -257.19481    39.217276   -217.97754    2835.4958    188127.57    10.472245    792.49696 
   49400   -250.30923    42.141705   -208.16752    3046.9385    203322.65    10.472245     788.5324 
   49500   -253.86336    44.034286   -209.82908    3183.7763    195139.34    10.472245    786.97814 
   49600   -254.40896    38.894342   -215.51462     2812.147    192444.99    10.472245    785.41725 
   49700   -250.98023    43.844682   -207.13555    3170.0675    206228.01    10.472245    781.19727 
   49800     -253.499    41.374903    -212.1241     2991.497     203414.7    10.472245    779.42216 
   49900   -256.39178    40.985116   -215.40667    2963.3145    188274.24    10.472245    773.46203 
   50000   -250.11692     44.17092     -205.946    3193.6552    207635.12    10.472245    773.58772 
   50100   -255.78221    41.780635   -214.00158    3020.8324     190182.8    10.472245    778.73934 
   50200   -252.54812    40.442124   -212.10599     2924.055    197262.12    10.472245    784.83536 
   50300   -249.86921    41.525036   -208.34418     3002.352    205879.45    10.472245    782.40974 
   50400   -260.40674    39.565977   -220.84076    2860.7077    174590.41    10.472245    778.81073 
   50500   -251.80911    33.899069   -217.91004    2450.9777    198977.86    10.472245    781.01966 
   50600   -249.01489    42.325877   -206.68901    3060.2545    210758.12    10.472245    786.85489 
   50700   -252.84585     41.87021   -210.97564    3027.3088    197717.54    10.472245    787.20165 
   50800   -255.11324    39.964274   -215.14896    2889.5054    192090.96    10.472245    792.99332 
   50900   -251.19155    42.170365   -209.02119    3049.0107    205511.78    10.472245    798.16501 
   51000   -246.99195    47.071812   -199.92014    3403.3961    212600.33    10.472245    800.82602 
   51100   -248.77842    36.428143   -212.35028    2633.8353    209821.37    10.472245     801.7008 
   51200   -251.78994    41.572914   -210.21703    3005.8137    204099.36    10.472245    797.05822 
   51300   -251.92755    48.270877   -203.65667    3490.0912    208519.64    10.472245    790.79687 
   51400   -247.20126    37.616191   -209.58507    2719.7338    216217.08    10.472245    800.55916 
   51500   -254.12253    45.354167   -208.76836    3279.2066    199558.93    10.472245    798.79513 
   51600   -257.06148     38.11843   -218.94305    2756.0468    185668.08    10.472245    799.06919 
   51700   -249.39643    41.925384   -207.47104     3031.298    206444.91    10.472245     811.7754 
   51800    -249.3193    43.209464   -206.10984    3124.1398    206073.31    10.472245    807.11832 
   51900   -257.01147    42.972147   -214.03932    3106.9813    185102.38    10.472245    807.88179 
   52000   -253.04204    44.573091   -208.46894     3222.733    198122.84    10.472245    811.37518 
   52100   -249.60783    41.837212   -207.77061     3024.923    211265.13    10.472245    810.84599 
   52200   -258.69549    41.022989    -217.6725    2966.0529    179768.62    10.472245    809.72252 
   52300   -253.42091    40.925217   -212.49569    2958.9837    200043.69    10.472245    802.59985 
   52400   -249.09498    42.435403   -206.65958    3068.1735    213561.65    10.472245    803.65047 
   52500    -242.8111    42.316218   -200.49488    3059.5561    225844.87    10.472245    807.85404 
   52600   -249.43341    40.152106    -209.2813    2903.0861    211243.49    10.472245     811.0226 
   52700   -252.34062    39.328502   -213.01212    2843.5377    200830.42    10.472245    820.24129 
   52800   -257.63757    43.430421   -214.20715    3140.1155    189941.22    10.472245    817.83234 
   52900   -252.86348     47.44959   -205.41389    3430.7103    207623.95    10.472245    818.65159 
   53000   -251.66979    37.130822   -214.53897    2684.6406    195868.34    10.472245    822.04925 
   53100   -248.00979    40.911043   -207.09875    2957.9589    216681.17    10.472245    823.50822 
   53200   -249.66466    42.323954   -207.34071    3060.1155    208156.89    10.472245    822.51453 
   53300   -255.19461    38.997293   -216.19732    2819.5905    190579.37    10.472245    825.17218 
   53400   -250.15321    44.021562   -206.13165    3182.8563    209230.85    10.472245    824.49462 
   53500   -250.82415    43.124226   -207.69992    3117.9769    208427.28    10.472245    820.11496 
   53600   -260.22917    41.196017   -219.03316    2978.5631    178573.29    10.472245    821.88391 
   53700   -254.55567    38.965373    -215.5903    2817.2827    195437.58    10.472245    825.84597 
   53800   -249.76233    40.403563   -209.35877     2921.267    209911.56    10.472245    825.81651 
   53900   -246.29858    47.759743   -198.53883    3453.1351    218168.24    10.472245    825.82667 
   54000   -248.72151     39.87713   -208.84438    2883.2047    215692.06    10.472245    827.63465 
   54100   -251.94839    39.312316   -212.63608    2842.3674    197819.25    10.472245    821.25378 
   54200   -250.71047    45.979398   -204.73107    3324.4122    206311.32    10.472245     823.4321 
   54300   -251.99697    40.801617   -211.19535    2950.0472    199447.24    10.472245    827.54015 
   54400   -257.18402     43.15514   -214.02888    3120.2121    187430.46    10.472245    834.31882 
   54500   -248.07655    40.711738   -207.36481    2943.5487    210365.63    10.472245    835.05582 
   54600   -254.81796    50.102557    -204.7154    3622.5257    199766.77    10.472245    844.50103 
   54700   -249.91938    38.156392   -211.76299    2758.7915    208485.56    10.472245    845.60955 
   54800   -249.72932    38.540991   -211.18833    2786.5989    206049.54    10.472245    842.77404 
   54900   -248.13895    43.954926   -204.18402    3178.0384    214031.24    10.472245    851.61208 
   55000   -252.39085    36.916065   -215.47478    2669.1132    202927.34    10.472245    856.10552 
   55100   -253.75634    45.805037   -207.95131    3311.8055    198331.82    10.472245     853.9798 
   55200    -251.2241    43.359555   -207.86455    3134.9917    208548.67    10.472245     854.5759 
   55300   -253.52501    43.159594   -210.36541    3120.5341     199285.7    10.472245    856.48574 
   55400   -256.33609    43.447562   -212.88853    3141.3548    191361.77    10.472245    860.51843 
   55500   -244.42038    43.756754   -200.66363    3163.7101    223935.35    10.472245    860.87369 
   55600   -252.92336     40.82697   -212.09639    2951.8803    195501.28    10.472245    861.18204 
   55700    -254.8025    41.601365   -213.20113    3007.8707    193488.95    10.472245    860.02873 
   55800   -250.92566    46.163937   -204.76172    3337.7547    209139.87    10.472245    862.30356 
   55900   -253.63132    40.530055   -213.10127    2930.4127    194070.57    10.472245    857.62326 
   56000   -256.90927    44.520049   -212.38922     3218.898    187071.99    10.472245    862.09399 
   56100   -250.97322    45.603094   -205.37012    3297.2046    207877.15    10.472245     862.3512 
   56200   -247.03643    47.028516   -200.00791    3400.2657    219416.29    10.472245    863.66913 
   56300   -251.41648    41.226116   -210.19037    2980.7394    200887.76    10.472245     867.7629 
   56400   -256.56023    39.125723   -217.43451    2828.8763    187127.39    10.472245    870.95161 
   56500   -254.56032    37.374219    -217.1861    2702.2387    191930.81    10.472245    875.61933 
   56600   -250.65206    44.068711   -206.58335    3186.2653    207893.32    10.472245    871.87897 
   56700   -252.25632    39.972592   -212.28373    2890.1068     198861.5    10.472245    881.40993 
   56800   -254.49114    39.993503   -214.49764    2891.6187    194058.88    10.472245    883.72725 
   56900   -249.60356    41.943655   -207.65991     3032.619    207818.32    10.472245    889.16792 
   57000   -247.94835    40.291494   -207.65685    2913.1641    216638.74    10.472245    888.57883 
   57100   -251.90827    37.068604   -214.83967    2680.1421    202893.13    10.472245     889.6607 
   57200   -255.23899     40.99882   -214.24017    2964.3054    191045.44    10.472245    886.85691 
   57300   -250.40616    44.620184   -205.78598     3226.138    207650.79    10.472245    893.89061 
   57400   -251.67869    40.830732   -210.84796    2952.1522    207625.44    10.472245    891.65908 
   57500   -256.58363    45.776487   -210.80714    3309.7413    192816.44    10.472245    881.64075 
   57600   -257.69853    37.964937   -219.73359    2744.9489    182494.91    10.472245    881.05812 
   57700   -253.89233    42.876851   -211.01548    3100.0912    195906.52    10.472245    880.47171 
   57800   -250.16828    41.886067   -208.28221    3028.4553    208931.31    10.472245    891.60139 
   57900   -254.12292    38.263792   -215.85913    2766.5568    191580.13    10.472245    899.96006 
   58000   -255.25747    40.084496   -215.17297    2898.1977    193823.45    10.472245    903.35586 
   58100   -257.53366    50.117826   -207.41583    3623.6297    192493.33    10.472245    903.97094 
   58200   -253.45313    36.907091   -216.54604    2668.4643     194080.6    10.472245    902.84225 
   58300   -251.07005    39.945358   -211.12469    2888.1377    205855.41    10.472245    905.75636 
   58400   -254.16374    41.902915   -212.26082    3029.6734    193982.36    10.472245    908.64048 
   58500    -251.6104    40.457591   -211.15281    2925.1733    200424.36    10.472245    903.35996 
   58600   -244.33837    41.423698   -202.91467     2995.025    220535.12    10.472245    909.75628 
   58700   -254.37289    39.457809   -214.91508    2852.8868    192025.01    10.472245    907.55684 
   58800   -249.01764    40.412272   -208.60537    2921.8967    210724.28    10.472245     907.4109 
   58900   -249.89304    40.031769   -209.86127    2894.3855    205652.54    10.472245    905.78368 
   59000   -255.33787    40.437986   -214.89989    2923.7558    190245.54    10.472245    912.10893 
   59100   -250.98269    42.449927   -208.53276    3069.2236    202038.02    10.472245    915.68846 
   59200   -246.49311    42.202358   -204.29076    3051.3238    218442.78    10.472245     914.8077 
   59300   -252.86896    38.168043   -214.70091    2759.6339     199616.5    10.472245    924.68971 
   59400   -253.79418    41.943618   -211.85057    3032.6164    195375.65    10.472245     923.8867 
   59500   -244.74718    43.929599   -200.81758    3176.2071    225473.89    10.472245    925.92924 
   59600   -251.07335    42.064117   -209.00923    3041.3287    208643.34    10.472245    925.12041 
   59700   -255.15573    40.088627   -215.06711    2898.4964     193716.8    10.472245    916.90263 
   59800    -255.3241    33.073743   -222.25036    2391.3048    191388.68    10.472245    922.88741 
   59900   -254.23824    43.897051   -210.34119    3173.8539     197197.3    10.472245    917.84437 
   60000   -248.42404    40.700853   -207.72319    2942.7617    205598.85    10.472245    920.27065 
   60100    -254.3017    35.859116   -218.44259    2592.6934    192042.87    10.472245    927.56005 
   60200   -251.79254    40.597275   -211.19527    2935.2728    199679.03    10.472245    926.06852 
   60300   -248.98647    39.762221   -209.22425    2874.8965    210460.87    10.472245    937.76135 
   60400    -257.6725    42.660366   -215.01214    3084.4388    184357.77    10.472245     934.1099 
   60500   -258.28876    37.405472   -220.88328    2704.4983    177174.61    10.472245    935.70153 
   60600   -251.92805    40.146951    -211.7811    2902.7134    200323.76    10.472245    940.10253 
   60700   -247.71244    44.245622   -203.46682    3199.0564     216122.8    10.472245    942.62146 
   60800   -253.60809    39.814419   -213.79367    2878.6705    198850.27    10.472245    942.48889 
   60900   -250.81746    38.496353    -212.3211    2783.3715    201859.07    10.472245    947.59546 
   61000   -250.69019    42.651023   -208.03917    3083.7633    208473.25    10.472245    946.88942 
   61100   -258.63637    37.848407   -220.78796    2736.5235    178493.41    10.472245    951.62947 
   61200   -251.79571    40.011624   -211.78409    2892.9289    203774.45    10.472245    953.38132 
   61300   -247.94008    39.113862   -208.82622    2828.0187    209136.43    10.472245    962.73262 
   61400   -254.26478    42.971415   -211.29337    3106.9283    194087.05    10.472245    959.52961 
   61500   -251.10962    39.877295   -211.23232    2883.2166    203970.86    10.472245    963.40543 
   61600   -250.22267    47.892897   -202.32978    3462.7624    210541.84    10.472245    962.24794 
   61700   -257.62993    46.307004   -211.32293    3348.0988    187503.24    10.472245     963.2145 
   61800   -253.76442    42.067375   -211.69704    3041.5643    197351.43    10.472245    966.18651 
   61900   -250.11156    45.885258    -204.2263    3317.6057    215121.45    10.472245    962.46523 
   62000   -257.18549    44.801903   -212.38359    3239.2767    190180.43    10.472245    965.62971 
   62100   -253.66338    40.242039   -213.42134    2909.5884    192349.85    10.472245    961.01072 
   62200   -251.21988    45.455795   -205.76409    3286.5545    208689.82    10.472245    970.76542 
   62300   -247.07399    44.849295   -202.22469    3242.7033    216178.47    10.472245    964.83296 
   62400   -253.30019    40.498332   -212.80185     2928.119    200866.44    10.472245    969.46658 
   62500   -252.71743    45.056474   -207.66095    3257.6827    200579.74    10.472245    966.45682 
   62600   -251.44449    44.260679   -207.18381     3200.145    203808.67    10.472245    974.90126 
   62700   -251.71989    35.970727   -215.74916    2600.7632    197625.29    10.472245    978.28536 
   62800   -248.61134    42.261237   -206.35011    3055.5809    211194.91    10.472245    983.51608 
   62900   -245.51643    38.425324   -207.09111    2778.2359    220484.64    10.472245    988.56141 
   63000   -254.04372    34.206241   -219.83748    2473.1869    191968.88    10.472245    997.08045 
   63100   -250.63792    41.029494   -209.60842    2966.5232    203104.43    10.472245    997.83352 
   63200   -253.89118    43.641806   -210.24937    3155.3991    198993.63    10.472245    999.41467 
   63300   -257.19336    38.649508   -218.54385    2794.4449    182309.94    10.472245    998.46952 
   63400   -259.79902    35.793635   -224.00539     2587.959    173212.53    10.472245    999.68044 
   63500   -250.09242     38.59525   -211.49717    2790.5219    202841.58    10.472245    1007.0337 
   63600   -251.19782    42.805485   -208.39233    3094.9312    204292.79    10.472245    1019.9845 
   63700   -256.60243    38.926587   -217.67585    2814.4783    186275.52    10.472245    1022.1061 
   63800   -253.86432    48.888132   -204.97619    3534.7201    200488.53    10.472245    1020.9705 
   63900   -250.86065    40.887511   -209.97314    2956.2575    202624.35    10.472245    1027.5028 
   64000   -252.85684    38.176196   -214.68064    2760.2234    195023.52    10.472245    1018.9806 
   64100   -258.14208    42.150932   -215.99114    3047.6056    182146.92    10.472245    1026.2426 
   64200   -254.58743    46.861909   -207.72552    3388.2197     198114.5    10.472245    1023.4418 
   64300   -256.95131    41.591655   -215.35966    3007.1687    186394.36    10.472245    1022.2996 
   64400   -256.53365    41.678284   -214.85537    3013.4321    187198.14    10.472245    1019.9123 
   64500   -253.32069    40.925956   -212.39474    2959.0371    197323.19    10.472245     1021.021 
   64600   -257.17432    42.724799   -214.44953    3089.0975    188033.45    10.472245    1022.6372 
   64700   -248.79674    42.091753   -206.70499    3043.3269     212375.3    10.472245    1027.3385 
   64800     -254.141     43.00663   -211.13437    3109.4744    197021.65    10.472245    1034.0534 
   64900   -252.88487    38.588792   -214.29608     2790.055    195231.75    10.472245    1026.4046 
   65000   -246.28376    40.059761     -206.224    2896.4093    215282.43    10.472245    1026.2029 
   65100   -254.24802       43.551   -210.69703    3148.8336    201805.03    10.472245    1032.4635 
   65200   -256.03067    42.911021   -213.11965    3102.5618    196897.55    10.472245    1030.1685 
   65300   -254.20142    43.160474   -211.04095    3120.5977    196467.54    10.472245    1028.5719 
   65400   -251.97884    44.262971   -207.71587    3200.3107    202542.92    10.472245      1028.44 
   65500   -256.94568    38.874378    -218.0713    2810.7035    188182.72    10.472245    1032.0385 
   65600   -251.28826    40.583676   -210.70459    2934.2896    203331.97    10.472245    1031.8998 
   65700   -246.23214    37.577702   -208.65444    2716.9509    216599.17    10.472245    1030.4593 
   65800   -248.81562    44.926537   -203.88909     3248.288    214467.86    10.472245    1034.0001 
   65900   -249.97636    39.064826   -210.91153    2824.4733    202893.65    10.472245     1037.053 
   66000   -251.70336    40.780627   -210.92273    2948.5295    205502.15    10.472245    1039.4845 
   66100    -249.0765    45.573317   -203.50318    3295.0517    215775.35    10.472245    1041.5313 
   66200   -246.59548    36.275266   -210.32021     2622.782    214697.31    10.472245    1045.9918 
   66300   -256.71283    41.832744   -214.88008    3024.5999    188921.16    10.472245    1046.9311 
   66400   -249.11995    42.072143   -207.04781     3041.909    208874.32    10.472245    1055.5294 
   66500   -252.19598    44.452814   -207.74316    3214.0368    206257.72    10.472245    1063.5972 
   66600    -248.1027    34.645547   -213.45715    2504.9497    212366.89    10.472245    1066.5207 
   66700   -252.51814    43.844874   -208.67326    3170.0814    202453.95    10.472245    1071.1663 
   66800   -252.62298     40.34476   -212.27822    2917.0154    202453.41    10.472245    1084.6553 
   66900   -259.14054     41.79341   -217.34712     3021.756    180415.84    10.472245    1085.8955 
   67000   -250.68045     43.28339   -207.39706    3129.4848    207925.05    10.472245    1094.6875 
   67100   -251.14199     36.85164   -214.29035    2664.4551    202355.65    10.472245    1099.3709 
   67200   -251.62899    47.158145   -204.47084    3409.6382    209424.54    10.472245    1100.8959 
   67300   -255.86885    47.622073   -208.24678    3443.1812    193869.47    10.472245    1101.8416 
   67400   -251.19575    41.919268   -209.27648    3030.8558    208220.82    10.472245    1100.4382 
   67500   -250.82877    43.217145   -207.61163    3124.6952    206340.97    10.472245    1088.0351 
   67600   -256.96234    39.040279   -217.92206    2822.6986    186892.99    10.472245    1083.6326 
   67700   -253.61336    45.592889   -208.02047    3296.4668    201049.06    10.472245    1092.9872 
   67800   -250.31691     38.00791     -212.309    2748.0559    203143.57    10.472245    1087.0555 
   67900   -251.32713    46.957343   -204.36979    3395.1198    208159.43    10.472245    1085.0956 
   68000   -249.88794    41.907559   -207.98038    3030.0092    209837.93    10.472245     1093.134 
   68100   -253.19682    40.564002   -212.63281     2932.867    200360.09    10.472245    1093.7994 
   68200   -252.37808    47.791068   -204.58701    3455.3999     206566.3    10.472245    1100.5196 
   68300   -251.11251    46.417053   -204.69546    3356.0556    207415.71    10.472245    1101.2295 
   68400   -256.12573    43.457528    -212.6682    3142.0754    190288.81    10.472245    1103.9274 
   68500   -252.06356     44.43557   -207.62799      3212.79    205111.18    10.472245    1112.3128 
   68600   -251.21757    33.550808   -217.66676    2425.7976    205354.78    10.472245    1121.4525 
   68700   -251.06599    41.712989     -209.353    3015.9414    210602.72    10.472245    1118.2848 
   68800   -254.69131     42.71097   -211.98034    3088.0976    195798.54    10.472245    1121.2408 
   68900   -260.04211    40.918816    -219.1233    2958.5209       178985    10.472245      1127.63 
   69000   -253.86078    42.322086    -211.5387    3059.9804    195064.28    10.472245    1131.2202 
   69100   -248.83779    41.718728   -207.11906    3016.3563    211883.57    10.472245     1125.617 
   69200   -257.13792    38.476053   -218.66187    2781.9037    183942.74    10.472245    1132.9307 
   69300   -256.62828    42.319407   -214.30887    3059.7868    189080.19    10.472245    1137.7797 
   69400   -248.56758    37.754704   -210.81287    2729.7486     204585.1    10.472245    1134.3339 
   69500   -250.82852    41.447627   -209.38089    2996.7551    206531.35    10.472245    1128.4876 
   69600   -247.08259    48.216195   -198.86639    3486.1375    218358.02    10.472245    1135.7348 
   69700   -248.23355    38.088881   -210.14466    2753.9103    210606.35    10.472245    1141.6639 
   69800   -249.78131    38.989594   -210.79171    2819.0339    204258.29    10.472245    1141.4724 
   69900   -254.01781     41.23637   -212.78144    2981.4808    198299.16    10.472245    1148.4961 
   70000   -251.18398    47.056972   -204.12701    3402.3232    207554.98    10.472245    1143.0822 
   70100   -254.57256    38.766803   -215.80576    2802.9256    195796.73    10.472245    1149.4505 
   70200   -255.74724    44.259361   -211.48788    3200.0497    195411.17    10.472245    1153.6358 
   70300   -255.00962    40.255856   -214.75377    2910.5874    186894.43    10.472245     1153.367 
   70400   -259.22445    38.580376   -220.64407    2789.4465    176225.77    10.472245    1160.1059 
   70500   -249.78694    37.595101   -212.19184    2718.2089    207738.35    10.472245    1159.9485 
   70600   -246.44967    36.534719   -209.91495     2641.541    216914.36    10.472245    1162.5531 
   70700   -253.09272    53.259429   -199.83329    3850.7745     210696.4    10.472245    1174.0527 
   70800   -253.33152    44.149272   -209.18224      3192.09    202618.78    10.472245    1180.2836 
   70900   -254.87303    40.155435   -214.71759    2903.3267    197134.74    10.472245    1176.8441 
   71000   -250.04672      40.2281   -209.81862    2908.5806    203463.02    10.472245    1176.9245 
   71100   -253.22091    46.810851   -206.41006    3384.5281    200333.01    10.472245    1188.0264 
   71200   -255.05686    38.292251   -216.76461    2768.6144    191771.79    10.472245    1182.7235 
   71300   -250.85912    40.243477   -210.61565    2909.6924    205312.86    10.472245    1184.4746 
   71400   -249.76964    46.204732   -203.56491    3340.7043    212232.18    10.472245    1181.2745 
   71500   -251.30014     38.88138   -212.41876    2811.2098    205456.67    10.472245    1191.0654 
   71600   -253.49569    43.591853   -209.90383    3151.7874    202888.48    10.472245    1196.3767 
   71700    -250.2184    47.472585   -202.74581    3432.3729       209097    10.472245    1203.0735 
   71800   -254.50741    44.230332   -210.27708    3197.9508    198978.88    10.472245    1204.0917 
   71900   -253.69556    37.753222   -215.94234    2729.6415    195437.09    10.472245    1203.4685 
   72000   -246.41633    42.920026    -203.4963    3103.2128    218437.54    10.472245    1209.1437 
   72100   -250.88547    42.225556   -208.65992    3053.0011    204200.08    10.472245     1201.891 
   72200   -252.31155    37.183506   -215.12805    2688.4497    198747.65    10.472245    1203.2454 
   72300   -245.90617    45.622743   -200.28342    3298.6253    222646.66    10.472245    1209.1854 
   72400   -252.68643    41.321107   -211.36532    2987.6075    200395.68    10.472245    1213.7356 
   72500   -255.43049     42.64969    -212.7808    3083.6669    193981.81    10.472245    1209.0906 
   72600   -250.49836    50.278426   -200.21993    3635.2414    212234.96    10.472245    1213.9122 
   72700      -252.43    45.461226   -206.96878    3286.9472    204293.36    10.472245    1215.7183 
   72800   -252.35321    41.603906    -210.7493    3008.0544    201270.16    10.472245     1217.433 
   72900   -254.12764    40.679611   -213.44803    2941.2259    198418.58    10.472245    1218.4717 
   73000   -245.19426    42.370211   -202.82405      3063.46    220524.01    10.472245    1223.0372 
   73100   -253.08269    40.456265   -212.62642    2925.0775    197848.58    10.472245    1230.3962 
   73200   -250.91585    38.854838   -212.06101    2809.2907    204530.62    10.472245    1235.6245 
   73300   -246.06429    40.149288     -205.915    2902.8823    218160.34    10.472245    1248.2383 
   73400   -260.23073    40.477367   -219.75336    2926.6031    176615.19    10.472245    1244.4742 
   73500    -253.8139    43.055714   -210.75818    3113.0234     198864.2    10.472245    1240.5252 
   73600   -250.09458    41.766534   -208.32804    3019.8128    207114.95    10.472245    1230.5593 
   73700   -260.40821    41.148383   -219.25983    2975.1191    176421.91    10.472245    1236.4741 
   73800   -254.67527    42.671912   -212.00335    3085.2736    193808.53    10.472245    1229.3746 
   73900   -253.61271    42.654642   -210.95807    3084.0249    196908.88    10.472245    1231.2731 
   74000   -255.74194    45.851985   -209.88995    3315.1999    198185.01    10.472245    1227.7732 
   74100   -259.27632    45.619829   -213.65649    3298.4146    184093.78    10.472245    1227.4234 
   74200    -254.1288    37.975301    -216.1535    2745.6983    195729.47    10.472245    1226.6199 
   74300   -252.81106    45.874144   -206.93692     3316.802    201261.79    10.472245    1232.5119 
   74400   -255.15455    41.940415   -213.21414    3032.3848    192342.69    10.472245    1234.9922 
   74500   -246.37667    45.392284   -200.98438    3281.9625    222454.31    10.472245    1236.2054 
   74600   -248.57076    39.521071   -209.04969    2857.4609    211054.64    10.472245    1243.4879 
   74700   -256.23682    42.579743   -213.65708    3078.6096    184495.07    10.472245    1242.9265 
   74800   -257.79034    41.455586   -216.33475    2997.3306    184146.49    10.472245     1244.677 
   74900   -253.16107    42.855129   -210.30594    3098.5206    202937.67    10.472245    1236.9025 
   75000   -250.22805    45.307171   -204.92088    3275.8087    214261.05    10.472245    1232.4772 
   75100   -251.21723    40.209096   -211.00813    2907.2065    198576.85    10.472245    1236.7571 
   75200   -253.89192    38.663767   -215.22815    2795.4759    196149.67    10.472245    1244.6782 
   75300   -252.77521    47.764023   -205.01118    3453.4445    202254.03    10.472245    1238.0592 
   75400   -255.28244    44.810607   -210.47184     3239.906    192912.37    10.472245    1242.8606 
   75500    -254.3927    39.276657   -215.11605    2839.7892    191599.65    10.472245    1252.5738 
   75600   -258.61157     39.63852   -218.97305    2865.9527    184577.21    10.472245    1242.2375 
   75700   -250.13347    42.317097   -207.81638    3059.6197    201502.05    10.472245    1244.9135 
   75800   -255.77336    43.002788   -212.77057    3109.1967    190571.15    10.472245    1247.4912 
   75900   -254.39588    30.943296   -223.45259    2237.2687    185603.89    10.472245    1241.5956 
   76000   -257.09863    40.756921   -216.34171    2946.8156    186381.49    10.472245    1243.5189 
   76100   -252.76396    44.091091   -208.67287    3187.8834    202774.44    10.472245    1249.2389 
   76200   -252.59237    37.153561   -215.43881    2686.2847    199764.52    10.472245    1245.4208 
   76300   -249.93829    38.368356   -211.56993     2774.117     205981.9    10.472245    1247.6335 
   76400    -247.9387    39.893094    -208.0456    2884.3589    213689.72    10.472245    1241.8744 
   76500   -258.07875    40.240557   -217.83819    2909.4813    184567.49    10.472245    1239.9645 
   76600   -253.94805    39.362065   -214.58598    2845.9644     194895.4    10.472245    1242.4407 
   76700   -251.21546    42.846921   -208.36854    3097.9271    206118.58    10.472245    1236.4288 
   76800   -249.58095    37.389528   -212.19142    2703.3456    208050.56    10.472245    1243.0646 
   76900   -252.39921    35.745513    -216.6537    2584.4796    199045.75    10.472245    1232.7853 
   77000   -250.25768    43.354737   -206.90295    3134.6434    209277.19    10.472245    1233.9182 
   77100   -249.88651    38.154819   -211.73169    2758.6778    201258.35    10.472245    1234.5523 
   77200   -251.62456    37.643095   -213.98147     2721.679    201601.82    10.472245    1233.8336 
   77300    -248.3561    39.998478   -208.35763    2891.9784    213309.32    10.472245    1236.8959 
   77400   -251.33129    39.761673   -211.56962    2874.8569    205977.73    10.472245    1240.0936 
   77500   -252.32957    37.031488   -215.29808    2677.4585    193947.31    10.472245    1244.2439 
   77600   -253.12258    44.905594   -208.21699    3246.7738    199541.75    10.472245    1245.2473 
   77700   -255.14648    41.735041   -213.41144    3017.5358    195583.62    10.472245    1244.0683 
   77800   -257.73969    36.203157   -221.53653    2617.5683    185780.91    10.472245    1244.0899 
   77900   -255.09898    44.260513   -210.83847     3200.133    197391.82    10.472245    1240.1658 
   78000   -247.76956    40.758786   -207.01077    2946.9504    213410.31    10.472245    1248.3699 
[...]
   81400   -248.93197    44.463714   -204.46826    3214.8249    215117.65    10.472245    1358.0732 
   81500   -253.84723    44.803129    -209.0441    3239.3653    203659.26    10.472245    1359.9556 
   81600   -252.13598    38.715336   -213.42064    2799.2044    202152.78    10.472245    1363.5942 
   81700   -250.57704    42.754746    -207.8223    3091.2627    205802.04    10.472245    1358.9896 
   81800   -254.77962    33.961224    -220.8184    2455.4716    190721.35    10.472245    1361.9319 
   81900   -252.00826    39.990279   -212.01798    2891.3856    198523.58    10.472245    1371.1728 
   82000   -248.43189    42.895658   -205.53623     3101.451    215343.01    10.472245    1369.3492 
   82100     -251.649    46.729848   -204.91915    3378.6714       203437    10.472245    1374.3247 
   82200   -251.05287    39.669502   -211.38337    2868.1928    201258.51    10.472245    1375.5711 
   82300   -250.69002    50.057897   -200.63213    3619.2967    211846.77    10.472245    1376.0629 
   82400   -248.34961    40.020117   -208.32949    2893.5429    209769.39    10.472245    1380.6747 
   82500   -255.48826    44.698469   -210.78979    3231.7982    197324.52    10.472245    1391.2822 
   82600   -255.09182    37.206682   -217.88514    2690.1254    191625.44    10.472245    1390.8994 
   82700   -254.38699    45.671925   -208.71506    3302.1812    196632.86    10.472245    1397.0171 
   82800   -248.78699    39.493494    -209.2935    2855.4669    216774.48    10.472245    1395.7915 
   82900   -254.82356    39.333299   -215.49026    2843.8845    190832.16    10.472245    1399.5539 
   83000   -255.45881    42.683256   -212.77555    3086.0938    192807.74    10.472245    1404.7873 
   83100   -251.50317    39.494945   -212.00823    2855.5719    203379.47    10.472245    1403.9126 
   83200   -251.32832    46.903091   -204.42523    3391.1972    206606.85    10.472245    1404.2046 
   83300   -254.82848    39.482998   -215.34548    2854.7081    190927.09    10.472245    1393.5368 
   83400   -251.36002    43.095793   -208.26423    3115.9212    205954.31    10.472245    1391.5466 
   83500   -251.94184    41.632427   -210.30941    3010.1165    199966.91    10.472245    1399.3622 
   83600   -256.13095    35.737349    -220.3936    2583.8894    185972.92    10.472245    1396.9007 
   83700   -252.01519    42.713006   -209.30218    3088.2448     202939.2    10.472245    1385.2995 
   83800   -253.91993    44.486367   -209.43356    3216.4627    195972.04    10.472245    1389.7058 
   83900   -258.11248     38.83921   -219.27327    2808.1608    180728.29    10.472245    1386.2451 
   84000   -253.57577    44.257075    -209.3187    3199.8844    201264.85    10.472245    1394.0864 
   84100   -250.34147     39.38378   -210.95769    2847.5344    202520.69    10.472245    1396.7544 
   84200    -251.7956     36.05972   -215.73588    2607.1975    201485.88    10.472245    1394.0835 
   84300   -246.44011     39.92147   -206.51864    2886.4106    211434.27    10.472245    1386.6699 
   84400   -253.49619    43.718393    -209.7778    3160.9365    200628.06    10.472245    1384.0645 
   84500   -252.81206    38.654681   -214.15738    2794.8189    195980.27    10.472245     1380.941 
   84600   -248.87469    36.971439   -211.90325    2673.1168     206350.5    10.472245    1386.6256 
   84700   -248.47578    44.027196   -204.44858    3183.2637    216126.41    10.472245    1391.0508 
   84800   -250.46189    41.411694    -209.0502     2994.157    208774.21    10.472245    1392.3313 
   84900   -252.85815    39.585673   -213.27248    2862.1317    197414.33    10.472245    1388.2839 
   85000   -253.14645    47.946645   -205.19981    3466.6485    203167.02    10.472245    1399.0675 
   85100   -252.59559    37.698778   -214.89681     2725.705    198824.99    10.472245    1394.5329 
   85200   -253.67036    44.157304   -209.51305    3192.6708    198921.06    10.472245    1389.6506 
   85300   -246.27347    42.883702   -203.38977    3100.5865    220447.66    10.472245    1393.1684 
   85400   -252.98868    38.154406   -214.83428     2758.648    198870.24    10.472245     1392.969 
   85500   -253.68745    39.745277   -213.94217    2873.6714    195507.18    10.472245    1386.8307 
   85600   -250.08806     44.39496    -205.6931    3209.8538    209995.16    10.472245    1389.1905 
   85700   -248.40733    39.148214   -209.25912    2830.5025    212554.27    10.472245    1398.4602 
   85800   -251.48044    42.376952   -209.10349    3063.9474    204821.04    10.472245     1397.345 
   85900   -251.77994    39.171359   -212.60858    2832.1759    200718.36    10.472245    1404.4008 
   86000   -258.34742    42.466924    -215.8805    3070.4525    181571.62    10.472245    1406.7373 
   86100   -247.81277     39.23605   -208.57672    2836.8532    210658.38    10.472245     1403.152 
   86200   -250.30165    42.901527   -207.40012    3101.8753    207934.51    10.472245    1413.7859 
   86300   -255.45937    40.866846   -214.59253    2954.7634    193385.74    10.472245    1418.1433 
   86400   -249.38772    41.029258   -208.35847    2966.5061    207113.24    10.472245    1424.4573 
   86500   -248.29586    42.547971   -205.74788    3076.3124    211336.63    10.472245    1421.2576 
   86600   -255.07316    38.676222   -216.39694    2796.3764    193525.48    10.472245    1418.3538 
   86700   -251.80152    45.412389   -206.38913    3283.4162    208257.28    10.472245    1416.7716 
   86800    -256.1255    46.065554   -210.05995    3330.6414    190158.67    10.472245    1411.5577 
   86900   -254.37821    41.921861   -212.45635    3031.0433    195485.63    10.472245    1401.9071 
   87000   -256.21484    41.162351   -215.05249     2976.129    190144.61    10.472245    1401.0201 
   87100    -245.4044     41.21917   -204.18523    2980.2371    220973.37    10.472245    1398.4375 
   87200   -251.39982    39.171086   -212.22873    2832.1561    196446.55    10.472245    1400.7831 
   87300   -250.32521    38.837634   -211.48758    2808.0468    204532.03    10.472245    1403.5009 
   87400   -247.28646     43.88445   -203.40201    3172.9428    211512.34    10.472245    1408.5479 
   87500   -252.58204    36.041057   -216.54098    2605.8481    198286.63    10.472245    1411.1336 
   87600   -249.98604    40.561762   -209.42428    2932.7051     207467.8    10.472245    1410.6558 
   87700   -251.29104    52.126385   -199.16466     3768.853    206391.57    10.472245    1405.1225 
   87800   -254.74964    46.858699   -207.89094    3387.9876    198171.64    10.472245    1411.5397 
   87900   -250.32618     36.46784   -213.85834    2636.7055    200867.45    10.472245    1417.4348 
   88000    -252.6705    40.658372   -212.01213    2939.6902    203236.19    10.472245    1422.0828 
   88100   -254.96752    48.815405   -206.15212    3529.4617    195489.42    10.472245    1426.3331 
   88200   -251.06283     38.37162   -212.69121     2774.353    199115.62    10.472245    1430.7873 
   88300   -252.25687    42.185941   -210.07093    3050.1369    204401.69    10.472245    1447.8147 
   88400   -252.42089    36.726913   -215.69398     2655.437    198453.29    10.472245    1448.9951 
   88500   -253.37997    42.377689   -211.00228    3064.0007    196457.54    10.472245    1453.1714 
   88600   -248.32249    42.949024   -205.37347    3105.3094    212818.65    10.472245    1450.5099 
   88700   -251.90791    43.519463   -208.38845    3146.5534    204277.41    10.472245    1459.0611 
   88800    -255.1253    37.478557   -217.64674    2709.7826       190196    10.472245    1461.3198 
   88900   -251.14799    33.153805   -217.99419    2397.0934    199106.56    10.472245    1463.9366 
   89000   -250.15773    42.629848   -207.52788    3082.2323    211306.17    10.472245    1469.7428 
   89100   -251.51048    41.765417   -209.74507     3019.732    199918.84    10.472245     1477.642 
   89200   -254.44477    38.575088   -215.86968    2789.0642    194910.25    10.472245    1475.4156 
   89300   -251.57609    41.985857   -209.59023    3035.6703     202738.9    10.472245    1475.4005 
   89400   -248.22614     48.22816   -199.99798    3487.0027    217331.89    10.472245    1483.4747 
   89500   -251.89625    40.186732   -211.70952    2905.5896    199363.53    10.472245    1486.5259 
   89600   -250.75651     36.58265   -214.17386    2645.0065    198349.15    10.472245    1485.8212 
   89700     -246.143    42.535184   -203.60782    3075.3879    219191.97    10.472245    1487.6404 
   89800   -251.29921     42.21433   -209.08488    3052.1894    207480.88    10.472245    1492.4251 
   89900   -251.93354    38.845129   -213.08841    2808.5888    202405.79    10.472245    1493.0955 
   90000   -250.92761    40.174599   -210.75301    2904.7124    203229.16    10.472245    1501.1112 
   90100   -254.12016    42.926937   -211.19322    3103.7125    197081.81    10.472245    1499.5236 
   90200   -253.48151    43.248607    -210.2329    3126.9699    199103.11    10.472245    1500.2807 
   90300   -253.06411    42.741464   -210.32264    3090.3024    196513.09    10.472245     1511.748 
   90400   -253.14891    44.271691   -208.87722    3200.9412    202299.83    10.472245     1513.225 
   90500   -254.93397    43.156854   -211.77711     3120.336    195292.14    10.472245    1516.1193 
   90600   -254.10888     42.69849   -211.41039    3087.1952    196954.89    10.472245    1516.4834 
   90700   -251.65626    45.850448   -205.80582    3315.0888    207342.71    10.472245    1516.6669 
   90800   -253.92825    38.206588   -215.72166    2762.4208    197779.93    10.472245    1521.8379 
   90900   -249.81342    41.162278   -208.65114    2976.1237    209273.47    10.472245    1526.1927 
   91000   -247.14086    43.852249   -203.28861    3170.6146    216655.38    10.472245    1535.0817 
   91100   -251.47804     37.64836   -213.82968    2722.0597     206838.1    10.472245    1539.4795 
   91200    -249.0416    41.190224   -207.85137    2978.1443    210647.02    10.472245    1550.1091 
   91300    -251.2094    45.508578   -205.70082    3290.3708    204879.07    10.472245    1547.5312 
   91400   -253.85767    41.822869    -212.0348    3023.8859    196753.37    10.472245    1554.8046 
   91500   -249.80328    41.859755   -207.94352    3026.5529    212558.75    10.472245    1563.9811 
   91600   -250.24075    47.586005   -202.65474    3440.5734    211243.36    10.472245    1565.9833 
   91700   -251.82884     41.51052   -210.31832    3001.3024    204899.71    10.472245    1568.6326 
   91800   -252.67295    47.639834   -205.03312    3444.4653    206058.22    10.472245    1561.2433 
   91900   -254.51164    39.680151   -214.83149    2868.9627    191674.98    10.472245    1565.2085 
   92000    -251.6872    37.615973   -214.07122    2719.7181    199004.25    10.472245    1569.9604 
   92100   -244.74123    41.468052   -203.27318    2998.2319    221382.71    10.472245    1577.1232 
   92200   -254.82329    42.695446   -212.12784    3086.9752    194827.15    10.472245    1579.5436 
   92300   -250.53021    36.374194   -214.15602    2629.9346       205889    10.472245    1569.9497 
   92400   -246.53336    44.818265   -201.71509    3240.4597    217949.84    10.472245     1575.648 
   92500   -250.75239    39.620048   -211.13234    2864.6171    204152.08    10.472245    1569.4852 
   92600   -250.54066    38.202085   -212.33857    2762.0952    202099.07    10.472245    1568.7113 
   92700   -248.31878     44.53663   -203.78215    3220.0969    208571.27    10.472245    1558.8178 
   92800   -248.98737    38.388556   -210.59881    2775.5775    210738.81    10.472245    1564.4629 
   92900   -251.92249    39.973809   -211.94868    2890.1948    202584.56    10.472245    1564.7024 
   93000   -249.40957    45.742065   -203.66751    3307.2525    213452.61    10.472245    1562.2929 
   93100   -251.00386    36.596501   -214.40736    2646.0079    199714.78    10.472245    1560.8072 
   93200   -255.00548     39.09515   -215.91033    2826.6658    193894.29    10.472245    1559.5157 
   93300    -251.0633    47.083977   -203.97932    3404.2756    206523.95    10.472245    1555.5919 
   93400   -254.48845    42.612451     -211.876    3080.9745    202426.69    10.472245     1564.949 
   93500    -255.2139    45.780679   -209.43322    3310.0444    195695.07    10.472245    1568.1833 
   93600   -249.94517    38.931739   -211.01343    2814.8509    202297.71    10.472245    1565.3488 
   93700   -258.24823    35.362745   -222.88549    2556.8047    175486.01    10.472245    1568.8119 
   93800   -253.82906     41.68379   -212.14527    3013.8302    195106.29    10.472245     1569.534 
   93900   -251.99894    41.829736    -210.1692    3024.3824    203317.18    10.472245    1582.4449 
   94000   -250.18238    36.264545   -213.91783    2622.0068    207800.24    10.472245    1584.3081 
   94100   -249.86437    41.390146   -208.47422    2992.5991    211835.12    10.472245     1579.625 
   94200    -249.1009     48.08358   -201.01732    3476.5492     211720.5    10.472245    1581.5967 
   94300   -251.53599    37.254572   -214.28141    2693.5879    202560.14    10.472245    1585.8307 
   94400   -250.60535    42.876172   -207.72918    3100.0421    205372.94    10.472245    1584.7916 
   94500   -248.89786    42.498839   -206.39902    3072.7601    215326.21    10.472245    1590.4437 
   94600    -257.3342    41.036249   -216.29795    2967.0116     185111.4    10.472245    1586.4769 
   94700   -248.54042    42.222671   -206.31775    3052.7925    213961.59    10.472245    1585.0658 
   94800   -251.96595    39.670462   -212.29549    2868.2622     197678.2    10.472245    1585.0742 
   94900   -252.68309    39.903922   -212.77917    2885.1418    199013.63    10.472245    1586.1249 
   95000   -250.13782    40.196304   -209.94152    2906.2817    203390.51    10.472245    1588.5387 
   95100   -254.77444     41.17906   -213.59538    2977.3371    191165.37    10.472245      1592.27 
   95200   -258.52691    40.578165   -217.94875    2933.8911    180654.57    10.472245    1587.9554 
   95300   -253.85991    46.765769   -207.09414    3381.2686    198721.03    10.472245    1586.1008 
   95400   -257.88476    42.832062    -215.0527    3096.8528    187573.16    10.472245    1584.5475 
   95500   -258.15995    43.044187   -215.11577    3112.1899    182689.18    10.472245    1592.8396 
   95600   -250.63333     44.67961   -205.95372    3230.4346    205933.37    10.472245    1589.4829 
   95700   -251.71261    36.849821   -214.86278    2664.3236    199505.14    10.472245    1585.7966 
   95800   -252.29704     47.81901   -204.47802    3457.4202    204667.59    10.472245    1582.7365 
   95900   -249.13064    43.025905   -206.10473    3110.8681    215161.89    10.472245    1584.7609 
   96000   -254.50788    40.287061   -214.22082    2912.8436    195318.98    10.472245    1583.4872 
   96100   -247.16978    40.688066   -206.48171    2941.8372    216550.02    10.472245    1573.1823 
   96200   -248.85755    42.160464   -206.69709    3048.2948    210937.48    10.472245    1569.2499 
   96300   -253.18348    41.730052   -211.45343    3017.1751    198775.29    10.472245    1581.7192 
   96400   -253.22986    37.382408   -215.84745    2702.8308    195632.92    10.472245    1589.9499 
   96500   -256.30847    46.080048   -210.22842    3331.6894    190009.79    10.472245    1601.7533 
   96600   -243.50093     37.71081   -205.79012     2726.575    224914.35    10.472245    1597.8247 
   96700   -256.13033    39.061112   -217.06921    2824.2048    188966.89    10.472245    1607.1066 
   96800   -255.07452     44.33701   -210.73751    3205.6639    197234.72    10.472245    1598.7188 
   96900   -251.76838    41.843604   -209.92478    3025.3851    203037.57    10.472245    1592.6108 
   97000   -257.02864    44.598064   -212.43058    3224.5387    190408.21    10.472245    1590.8352 
   97100   -252.38608    44.503352   -207.88273    3217.6908     197847.1    10.472245    1593.7658 
   97200   -248.32219    36.859018   -211.46317    2664.9885    211978.03    10.472245    1594.8045 
   97300   -254.35372    36.423203   -217.93052    2633.4781     192742.4    10.472245    1595.2436 
   97400    -253.1255    40.043831   -213.08166    2895.2576    196182.62    10.472245    1601.2118 
   97500   -254.38435    47.188321   -207.19603      3411.82    202234.74    10.472245     1607.726 
   97600   -244.35917     44.94465   -199.41452    3249.5976    225909.78    10.472245    1614.9911 
   97700   -250.07412    38.637558   -211.43656    2793.5809    205045.92    10.472245    1623.3107 
   97800   -250.04692    37.866016    -212.1809    2737.7967    206399.71    10.472245    1633.3896 
   97900   -257.06112    39.161158   -217.89996    2831.4383    189803.45    10.472245    1637.0224 
   98000   -249.30833    40.667536   -208.64079    2940.3528    208630.36    10.472245    1631.9461 
   98100   -251.84253    41.566621   -210.27591    3005.3586       200243    10.472245    1635.9771 
   98200   -252.62774    38.044914   -214.58283    2750.7314    203563.93    10.472245    1639.0804 
   98300    -251.8877    42.364365   -209.52333    3063.0373    202757.22    10.472245    1643.3117 
   98400   -253.18889    40.174563   -213.01433    2904.7098    194036.12    10.472245    1641.1427 
   98500   -259.25778    36.246338   -223.01144    2620.6904     177300.3    10.472245    1637.9577 
   98600   -250.21736    38.251432   -211.96593    2765.6631    205797.03    10.472245    1638.4454 
   98700   -252.03936    45.244014   -206.79534    3271.2423    203992.83    10.472245    1630.7689 
   98800   -255.84197    41.247693   -214.59428    2982.2994    192915.97    10.472245    1627.1884 
   98900   -251.08848    44.650247   -206.43823    3228.3116    208291.92    10.472245    1636.0564 
   99000   -253.62805    44.204981   -209.42307    3196.1179    197927.56    10.472245    1641.2451 
   99100    -256.6689    42.559498    -214.1094    3077.1459    188885.27    10.472245     1648.825 
   99200   -261.53883    40.931247   -220.60758    2959.4197    175310.15    10.472245    1646.0207 
   99300   -256.23567    46.788906   -209.44676    3382.9414     189132.7    10.472245    1643.3413 
   99400   -249.22192    40.244093   -208.97783    2909.7369    209742.25    10.472245     1641.867 
   99500   -256.46727    38.666576    -217.8007    2795.6789    184559.49    10.472245    1641.9844 
   99600   -252.66003    42.280687   -210.37934    3056.9872    204582.51    10.472245    1647.4602 
   99700   -254.65448    44.396821   -210.25766    3209.9883    199122.83    10.472245    1649.7454 
   99800   -254.55615    40.044041   -214.51211    2895.2728    197453.74    10.472245    1650.2003 
   99900   -248.30364    45.413384   -202.89026    3283.4881    210335.06    10.472245    1657.3777 
  100000   -250.37848    37.325168   -213.05332    2698.6922    205171.58    10.472245    1656.8593 
Loop time of 32.5993 on 1 procs for 100000 steps with 108 atoms

Performance: 1325.182 ns/day, 0.018 hours/ns, 3067.551 timesteps/s
99.4% CPU use with 1 MPI tasks x no OpenMP threads

MPI task timing breakdown:
Section |  min time  |  avg time  |  max time  |%varavg| %total
---------------------------------------------------------------
Pair    | 19.01      | 19.01      | 19.01      |   0.0 | 58.31
Neigh   | 1.6611     | 1.6611     | 1.6611     |   0.0 |  5.10
Comm    | 0.60069    | 0.60069    | 0.60069    |   0.0 |  1.84
Output  | 0.20146    | 0.20146    | 0.20146    |   0.0 |  0.62
Modify  | 11.037     | 11.037     | 11.037     |   0.0 | 33.86
Other   |            | 0.08884    |            |       |  0.27

Nlocal:    108 ave 108 max 108 min
Histogram: 1 0 0 0 0 0 0 0 0 0
Nghost:    1095 ave 1095 max 1095 min
Histogram: 1 0 0 0 0 0 0 0 0 0
Neighs:    5636 ave 5636 max 5636 min
Histogram: 1 0 0 0 0 0 0 0 0 0

Total # of neighbors = 5636
Ave neighs/atom = 52.1852
Neighbor list builds = 7016
Dangerous builds = 118
Total wall time: 0:00:32
