ITEM: TIMESTEP
0
ITEM: NUMBER OF ATOMS
9
ITEM: BOX BOUNDS pp pp pp
0.0000000000000000e+00 6.4012000000000002e+00
0.0000000000000000e+00 6.4012000000000002e+00
0.0000000000000000e+00 6.4012000000000002e+00
ITEM: ATOMS id type xs ys zs
1 2 0 0 0
2 2 0 0.5 0.5
3 2 0.5 0.5 0
4 2 0.5 0 0.5
5 2 0.75 0.25 0.75
6 2 0.25 0.25 0.25
7 2 0.25 0.75 0.75
8 2 0.75 0.75 0.25
9 1 0.5 0.5 0.5
