LAMMPS (3 Mar 2020)

    # ---------- Initialize simulation ---------------------
    units metal
    atom_style atomic
    dimension  3
    boundary   p p p
    read_data /home/modeler/RemLabs/Lab4/Problem2A_size_3/temp_2000/lammps.data
  orthogonal box = (0 0 0) to (12.27 12.27 12.27)
  1 by 1 by 1 MPI processor grid
  reading atoms ...
  108 atoms
  read_data CPU = 0.000869236 secs

    pair_style eam
    pair_coeff * * /usr/share/lammps-stable/potentials/Ag_u3.eam
Reading potential file /usr/share/lammps-stable/potentials/Ag_u3.eam with DATE: 2007-06-11

    velocity  all create 2000 87287 dist gaussian

    # ---------- Describe computed properties------------------
    compute msdall all msd
    thermo_style custom step pe ke etotal temp press density c_msdall[4]
    thermo 100

    # ---------- Specify ensemble  ---------------------
    #fix  1 all nve
    fix  1 all nvt temp 2000 2000 0.25

    # --------- Compute RDF ---------------
    compute rdfall all rdf 100 1 1
    fix 2 all ave/time 1 25000 25000 c_rdfall[*] file /home/modeler/RemLabs/Lab4/Problem2A_size_3/temp_2000/lammps.rdf mode vector

    # --------- Run -------------
    timestep 0.005
    run 100000
Neighbor list info ...
  update every 1 steps, delay 10 steps, check yes
  max neighbors/atom: 2000, page size: 100000
  master list distance cutoff = 7.55
  ghost atom cutoff = 7.55
  binsize = 3.775, bins = 4 4 4
  2 neighbor lists, perpetual/occasional/extra = 1 1 0
  (1) pair eam, perpetual
      attributes: half, newton on
      pair build: half/bin/atomonly/newton
      stencil: half/bin/3d/newton
      bin: standard
  (2) compute rdf, occasional, copy from (1)
      attributes: half, newton on
      pair build: copy
      stencil: none
      bin: none
Per MPI rank memory allocation (min/avg/max) = 3.723 | 3.723 | 3.723 Mbytes
Step PotEng KinEng TotEng Temp Press Density c_msdall[4] 
       0       -307.8    27.661671   -280.13833         2000     15994.19    10.472245            0 
     100   -290.15052    20.267751   -269.88277    1465.4033    72972.707    10.472245  0.096753853 
     200   -280.07618    25.719788    -254.3564    1859.5976    108657.19    10.472245   0.12830708 
     300   -279.98409    33.796054   -246.18803    2443.5295    110533.44    10.472245   0.20423156 
     400   -277.94243    24.137434     -253.805    1745.1899    118716.84    10.472245   0.18150105 
     500   -282.44452    26.885839   -255.55868    1943.9056    100930.76    10.472245   0.13324087 
     600   -276.70191    26.704491   -249.99742    1930.7937    120715.13    10.472245    0.2140551 
     700   -283.73736    31.385094   -252.35227    2269.2117    99951.373    10.472245   0.14146934 
     800   -283.66293    27.656697   -256.00623    1999.6404    97730.143    10.472245   0.14082417 
     900   -278.99887     27.56251   -251.43636    1992.8304    109056.49    10.472245   0.16861985 
    1000    -279.7753    27.572328   -252.20297    1993.5403    106718.72    10.472245   0.14667038 
    1100   -283.81744    30.348579   -253.46886    2194.2694    97952.187    10.472245   0.12732738 
    1200   -280.07763    29.053309   -251.02432    2100.6185    107901.19    10.472245   0.16910665 
    1300    -278.2805    27.724666   -250.55583    2004.5547    110737.19    10.472245   0.17365777 
    1400   -284.36868    27.772909   -256.59577    2008.0428     95013.26    10.472245   0.12807276 
    1500   -280.17508    28.887099   -251.28798    2088.6011    109612.45    10.472245   0.15475717 
    1600   -278.56365    27.035736   -251.52791    1954.7435    112499.62    10.472245   0.18010877 
    1700   -279.44774    24.986171   -254.46157    1806.5554    109057.66    10.472245   0.15108555 
    1800   -280.94807    24.226285   -256.72178     1751.614    104306.81    10.472245   0.16125381 
    1900   -278.67199    29.217213   -249.45478    2112.4691     112737.2    10.472245   0.17402853 
    2000   -280.58178    27.100023   -253.48176    1959.3916    109207.58    10.472245   0.16358445 
    2100   -284.43773    27.278225   -257.15951     1972.276    94411.314    10.472245   0.13918068 
    2200    -286.2383    33.466883   -252.77141    2419.7297    92128.264    10.472245   0.12035844 
    2300      -279.66    30.322336   -249.33767     2192.372    110308.59    10.472245   0.18333034 
    2400   -276.19628    30.474687    -245.7216    2203.3873    123451.43    10.472245   0.17115331 
    2500   -282.41967    27.755926   -254.66374    2006.8148    101245.33    10.472245    0.1315795 
    2600   -281.13348    28.614146   -252.51933     2068.866    105946.86    10.472245   0.13520095 
    2700   -274.70683    26.542297   -248.16453    1919.0668    124127.37    10.472245   0.20260206 
    2800   -281.01133    24.807441   -256.20389    1793.6328    103085.53    10.472245   0.13737593 
    2900   -280.25413    29.678683   -250.57545    2145.8344    108964.44    10.472245   0.16908568 
    3000   -276.99913     25.96988   -251.02925    1877.6798    117405.31    10.472245   0.16994472 
    3100   -282.17258    25.213214   -256.95936    1822.9711    101778.97    10.472245   0.15748909 
    3200   -277.06817    26.224128   -250.84404    1896.0625    116701.65    10.472245   0.17195559 
    3300   -281.85195    28.795924   -253.05602     2082.009    103169.61    10.472245   0.15121375 
    3400   -284.03844    27.949294   -256.08915    2020.7958    96901.913    10.472245   0.12835348 
    3500   -282.11261    31.100633   -251.01198    2248.6446    102991.35    10.472245   0.16632451 
    3600    -278.9256     27.61781   -251.30779    1996.8288    109818.53    10.472245   0.17015632 
    3700   -283.49066    25.275187   -258.21547    1827.4519    97237.178    10.472245   0.16430194 
    3800   -279.05851    27.026279   -252.03223    1954.0598    112814.26    10.472245   0.16873781 
    3900   -279.00548     26.71669   -252.28879    1931.6758    110664.19    10.472245   0.19340367 
    4000   -283.91952    32.955755   -250.96376     2382.774    98601.842    10.472245   0.13751175 
    4100   -276.95267    26.449329   -250.50335     1912.345    117861.98    10.472245   0.17591876 
    4200   -281.54084    25.538865   -256.00198    1846.5164    102134.99    10.472245   0.15327865 
    4300   -280.10883     28.40092   -251.70791    2053.4494    108907.38    10.472245    0.1669038 
    4400   -278.43698    28.508198   -249.92879    2061.2058    112217.26    10.472245   0.19141279 
    4500    -282.8573    27.012107   -255.84519    1953.0351     97757.39    10.472245   0.16645057 
    4600    -279.3454    26.076098    -253.2693    1885.3595     108317.1    10.472245   0.22348267 
    4700   -278.94887    29.144765    -249.8041     2107.231    110989.65    10.472245   0.15491026 
    4800   -282.05589    25.766561   -256.28933    1862.9794    101323.28    10.472245   0.12757751 
    4900   -281.83752    26.863774   -254.97374    1942.3103    101501.49    10.472245   0.16882858 
    5000    -281.8564    30.526291    -251.3301    2207.1184    103572.38    10.472245    0.1731328 
    5100   -279.82154    30.973172   -248.84837    2239.4288    112463.19    10.472245   0.16820252 
    5200    -280.7955    32.947269   -247.84823    2382.1604    109844.08    10.472245   0.14888462 
    5300    -280.6729    25.828178   -254.84472    1867.4344    106584.33    10.472245   0.16870972 
    5400   -278.31771    29.104732   -249.21298    2104.3365     112875.7    10.472245    0.1848669 
    5500   -281.14579    31.950052   -249.19574    2310.0594    104875.98    10.472245   0.14995737 
    5600   -282.11809    27.432631   -254.68545    1983.4399    101542.22    10.472245   0.14235183 
    5700   -277.35495    28.563156    -248.7918    2065.1793    119966.18    10.472245   0.22152226 
    5800   -278.37087    27.822367    -250.5485    2011.6187    113066.46    10.472245   0.19339508 
    5900   -282.24376    26.992096   -255.25167    1951.5883    101061.75    10.472245   0.14390722 
    6000   -279.31343    31.716883   -247.59655    2293.2008    113354.73    10.472245   0.14965095 
    6100   -279.32852     28.42699   -250.90153    2055.3342    110474.29    10.472245   0.17328846 
    6200   -281.44267    29.401048   -252.04162    2125.7608     104750.4    10.472245   0.16213443 
    6300   -278.82528    25.993852   -252.83142     1879.413    111559.77    10.472245   0.15789296 
    6400   -277.12976     24.08752   -253.04224     1741.581    114900.45    10.472245   0.17731656 
    6500   -277.06443    28.084459   -248.97997    2030.5685    119060.61    10.472245   0.24117649 
    6600   -277.75983     26.88845   -250.87138    1944.0944    115181.26    10.472245   0.20872568 
    6700   -281.63305     26.28281   -255.35024    1900.3053    99810.296    10.472245   0.15317485 
    6800   -277.27067    28.225898   -249.04477    2040.7948    116659.06    10.472245   0.17990644 
    6900   -276.71774    31.522122   -245.19562    2279.1191    119057.13    10.472245   0.21604563 
    7000   -280.72205    27.788393   -252.93366    2009.1623    107175.16    10.472245   0.16472448 
    7100   -279.42849    25.333478   -254.09502    1831.6665    109531.19    10.472245   0.18900858 
    7200   -279.55651    33.591897   -245.96461    2428.7684    114369.51    10.472245   0.17150591 
    7300    -280.8632    29.331178   -251.53203    2120.7091    108332.49    10.472245   0.14683674 
    7400   -279.06364    26.306376   -252.75726    1902.0092    109761.63    10.472245   0.18577177 
    7500   -279.71827    33.675566   -246.04271    2434.8179    111602.47    10.472245     0.149055 
    7600    -282.7107    30.906186   -251.80452    2234.5856    100635.98    10.472245   0.14998036 
    7700   -277.61356    24.489224   -253.12434    1770.6251     111201.1    10.472245   0.18620015 
    7800   -279.27997    32.028988   -247.25098    2315.7667     112995.9    10.472245   0.17341231 
    7900    -279.2645    29.788426   -249.47607    2153.7691    113676.42    10.472245   0.19080308 
    8000   -281.59192    26.472663   -255.11926    1914.0321    101309.22    10.472245   0.14253069 
    8100   -275.71035    27.106454    -248.6039    1959.8566    118232.16    10.472245   0.19865067 
    8200   -277.59029    29.466151   -248.12414    2130.4679    116925.96    10.472245   0.20298165 
    8300   -277.43079    25.531527   -251.89926    1845.9859    116250.27    10.472245   0.19478872 
    8400   -285.35849     30.35718   -255.00131    2194.8913    94662.681    10.472245    0.1190846 
    8500   -282.68318     25.62822   -257.05496     1852.977    97180.287    10.472245   0.12830337 
    8600   -279.31346      29.4089   -249.90456    2126.3285    111142.26    10.472245   0.16032826 
    8700   -278.02735    24.274166   -253.75318    1755.0759    112562.23    10.472245   0.17193784 
    8800   -283.03482    25.221902   -257.81292    1823.5993    97042.248    10.472245   0.12855793 
    8900    -281.1952    28.401156   -252.79405    2053.4664    106879.33    10.472245   0.15601905 
    9000   -278.77422    29.310709   -249.46351    2119.2291    114487.47    10.472245   0.18696214 
    9100    -282.6617    25.512766   -257.14893    1844.6294    100276.33    10.472245    0.1222532 
    9200   -279.77026    27.306637   -252.46362    1974.3302       107391    10.472245   0.18021208 
    9300   -274.04559    24.062041   -249.98355    1739.7388    123698.41    10.472245   0.20667026 
    9400   -278.88852    24.805851   -254.08267    1793.5179    110524.89    10.472245   0.16400073 
    9500   -281.86361     26.31633   -255.54728    1902.7288    102188.07    10.472245   0.14350387 
    9600   -277.72292      28.7352   -248.98772    2077.6185    114912.69    10.472245   0.18245166 
    9700   -282.56504    29.078416   -253.48663    2102.4338    101842.98    10.472245   0.14153161 
    9800   -280.16821    24.637296   -255.53092     1781.331    106158.31    10.472245   0.14690639 
    9900   -278.41142    26.592469   -251.81895    1922.6944    112429.95    10.472245   0.15937468 
   10000    -280.7574    27.240163   -253.51724    1969.5241    106297.77    10.472245   0.14182528 
   10100   -282.91259    26.250412   -256.66218    1897.9629     99556.52    10.472245   0.14304995 
   10200   -275.88292    25.699279   -250.18364    1858.1147    119660.34    10.472245   0.21051924 
   10300   -281.31051    28.183826   -253.12668     2037.753    104072.41    10.472245   0.15678342 
   10400   -284.40756    24.588979   -259.81858    1777.8376    93106.355    10.472245    0.1261915 
   10500   -278.94213    24.280158   -254.66198    1755.5091    109246.36    10.472245   0.16561118 
   10600   -276.97683      27.8981   -249.07873    2017.0944    118214.36    10.472245   0.22164998 
   10700   -281.92916    27.995307   -253.93385    2024.1226    102995.04    10.472245   0.13121679 
   10800   -280.13325    24.629495   -255.50375    1780.7669    107144.65    10.472245   0.14631108 
   10900   -281.22275    31.481478   -249.74127    2276.1805       106704    10.472245   0.17668549 
   11000   -280.38085    28.119719   -252.26113    2033.1179    108471.79    10.472245    0.1724132 
   11100   -279.86386    23.727061    -256.1368     1715.519    106496.54    10.472245   0.17010336 
   11200   -281.00576    24.139069    -256.8667    1745.3081    102164.11    10.472245   0.12832589 
   11300   -276.94618     26.74032   -250.20586    1933.3843    116169.68    10.472245   0.18393819 
   11400   -278.17625    24.149128   -254.02713    1746.0354     111101.9    10.472245   0.17603204 
   11500   -284.11878     26.48252   -257.63626    1914.7448    95543.497    10.472245   0.12496262 
   11600   -277.69979    29.149568   -248.55022    2107.5782    117771.12    10.472245   0.16249454 
   11700   -279.92056    25.562582   -254.35798    1848.2312    107106.17    10.472245   0.15932621 
   11800    -279.6781    27.648437   -252.02966    1999.0431    108418.37    10.472245    0.1807267 
   11900   -274.66206    27.123518   -247.53854    1961.0904    122678.02    10.472245   0.19861495 
   12000   -282.14109    28.576668   -253.56442    2066.1563     101370.4    10.472245   0.15684581 
   12100   -281.64886    28.970797   -252.67806    2094.6527    105355.37    10.472245   0.13662837 
   12200    -278.0477    30.968053   -247.07965    2239.0587    116666.28    10.472245   0.17620299 
   12300    -280.0901    26.786912   -253.30319     1936.753    105225.44    10.472245   0.18207382 
   12400   -279.21115    25.768361   -253.44279    1863.1095    108895.93    10.472245   0.15547468 
   12500   -275.04798    29.507334   -245.54065    2133.4455    124151.03    10.472245   0.20058307 
   12600   -283.65588    30.302125   -253.35376    2190.9107    100446.29    10.472245   0.13771649 
   12700   -283.32588    28.592223   -254.73366    2067.2809     97376.67    10.472245    0.1391831 
   12800   -277.16415    29.644316   -247.51983    2143.3496     119157.6    10.472245   0.18738039 
   12900   -279.19768    28.256063   -250.94161    2042.9759    108925.77    10.472245   0.19935379 
   13000   -277.70004    24.825447   -252.87459    1794.9347     113613.7    10.472245   0.18053603 
   13100   -284.55554    30.945982   -253.60955    2237.4629    95220.156    10.472245    0.1241493 
   13200   -279.84156    28.804139   -251.03742     2082.603    109937.86    10.472245   0.16804397 
   13300   -280.61681     32.03515   -248.58166    2316.2122    110288.22    10.472245   0.17419861 
   13400   -283.48802     27.29149   -256.19653    1973.2351    96556.918    10.472245   0.14016232 
   13500   -279.68125    28.739871   -250.94138    2077.9562    110594.87    10.472245   0.16345143 
   13600   -279.87344    30.644168   -249.22927    2215.6411    112874.12    10.472245   0.17842957 
   13700   -281.07715    27.372959   -253.70419    1979.1254    104286.68    10.472245   0.13594528 
   13800   -281.00184    24.600467   -256.40137    1778.6682    101995.79    10.472245   0.19425787 
   13900   -276.85299    28.710576   -248.14242    2075.8381    118513.66    10.472245   0.19861413 
   14000   -280.11261    28.425068   -251.68754    2055.1953    108282.32    10.472245   0.16296017 
   14100   -282.20483    26.344881   -255.85995    1904.7931    101106.93    10.472245    0.1730425 
   14200   -279.78031    27.905762   -251.87455    2017.6483    107741.71    10.472245   0.14705491 
   14300   -277.06632    26.919395   -250.14692    1946.3318    118234.91    10.472245   0.18867908 
   14400   -277.44927    30.919334   -246.52994    2235.5362    116407.51    10.472245   0.16584015 
   14500   -279.49293    24.769867   -254.72306    1790.9162    107068.19    10.472245   0.16557046 
   14600   -279.28537    28.649976   -250.63539    2071.4567    112159.69    10.472245   0.15792149 
   14700   -277.84241     28.74866   -249.09375    2078.5917    115682.05    10.472245   0.18572254 
   14800   -280.44138    25.452532   -254.98885    1840.2744    103651.95    10.472245   0.15799296 
   14900   -279.51077    30.516954   -248.99381    2206.4433    112339.78    10.472245   0.15192854 
   15000   -283.86071    27.838329   -256.02238    2012.7728    95275.479    10.472245   0.12979211 
   15100    -280.4799    26.774618   -253.70529    1935.8641    108102.05    10.472245   0.16001162 
   15200    -278.8507    28.019167   -250.83154    2025.8478    110926.79    10.472245   0.17400995 
   15300   -285.72411    27.462085   -258.26202    1985.5695    90597.989    10.472245   0.11443768 
   15400   -280.85945    25.988651    -254.8708    1879.0369    104982.67    10.472245   0.14958884 
   15500   -277.11028    25.532103   -251.57818    1846.0275    116437.75    10.472245    0.1937221 
   15600    -279.0107    32.200832   -246.80987    2328.1914    114488.94    10.472245   0.14981904 
   15700   -280.40515    27.296841   -253.10831     1973.622    107506.18    10.472245    0.1398665 
   15800   -281.06173    26.132359   -254.92937    1889.4274     104404.7    10.472245   0.16392104 
   15900   -278.51029    30.861166   -247.64912    2231.3306    113667.87    10.472245   0.18411053 
   16000   -278.59434     26.90434      -251.69    1945.2433    111267.56    10.472245   0.16926292 
   16100   -280.20863    27.046689   -253.16194    1955.5355    107333.06    10.472245   0.14651151 
   16200   -278.64451    29.312099   -249.33241    2119.3296    113337.96    10.472245   0.16916786 
   16300   -278.11707    31.438307   -246.67876    2273.0591    117958.92    10.472245   0.17321533 
   16400   -280.68642    29.103672   -251.58275    2104.2598    107007.24    10.472245   0.17037611 
   16500   -281.99904    29.611634   -252.38741    2140.9866    105416.13    10.472245   0.13945089 
   16600   -282.96854    26.127197   -256.84134    1889.0541    97510.041    10.472245   0.12352824 
   16700   -279.19229     29.15278   -250.03951    2107.8104    111623.62    10.472245   0.16863363 
   16800   -280.25652     29.40998   -250.84654    2126.4066    109366.94    10.472245     0.125792 
   16900   -281.89521    24.839785   -257.05543    1795.9714    99692.058    10.472245   0.14321045 
   17000   -278.94815    25.404001   -253.54415    1836.7655    109027.78    10.472245   0.16444057 
   17100   -279.46983    28.292034    -251.1778    2045.5766    109339.55    10.472245   0.16069514 
   17200   -279.28741    31.276442   -248.01097     2261.356    116011.14    10.472245   0.20513827 
   17300   -278.75416     24.26843   -254.48573    1754.6612    109266.63    10.472245   0.17640897 
   17400   -280.25359     28.07136   -252.18223    2029.6214    107718.97    10.472245   0.16476828 
   17500   -276.93535    28.873612   -248.06174     2087.626     118925.1    10.472245   0.22075856 
   17600   -282.14042    30.337104   -251.80331    2193.4397    103064.12    10.472245   0.15765509 
   17700   -280.84742    23.584049   -257.26337    1705.1789    104167.25    10.472245   0.15095557 
   17800   -277.75065    29.324416   -248.42623    2120.2201     115946.8    10.472245    0.1618682 
   17900   -280.55849    26.933206   -253.62528    1947.3304     106839.3    10.472245   0.13426173 
   18000   -279.25086    24.516687   -254.73417    1772.6107    109629.48    10.472245    0.1663714 
   18100   -276.03592    28.168686   -247.86723    2036.6583    120062.62    10.472245   0.17719775 
   18200   -279.75007    25.859223   -253.89084    1869.6791    109629.32    10.472245   0.19929352 
   18300   -279.09078    29.665742   -249.42504    2144.8987    112525.61    10.472245   0.15699448 
   18400   -272.92536     32.24813   -240.67723    2331.6111    134584.38    10.472245   0.22077856 
   18500   -278.34983    26.068877   -252.28095    1884.8375    111040.38    10.472245   0.16520641 
   18600   -282.76997    28.106267    -254.6637    2032.1453    97061.634    10.472245   0.14342685 
   18700   -277.91565    29.474488   -248.44116    2131.0706    115819.68    10.472245   0.19629852 
   18800   -280.31589    25.863328   -254.45257    1869.9758    107802.28    10.472245    0.1623534 
   18900   -282.55992    28.626038   -253.93388    2069.7258    100867.25    10.472245   0.15443864 
   19000    -278.1237    29.495236   -248.62847    2132.5708    113081.49    10.472245   0.19359218 
   19100   -278.31952    25.927176   -252.39234    1874.5922    111097.54    10.472245   0.16276042 
   19200   -281.82124    28.914674   -252.90656    2090.5949    105343.74    10.472245   0.11825359 
   19300   -280.90554    29.477615   -251.42793    2131.2968    107753.02    10.472245   0.12832668 
   19400   -279.39393    30.826107   -248.56782    2228.7957    113478.08    10.472245   0.17993976 
   19500   -280.58353    25.044291   -255.53924    1810.7576    105134.99    10.472245   0.18464162 
   19600   -278.40192    25.775971   -252.62594    1863.6597    114671.32    10.472245    0.2121864 
   19700   -280.47374    29.423329   -251.05041    2127.3718    108411.72    10.472245   0.14972522 
   19800     -282.628    25.643931   -256.98407    1854.1129    97990.379    10.472245   0.13444943 
   19900   -279.88034    24.893819   -254.98652    1799.8782    106001.75    10.472245    0.1698939 
   20000   -280.25958    29.028093   -251.23149    2098.7953    108926.32    10.472245   0.21781688 
   20100   -275.19805    25.986323   -249.21173    1878.8687    122978.18    10.472245   0.24994077 
   20200   -283.36701    26.670696   -256.69631    1928.3503     98109.52    10.472245   0.12165965 
   20300   -280.48192    29.312139   -251.16978    2119.3325    107608.63    10.472245   0.16229613 
   20400   -275.21963    25.788991   -249.43064    1864.6011    121065.18    10.472245   0.20446158 
   20500   -284.36746     28.51597   -255.85149    2061.7677    94020.722    10.472245   0.15603989 
   20600   -280.55133    24.208368   -256.34297    1750.3186    104238.93    10.472245   0.17061539 
   20700    -280.9983    28.630045   -252.36826    2070.0156    106189.76    10.472245   0.15560348 
   20800   -277.10606    27.530719   -249.57534    1990.5319    118530.75    10.472245   0.20432229 
   20900   -281.75822    27.298643   -254.45958    1973.7523    103420.71    10.472245   0.14559193 
   21000   -282.21387     27.54473   -254.66914    1991.5449    102916.57    10.472245   0.14664414 
   21100   -279.20373    28.480407   -250.72332    2059.1964    111991.83    10.472245   0.12811184 
   21200    -281.2198    26.770276   -254.44953    1935.5502    104174.92    10.472245   0.13999998 
   21300   -282.49581    26.184101   -256.31171    1893.1684    101019.85    10.472245   0.14482692 
   21400   -280.53044    31.643576   -248.88687    2287.9005    110875.97    10.472245    0.1664227 
   21500   -278.66252    25.798677   -252.86384    1865.3014    112375.13    10.472245   0.15986947 
   21600   -283.13839    28.020704   -255.11768    2025.9589    99265.026    10.472245   0.14182603 
   21700   -277.84072    26.554423    -251.2863    1919.9435    115084.16    10.472245   0.16716793 
   21800   -284.25414    28.989558   -255.26459    2096.0092    95255.074    10.472245   0.13451033 
   21900    -283.5071     27.14035   -256.36675    1962.3073    98343.703    10.472245   0.12799897 
   22000   -278.28733    26.404809   -251.88252    1909.1261    114001.35    10.472245   0.18741513 
   22100   -282.19582    30.659975   -251.53585     2216.784     104248.1    10.472245   0.16199134 
   22200   -279.07003     22.19634   -256.87369    1604.8445    106891.02    10.472245   0.15922824 
   22300   -279.89661    29.512194   -250.38442    2133.7969    107247.62    10.472245   0.17218489 
   22400   -279.78162    28.518533   -251.26308     2061.953    111754.54    10.472245   0.17876943 
   22500   -281.26309    25.196136   -256.06695    1821.7363    100630.91    10.472245    0.1665696 
   22600   -282.48499     23.79711   -258.68788    1720.5837    97832.388    10.472245    0.1369315 
   22700   -280.24255    28.517762   -251.72479    2061.8973    108969.89    10.472245    0.1682549 
   22800   -281.02245     31.63033   -249.39212    2286.9428    106988.84    10.472245   0.16160643 
   22900   -281.63666    24.451735   -257.18493    1767.9145    99822.807    10.472245    0.1639064 
   23000   -277.82924    25.100485   -252.72875    1814.8206    114819.47    10.472245   0.16433273 
   23100   -277.74927    26.032471    -251.7168    1882.2052    114159.79    10.472245   0.20984104 
   23200   -280.96566    26.141817   -254.82385    1890.1112    104854.48    10.472245   0.16362229 
   23300   -284.78863     27.26078   -257.52785    1971.0147    91612.798    10.472245    0.1278219 
   23400   -279.45021    27.957029   -251.49319     2021.355    111431.71    10.472245   0.16285924 
   23500   -281.59905    28.514096   -253.08495    2061.6322    102948.17    10.472245   0.13546763 
   23600   -284.11477    25.543944   -258.57082    1846.8836    94051.383    10.472245   0.14150418 
   23700   -280.50238    30.456486    -250.0459    2202.0713     108217.7    10.472245   0.16601431 
   23800   -278.85256    25.846461    -253.0061    1868.7563    111843.03    10.472245   0.16169783 
   23900   -282.86059     25.54655   -257.31404    1847.0721    99445.468    10.472245   0.15909998 
   24000   -277.91635    28.741204   -249.17514    2078.0526    114721.46    10.472245   0.18677525 
   24100   -281.96401    28.894361   -253.06965    2089.1262     102077.1    10.472245    0.1539654 
   24200   -281.74858    25.575328   -256.17325    1849.1528     102528.1    10.472245   0.14666502 
   24300   -275.44687    26.753182   -248.69368    1934.3142    122698.56    10.472245   0.16844437 
   24400    -280.1209    25.415928   -254.70497    1837.6278    105529.56    10.472245   0.16640236 
   24500   -280.65333    28.348497   -252.30484     2049.659    104742.56    10.472245   0.16123779 
   24600   -276.59171    32.291352   -244.30036    2334.7362    121742.45    10.472245   0.22886172 
   24700   -279.74302    28.255768   -251.48725    2042.9545     108841.3    10.472245   0.16741011 
   24800   -281.11335    26.756142   -254.35721    1934.5282    106134.83    10.472245   0.14703808 
   24900   -278.89819    32.214743   -246.68345    2329.1972     114853.6    10.472245    0.1659629 
   25000   -281.85385    29.593077   -252.26078    2139.6449    104213.23    10.472245    0.1339854 
   25100   -282.36889    28.264804   -254.10409    2043.6079    100692.91    10.472245   0.14998392 
   25200   -277.45778    30.694395   -246.76339    2219.2726    119182.27    10.472245   0.16281942 
   25300   -279.39254     29.03718   -250.35536    2099.4523    111133.62    10.472245   0.16967748 
   25400   -279.58993    26.679597   -252.91033    1928.9939    108572.35    10.472245   0.15942024 
   25500   -280.24022    28.870208   -251.37002    2087.3799    108249.76    10.472245   0.15359742 
   25600   -280.82744     30.10458   -250.72286    2176.6277    107930.08    10.472245   0.15294537 
   25700   -279.38525    22.996796   -256.38845    1662.7192    107779.96    10.472245   0.17561402 
   25800   -278.11349    30.760822   -247.35267    2224.0755    115733.82    10.472245    0.2021608 
   25900   -278.68898    25.757436   -252.93154    1862.3196    112973.27    10.472245   0.18111395 
   26000   -278.89867     24.09873   -254.79994    1742.3915    110996.38    10.472245   0.17361371 
   26100   -278.44032    31.364341   -247.07598    2267.7112    116112.94    10.472245   0.16309166 
   26200   -282.81059    29.811465   -252.99913    2155.4349    100281.46    10.472245   0.13525704 
   26300   -280.10316    27.042434   -253.06073    1955.2278    110536.76    10.472245   0.14876257 
   26400   -276.86338    32.175146   -244.68823    2326.3342    119192.41    10.472245   0.20224424 
   26500    -279.9456    30.239252   -249.70635    2186.3648    111516.25    10.472245   0.18843878 
   26600   -280.36665    26.762337   -253.60431    1934.9762     105833.1    10.472245   0.18420441 
   26700   -280.70422    30.040166   -250.66406    2171.9704    108569.93    10.472245   0.17770028 
   26800   -273.72773    28.199061   -245.52867    2038.8545    126502.96    10.472245   0.19746031 
   26900   -282.79163     28.12222   -254.66941    2033.2987    99456.508    10.472245   0.15689912 
   27000   -277.66678    27.042565   -250.62421    1955.2373    117070.09    10.472245   0.18966852 
   27100   -277.44465    27.424906   -250.01974    1982.8814    118866.04    10.472245   0.20904571 
   27200    -282.2238    26.008154   -256.21564     1880.447    100627.19    10.472245   0.14814202 
   27300    -280.7196    30.503437   -250.21617     2205.466    107924.96    10.472245   0.14688409 
   27400   -277.26019    23.325579   -253.93462    1686.4909     112842.7    10.472245   0.16442175 
   27500   -284.99635    26.382852    -258.6135    1907.5385    92870.314    10.472245   0.12672405 
   27600   -278.51463    27.254329    -251.2603    1970.5483    113275.07    10.472245   0.18329242 
   27700   -277.09219    26.684033   -250.40816    1929.3146    116143.29    10.472245   0.20296514 
   27800   -280.14908    23.054263   -257.09481    1666.8742    104517.13    10.472245   0.16944015 
   27900   -281.59781    28.989343   -252.60847    2095.9936     106097.5    10.472245   0.15077728 
   28000   -279.28535    28.519074   -250.76628    2061.9921    109230.54    10.472245    0.1786743 
   28100   -282.95749    24.799708   -258.15779    1793.0738    97390.641    10.472245   0.15078523 
   28200   -279.78008    27.755019   -252.02506    2006.7492       110773    10.472245   0.15959452 
   28300   -277.85015     25.94344   -251.90671    1875.7681    115116.35    10.472245   0.19077549 
   28400   -282.82292    28.183479   -254.63945    2037.7279    99991.747    10.472245   0.17132653 
   28500   -282.83441    30.149543   -252.68486    2179.8786    101327.15    10.472245   0.12601659 
   28600   -275.98757    27.929155   -248.05842    2019.3397    120822.03    10.472245   0.23822757 
   28700   -279.73892    23.882642   -255.85628    1726.7678    108892.86    10.472245   0.16533639 
   28800   -280.93529    28.891354   -252.04394    2088.9088    107785.36    10.472245   0.13592146 
   28900   -276.14497    27.841286   -248.30368    2012.9865    121941.98    10.472245   0.18925102 
   29000   -283.78491    27.034696   -256.75022    1954.6683    95795.338    10.472245   0.15343039 
   29100   -281.71107    32.396095   -249.31497    2342.3093    106368.86    10.472245   0.13537391 
   29200   -283.69548    31.273524   -252.42196    2261.1449    100112.54    10.472245   0.14172411 
   29300   -282.91832    25.100823    -257.8175     1814.845    98726.479    10.472245   0.13669981 
   29400   -281.78396    28.601487   -253.18248    2067.9508    102686.82    10.472245   0.19457493 
   29500   -277.53389    27.952001   -249.58189    2020.9915    116366.43    10.472245   0.19709125 
   29600   -283.97401    25.779956   -258.19406    1863.9478    95177.084    10.472245   0.13583185 
   29700   -281.37884    26.347633   -255.03121    1904.9921    105552.79    10.472245   0.15261138 
   29800   -276.66756    26.210074   -250.45748    1895.0463    119058.85    10.472245    0.1830894 
   29900   -280.76003    25.557382   -255.20264    1847.8553    105864.14    10.472245   0.14815961 
   30000   -281.09562    26.787843   -254.30778    1936.8203    103059.12    10.472245    0.1581363 
   30100   -278.81074    27.538017   -251.27272    1991.0596    111419.87    10.472245   0.18623901 
   30200   -279.85758    28.061524   -251.79606    2028.9103    109628.66    10.472245   0.15803012 
   30300   -283.55398    26.766137   -256.78784    1935.2509    96691.571    10.472245   0.13206787 
   30400   -277.36746    27.887699   -249.47976    2016.3423     117960.8    10.472245    0.1966477 
   30500   -278.57917    26.473922   -252.10525    1914.1232    110369.33    10.472245   0.20165028 
   30600   -280.32804    28.492947    -251.8351    2060.1031    107912.99    10.472245    0.1949782 
   30700    -277.1442    32.495357   -244.64885    2349.4862    117217.63    10.472245   0.17823506 
   30800   -279.32815    25.995488   -253.33266    1879.5313    108421.66    10.472245   0.16794236 
   30900   -282.56249    28.392069   -254.17042    2052.8094    103309.65    10.472245   0.13994609 
   31000   -275.97866    28.522108   -247.45656    2062.2115    122810.32    10.472245   0.19455754 
   31100   -280.29324    24.618806   -255.67444    1779.9941    105606.85    10.472245   0.16214614 
   31200   -282.62796    30.025458    -252.6025     2170.907    103748.49    10.472245   0.13853578 
   31300   -276.33292    26.239405   -250.09352    1897.1671    120860.44    10.472245   0.15669698 
   31400   -281.93337    24.563996   -257.36937    1776.0312    101700.65    10.472245   0.13167752 
   31500   -278.42518    27.607364   -250.81782    1996.0735    112020.52    10.472245   0.21330871 
   31600   -281.53714    31.136515   -250.40063    2251.2389    104571.26    10.472245   0.15619525 
   31700   -282.88882    24.417832   -258.47099    1765.4632    95793.139    10.472245   0.13981533 
   31800   -284.18014    26.978123   -257.20201     1950.578    94894.866    10.472245   0.12249337 
   31900   -277.97277     26.59842   -251.37435    1923.1246    114272.39    10.472245   0.17314115 
   32000    -278.0047    31.265689   -246.73901    2260.5784    117875.52    10.472245   0.17605942 
   32100   -281.44282    26.255697   -255.18712     1898.345    105127.18    10.472245   0.14277952 
   32200   -279.68563    28.229539   -251.45609    2041.0581     111531.6    10.472245   0.18936779 
   32300   -277.89682    32.100731   -245.79609    2320.9539    117021.81    10.472245   0.21838775 
   32400   -281.22164    25.904144    -255.3175    1872.9269    102292.02    10.472245   0.16798706 
   32500   -276.20822    25.109977   -251.09824    1815.5069     119706.1    10.472245   0.19259725 
   32600   -277.58847    28.739309   -248.84916    2077.9156    116244.16    10.472245   0.16916712 
   32700   -283.59829    27.414856   -256.18344    1982.1548    97871.125    10.472245   0.13701117 
   32800   -278.83738    28.931045   -249.90634    2091.7785    111884.67    10.472245   0.19851029 
   32900   -277.31496      25.7219   -251.59306    1859.7503    115375.07    10.472245   0.20542386 
   33000   -283.31854    24.997359   -258.32118    1807.3643    96193.255    10.472245   0.12489096 
   33100   -278.04576    26.482579   -251.56318    1914.7491    111664.95    10.472245   0.18051743 
   33200   -280.73825    31.092966   -249.64529    2248.0902     107290.8    10.472245   0.16544515 
   33300   -283.65956    26.766563   -256.89299    1935.2817    96927.345    10.472245   0.15273053 
   33400   -280.25268    28.685706   -251.56698      2074.04    106333.34    10.472245   0.17926856 
   33500    -278.3581    27.745666   -250.61244     2006.073    113347.87    10.472245   0.18977236 
   33600   -282.65381    29.277206   -253.37661    2116.8067    100269.57    10.472245   0.15027029 
   33700   -282.92778    26.215062   -256.71272     1895.407    99593.442    10.472245   0.12844547 
   33800   -279.98357    29.366254   -250.61732    2123.2451    107432.84    10.472245   0.18593302 
   33900   -282.66755    33.749551     -248.918    2440.1672    103481.02    10.472245   0.16423076 
   34000   -282.09901    25.360824   -256.73818    1833.6437    99635.709    10.472245   0.18334193 
   34100   -277.35377    25.669883   -251.68389    1855.9893    114868.59    10.472245   0.18051622 
   34200   -279.63626    29.421954    -250.2143    2127.2723    108457.76    10.472245   0.15988376 
   34300   -281.96329    24.025624   -257.93767    1737.1058    101042.31    10.472245    0.1413078 
   34400   -280.30459    28.910702   -251.39389    2090.3077    109756.58    10.472245   0.15136627 
   34500   -279.60336    27.980335   -251.62302    2023.0401    109179.81    10.472245   0.18013929 
   34600   -283.98705    25.804872   -258.18218    1865.7493    93376.078    10.472245   0.14318843 
   34700   -278.63188    26.931795   -251.70008    1947.2283    110984.54    10.472245   0.16463477 
   34800   -280.94058    29.203233   -251.73734    2111.4583    106569.23    10.472245   0.14975846 
   34900   -282.58453    25.945061   -256.63947    1875.8853    102071.98    10.472245   0.13156196 
   35000   -277.69974    26.712894   -250.98685    1931.4013    115353.51    10.472245   0.21453656 
   35100   -277.47391    27.261762   -250.21214    1971.0857    118275.91    10.472245   0.16636996 
   35200   -282.67038    27.990373   -254.68001    2023.7659    100725.55    10.472245   0.14982537 
   35300   -281.56906    28.568575   -253.00049    2065.5712    103178.21    10.472245   0.12870648 
   35400   -279.13996    26.955451   -252.18451    1948.9387    108436.48    10.472245   0.15490734 
   35500   -279.14231    25.855443   -253.28686    1869.4057    110541.83    10.472245   0.14887375 
   35600    -281.5499    27.249611   -254.30029    1970.2071    105860.33    10.472245   0.16487561 
   35700   -276.56064     28.38402   -248.17662    2052.2275    118319.74    10.472245   0.15479976 
   35800   -281.12044    26.105286   -255.01515    1887.4699    103895.17    10.472245   0.15272682 
   35900   -281.13757     26.84742   -254.29015    1941.1279    103405.83    10.472245   0.14806987 
   36000   -277.95736    27.955452   -250.00191     2021.241    112572.44    10.472245   0.18197409 
   36100   -280.76823    27.677366   -253.09086    2001.1348    107023.22    10.472245    0.1587792 
   36200   -283.79472    21.883084   -261.91164    1582.1954    92937.433    10.472245   0.14988056 
   36300   -281.64658    28.052136   -253.59444    2028.2315    104450.77    10.472245   0.12347089 
   36400   -279.76663    30.159483   -249.60715    2180.5973     112265.5    10.472245   0.16439134 
   36500   -280.14683     24.61221   -255.53462    1779.5173    106894.51    10.472245   0.19626623 
   36600   -281.97929    27.839032   -254.14026    2012.8236     103263.5    10.472245   0.13109327 
   36700   -280.56467     30.90044   -249.66423    2234.1701    108187.85    10.472245   0.12786596 
   36800   -281.81479    27.455411   -254.35938    1985.0869    102501.78    10.472245   0.13954591 
   36900   -280.76656    32.409677   -248.35688    2343.2913    110202.69    10.472245   0.15233307 
   37000   -276.48869    28.275135   -248.21356    2044.3548    119433.13    10.472245   0.17979644 
   37100   -279.36206    25.939905   -253.42215    1875.5125    109918.71    10.472245   0.15998155 
   37200   -278.67761    26.447334   -252.23028    1912.2008    114333.48    10.472245   0.19237351 
   37300    -274.1817    28.751923   -245.42977    2078.8276    128191.04    10.472245   0.25853832 
   37400   -277.18643     23.35535   -253.83108    1688.6435    113540.03    10.472245   0.20833834 
   37500   -278.93135    27.350246    -251.5811    1977.4833    112586.01    10.472245   0.18071974 
   37600   -277.25634    30.096835   -247.15951    2176.0677    116204.52    10.472245   0.14139753 
   37700   -281.71511    26.862793   -254.85232    1942.2393    101318.53    10.472245   0.15914548 
   37800   -278.76646    29.256051   -249.51041    2115.2772    112796.72    10.472245   0.17430569 
   37900   -279.60337     26.58271   -253.02066    1921.9887    108210.94    10.472245   0.13797311 
   38000   -281.24194    26.203997   -255.03795    1894.6069    105792.86    10.472245   0.12520849 
   38100   -279.40878    29.893068   -249.51572    2161.3349    109826.99    10.472245   0.16363619 
   38200    -282.8786    26.419637   -256.45897    1910.1982     98130.79    10.472245   0.14569453 
   38300    -282.1761    27.248867   -254.92723    1970.1533    102120.86    10.472245   0.13927401 
   38400    -277.7899    26.687423   -251.10248    1929.5597    113852.74    10.472245   0.15432633 
   38500   -284.09442    32.588707   -251.50571    2356.2356     99191.77    10.472245   0.13588454 
   38600   -283.86441    27.505592   -256.35881    1988.7152     95764.21    10.472245   0.14365069 
   38700   -280.49218    30.661591   -249.83059    2216.9008    107474.17    10.472245   0.14815599 
   38800   -275.54422     25.28954   -250.25468    1828.4897    118991.26    10.472245   0.20454633 
   38900   -283.36872    23.980594   -259.38812      1733.85    96759.982    10.472245   0.14107466 
   39000    -281.4493    25.242492   -256.20681     1825.088    102733.05    10.472245   0.16382064 
   39100   -281.48619    30.493321   -250.99287    2204.7345    106539.35    10.472245   0.16523748 
   39200    -279.0291    28.039747   -250.98936    2027.3357    111204.24    10.472245   0.16332588 
   39300    -281.8174    24.764334   -257.05306    1790.5161    100203.68    10.472245   0.14446792 
   39400   -279.69617    30.048261   -249.64791    2172.5558    110304.35    10.472245    0.1703959 
   39500   -280.00503    28.734396   -251.27063    2077.5604    109448.92    10.472245    0.1599059 
   39600   -282.71734    25.356141    -257.3612    1833.3051    99048.019    10.472245   0.12778944 
   39700   -278.50861    23.926531   -254.58208    1729.9411    110210.47    10.472245   0.15395443 
   39800   -280.61023    31.989949   -248.62028    2312.9441    109354.14    10.472245   0.14868779 
   39900   -283.86683     28.92188   -254.94495    2091.1159    97927.274    10.472245    0.1386542 
   40000   -280.89337    25.815447   -255.07792    1866.5139    104611.51    10.472245   0.14319699 
   40100    -279.3738    27.190606   -252.18319     1965.941    110732.25    10.472245   0.19279659 
   40200   -277.37103    27.649011   -249.72202    1999.0847    116230.87    10.472245   0.16908357 
   40300   -279.95225    22.985692   -256.96655    1661.9164    105588.57    10.472245   0.18119819 
   40400   -280.07811    28.871376   -251.20673    2087.4644    112265.77    10.472245   0.15840862 
   40500   -280.01431    28.017868   -251.99644    2025.7538    110013.03    10.472245   0.16411883 
   40600   -276.38226    23.348297   -253.03397    1688.1335    120539.67    10.472245   0.21025397 
   40700   -277.08461    31.623402   -245.46121    2286.4419    120797.76    10.472245   0.21163414 
   40800   -281.89491     28.48248   -253.41243    2059.3463    103716.56    10.472245   0.15658039 
   40900   -279.40021    26.756096   -252.64411    1934.5249    109897.62    10.472245   0.15709338 
   41000    -277.4606    32.298952   -245.16165    2335.2857    119509.83    10.472245   0.25977296 
   41100   -280.25308      30.1993   -250.05378    2183.4762    110144.77    10.472245   0.16745251 
   41200   -283.75386    29.429781   -254.32408    2127.8383    98062.073    10.472245   0.13410028 
   41300   -278.12387    27.280422   -250.84345    1972.4348    112528.73    10.472245   0.18018115 
   41400   -279.99983    34.484124   -245.51571    2493.2784    113325.63    10.472245   0.18068108 
   41500   -280.08106    25.347778   -254.73329    1832.7004    108265.77    10.472245   0.16989758 
   41600   -277.85189    26.366851   -251.48504    1906.3816    113839.62    10.472245   0.18238439 
   41700   -275.29872    26.020917   -249.27781    1881.3698    122665.34    10.472245   0.18316969 
   41800   -278.56436    22.953697   -255.61066    1659.6031    109526.77    10.472245   0.18993676 
   41900   -276.15375    25.400918   -250.75283    1836.5426    118469.62    10.472245   0.20809422 
   42000   -276.38871    26.264607    -250.1241    1898.9892    122460.23    10.472245    0.1620992 
   42100   -283.36345    27.065442     -256.298    1956.8913    97315.937    10.472245   0.14789162 
   42200   -279.24011    28.474314   -250.76579    2058.7559    113782.14    10.472245   0.17928031 
   42300    -278.9045    27.965692   -250.93881    2021.9814    113302.16    10.472245   0.18538398 
   42400   -282.45237    25.192765    -257.2596    1821.4926    100678.24    10.472245    0.1439498 
   42500   -278.96871    28.447272   -250.52144    2056.8007    112465.44    10.472245   0.14805117 
   42600   -279.41768     26.65994   -252.75774    1927.5727    108866.04    10.472245   0.15986444 
   42700   -285.88088    24.857316   -261.02357    1797.2389    87664.546    10.472245   0.13325693 
   42800    -285.3588    30.004986   -255.35382    2169.4268    94826.194    10.472245   0.10474775 
   42900   -279.69991    29.739239   -249.96068    2150.2127    111326.32    10.472245   0.15753732 
   43000   -280.37837    29.600001   -250.77837    2140.1455    107761.37    10.472245   0.19778286 
   43100   -282.74903    26.758579   -255.99045    1934.7044    100895.39    10.472245   0.13654475 
   43200   -277.12569    28.790098   -248.33559    2081.5878    118453.73    10.472245   0.18291368 
   43300   -275.15386    23.544013   -251.60985    1702.2842    121256.56    10.472245   0.25311563 
   43400    -282.5475    29.955537   -252.59196    2165.8516     102673.6    10.472245   0.13246109 
   43500   -284.58382    27.025123   -257.55869    1953.9762      94707.5    10.472245   0.12707002 
   43600   -279.68139     29.65363   -250.02776    2144.0231    109539.68    10.472245   0.15448193 
   43700   -278.43068    26.068629   -252.36205    1884.8195    114503.32    10.472245   0.16424228 
   43800    -284.7332    25.250496    -259.4827    1825.6667    93699.237    10.472245   0.11814348 
   43900   -281.18115    25.722231   -255.45892    1859.7742    102343.46    10.472245   0.15419748 
   44000   -276.76505    26.461227   -250.30382    1913.2053    118133.86    10.472245   0.20700154 
   44100   -276.55919    25.471317   -251.08787    1841.6326    117901.02    10.472245   0.22672247 
   44200   -279.95922    24.178333   -255.78088    1748.1469    108819.77    10.472245   0.17420319 
   44300   -277.94332    30.454384   -247.48894    2201.9193    114957.05    10.472245   0.16494616 
   44400   -279.74495    27.726487   -252.01847    2004.6863    109856.72    10.472245   0.17667233 
   44500   -282.05239    26.982285   -255.07011    1950.8789    100793.62    10.472245   0.16206797 
   44600   -276.55369    28.887581    -247.6661     2088.636    119809.56    10.472245   0.15626932 
   44700   -279.95781    27.639267   -252.31854    1998.3801     109524.2    10.472245   0.13617915 
   44800   -280.74047    26.175955   -254.56451    1892.5794    106648.32    10.472245   0.14832868 
   44900   -277.36308    26.248956   -251.11413    1897.8576    116530.59    10.472245   0.18017256 
   45000   -279.78866    30.218301   -249.57036      2184.85    111077.32    10.472245   0.18119488 
   45100   -281.84551    25.411072   -256.43444    1837.2767     100341.8    10.472245   0.14148645 
   45200   -279.67771    30.919093   -248.75862    2235.5188    111036.19    10.472245   0.16921112 
   45300   -276.23641    25.673582   -250.56282    1856.2568    119712.13    10.472245   0.19149877 
   45400   -283.57109    27.682697   -255.88839    2001.5203    95884.054    10.472245    0.1328833 
   45500   -276.11404    28.325523   -247.78851     2047.998    122181.81    10.472245    0.1901054 
   45600   -279.91891    27.687746   -252.23116    2001.8853    109110.96    10.472245   0.16011296 
   45700   -283.51847    28.517613   -255.00086    2061.8865    98605.432    10.472245   0.13035941 
   45800   -276.92534    29.684571   -247.24077    2146.2601    120052.81    10.472245   0.21240456 
   45900   -278.87347    25.377828   -253.49564    1834.8731    110784.51    10.472245   0.18877779 
   46000   -279.62633    27.558605   -252.06773    1992.5481    110962.59    10.472245   0.16761305 
   46100   -281.43608    32.762108   -248.67397    2368.7729    104883.47    10.472245    0.1665339 
   46200   -280.95503    25.743229    -255.2118    1861.2924    104472.35    10.472245   0.14692673 
   46300   -280.66687    29.402043   -251.26482    2125.8328    105060.39    10.472245   0.13299821 
   46400    -281.0566      29.9585    -251.0981    2166.0658    107907.38    10.472245   0.12843013 
   46500   -283.43751    26.612398   -256.82511    1924.1352    97008.291    10.472245   0.12801661 
   46600    -279.5466    28.664847   -250.88175    2072.5319    109463.76    10.472245    0.1763496 
   46700   -276.75274    23.994528   -252.75821    1734.8575    116212.92    10.472245   0.20396805 
   46800   -280.63404    23.107621   -257.52642    1670.7321    104923.85    10.472245   0.17633453 
   46900   -279.82592     27.47408   -252.35184    1986.4368     110194.9    10.472245   0.15349144 
   47000   -277.09832     27.46043   -249.63789    1985.4498    116501.24    10.472245   0.18226307 
   47100   -279.33931    26.440907   -252.89841    1911.7361     109925.9    10.472245   0.16330285 
   47200   -282.01838    26.579355   -255.43903    1921.7462    101198.49    10.472245   0.12992499 
   47300   -276.16746    28.496813   -247.67064    2060.3826    117296.04    10.472245    0.1865038 
   47400   -278.59214    27.519917   -251.07222    1989.7509     112560.7    10.472245    0.1865946 
   47500   -278.61615     25.19071   -253.42544    1821.3441    111393.68    10.472245   0.15409491 
   47600   -281.65207    22.841885   -258.81019    1651.5188    101000.95    10.472245   0.15824367 
   47700   -280.11767    29.299994   -250.81768    2118.4544    109098.45    10.472245   0.15506427 
   47800   -275.54649    26.754426   -248.79207    1934.4042    121742.86    10.472245   0.21103794 
   47900   -280.38955     29.44093   -250.94862    2128.6443    108975.31    10.472245   0.18504415 
   48000   -280.48752    25.506547   -254.98097    1844.1798    105482.36    10.472245   0.16141565 
   48100   -274.72357    27.257723   -247.46585    1970.7936    124493.23    10.472245   0.18196334 
   48200   -278.46851    28.952077   -249.51643    2093.2992    113156.77    10.472245   0.18405814 
   48300   -280.54617    27.153464   -253.39271    1963.2555    106498.22    10.472245   0.17184272 
   48400   -282.17876    28.950094   -253.22867    2093.1558    102268.28    10.472245   0.14650383 
   48500   -279.35916    30.494966   -248.86419    2204.8535    113518.66    10.472245   0.17658226 
   48600   -279.16954    23.997979   -255.17156     1735.107    110074.54    10.472245    0.1859349 
   48700   -282.44675    29.438605   -253.00815    2128.4762     100443.3    10.472245   0.13343771 
   48800    -277.7391    29.246264   -248.49283    2114.5696    115679.38    10.472245   0.22017072 
   48900   -278.45903    24.919966   -253.53906    1801.7687    110770.43    10.472245   0.19556898 
   49000    -282.9837    28.399144   -254.58455    2053.3209    101523.38    10.472245   0.13421693 
   49100   -277.69381    30.353032   -247.34078    2194.5914    116838.25    10.472245   0.19427634 
   49200   -280.59691     27.25539   -253.34152     1970.625    106180.13    10.472245   0.20910222 
   49300   -277.52773    26.127794   -251.39994    1889.0973    113846.86    10.472245   0.18319842 
   49400   -275.92557    28.930177    -246.9954    2091.7158    121762.89    10.472245   0.21396357 
   49500   -280.77387    26.699131   -254.07474    1930.4062     105319.5    10.472245   0.13855861 
   49600   -277.84549    26.461429   -251.38406    1913.2199    113084.59    10.472245   0.17781155 
   49700   -280.17388    33.292327   -246.88155    2407.1089    110373.14    10.472245   0.16896396 
   49800   -284.73566    33.450518   -251.28514    2418.5464    97055.544    10.472245   0.12670802 
   49900   -279.45432    25.203739   -254.25058    1822.2861    109024.25    10.472245   0.19505683 
   50000   -278.36803     28.70561   -249.66242    2075.4791    115527.33    10.472245   0.17169083 
   50100   -276.99367    27.517205   -249.47646    1989.5548    116960.92    10.472245   0.16191913 
   50200   -281.32659    26.965331   -254.36126    1949.6531    104567.99    10.472245   0.12529654 
   50300   -277.70937    28.129705   -249.57966    2033.8399    117299.03    10.472245   0.17609821 
   50400    -274.8345    27.415786   -247.41871     1982.222    124978.51    10.472245   0.23789627 
   50500   -279.59325    23.880774   -255.71248    1726.6328    107320.35    10.472245   0.19063789 
   50600   -279.49878    30.008682   -249.49009    2169.6941    111325.59    10.472245   0.19544003 
   50700   -279.00319    28.373482   -250.62971    2051.4655    112493.21    10.472245   0.17492819 
   50800    -278.7807    26.228091    -252.5526     1896.349    111312.62    10.472245   0.14514336 
   50900   -280.34517    26.179059   -254.16612    1892.8039    106073.67    10.472245   0.14261923 
   51000   -281.39549     28.36228   -253.03321    2050.6556    104517.89    10.472245   0.14052868 
   51100   -277.90419    30.194327   -247.70987    2183.1166    116827.93    10.472245   0.18413626 
   51200   -282.89903    27.011761   -255.88727    1953.0101    98169.266    10.472245   0.13897585 
   51300    -280.4334    27.970689   -252.46271    2022.3427    105814.84    10.472245   0.14369781 
   51400   -277.72339    28.663089    -249.0603    2072.4047     115537.7    10.472245   0.17377965 
   51500   -283.35716    25.441984   -257.91517    1839.5117    96857.436    10.472245   0.13741746 
   51600   -277.50019    25.586919   -251.91328    1849.9909     113817.4    10.472245   0.20367144 
   51700    -277.4801    27.624866   -249.85523    1997.3389    115046.79    10.472245    0.2126973 
   51800    -284.0484    26.403814   -257.64458    1909.0542    94416.081    10.472245   0.12092504 
   51900   -277.98953    25.031231    -252.9583    1809.8134    112580.54    10.472245   0.23798575 
   52000   -278.04193    27.061396   -250.98054    1956.5988    113411.07    10.472245   0.22670832 
   52100   -278.77623    26.031515   -252.74472    1882.1361    115120.25    10.472245   0.16372556 
   52200   -282.38804    25.857152   -256.53089    1869.5293    101255.58    10.472245   0.15364156 
   52300   -276.55691    26.955059   -249.60185    1948.9104    121294.33    10.472245   0.19983433 
   52400   -279.91094     26.58139   -253.32955    1921.8933    108162.76    10.472245   0.15969856 
   52500    -281.4127    22.819961   -258.59274    1649.9336    103167.86    10.472245   0.15788061 
   52600   -278.36699    25.851549   -252.51544    1869.1242    113570.59    10.472245   0.14145266 
   52700    -280.5675    30.439808    -250.1277    2200.8654    109122.89    10.472245   0.15574987 
   52800   -280.26089     23.22112   -257.03977    1678.9383    105934.06    10.472245   0.15803282 
   52900   -280.83235    28.281446    -252.5509    2044.8111    106344.68    10.472245    0.1723133 
   53000   -278.66572    27.754996   -250.91073    2006.7476    112823.19    10.472245   0.18495351 
   53100    -281.4605    27.769961   -253.69054    2007.8296    105642.67    10.472245   0.13711173 
   53200   -285.64317    26.974683   -258.66849    1950.3293    90354.245    10.472245   0.12641999 
   53300   -279.17245    28.398474   -250.77398    2053.2725     112238.7    10.472245   0.17837799 
   53400   -281.05025    29.063866   -251.98639    2101.3818    106218.83    10.472245   0.15856565 
   53500   -283.29942    26.085014   -257.21441    1886.0042     97673.84    10.472245   0.13099971 
   53600   -280.75551    32.545728   -248.20978    2353.1282    109280.31    10.472245   0.14605837 
   53700   -282.70098    28.390279    -254.3107      2052.68    100034.67    10.472245   0.14287302 
   53800   -281.01797    28.317199   -252.70078    2047.3961    106260.59    10.472245   0.14259575 
   53900   -276.24037     30.03137     -246.209    2171.3345    119360.11    10.472245   0.17599581 
   54000   -278.18616    24.734611   -253.45155    1788.3671    112984.07    10.472245   0.17090064 
   54100   -281.57228    28.386473   -253.18581    2052.4048    104894.53    10.472245   0.14924294 
   54200   -278.68811    32.960714    -245.7274    2383.1325    117545.98    10.472245   0.16469487 
   54300   -280.71491    28.031389   -252.68352    2026.7314    106153.96    10.472245   0.13289219 
   54400   -280.63104    27.069648    -253.5614    1957.1954    107083.67    10.472245   0.17815668 
   54500   -272.11242    26.029528   -246.08289    1881.9925    133373.94    10.472245   0.21803515 
   54600   -279.59832    28.300828   -251.29749    2046.2125    107384.51    10.472245   0.19814331 
   54700    -281.8293    29.571497    -252.2578    2138.0847    104215.63    10.472245   0.16472705 
   54800   -284.68388    30.499058   -254.18482    2205.1493    94865.348    10.472245   0.14750695 
   54900   -278.34153    23.798769   -254.54276    1720.7036    110775.45    10.472245    0.1743294 
   55000   -275.54087    27.055461   -248.48541    1956.1697    121065.14    10.472245   0.18728304 
   55100   -279.95828    26.257521   -253.70076    1898.4768    108367.78    10.472245   0.12934196 
   55200   -279.92931    26.913029   -253.01628    1945.8716    109140.39    10.472245    0.1308302 
   55300   -276.23085    26.977076   -249.25377    1950.5023    123991.27    10.472245   0.16447649 
   55400   -280.95221    29.737794   -251.21441    2150.1083    105418.97    10.472245   0.15320562 
   55500   -282.23526    26.788249   -255.44701    1936.8496    101820.85    10.472245   0.13570041 
   55600   -278.56555    31.547929   -247.01762    2280.9851    116845.07    10.472245   0.16591958 
   55700   -279.45399    30.527306   -248.92668    2207.1918    111145.05    10.472245   0.16932328 
   55800   -280.25707    26.623125   -253.63394    1924.9108    106088.32    10.472245   0.18551802 
   55900   -277.65797    28.865458   -248.79251    2087.0365    114345.61    10.472245   0.17211244 
   56000   -275.52575    32.154493   -243.37126     2324.841    125640.63    10.472245   0.19980079 
   56100    -278.3223    27.612557   -250.70974    1996.4489    113991.22    10.472245   0.19202859 
   56200   -280.51208     25.21798    -255.2941    1823.3157    103596.34    10.472245   0.16287449 
   56300   -278.54195    31.089369   -247.45258    2247.8301    113016.09    10.472245   0.16113432 
   56400   -279.98772    28.491551   -251.49617    2060.0022    110429.49    10.472245   0.16069607 
   56500   -280.95452    28.542456   -252.41206    2063.6827    104966.64    10.472245   0.17821352 
   56600   -278.58354    32.534703   -246.04884     2352.331    114369.07    10.472245   0.16681381 
   56700   -280.27181    31.577574   -248.69424    2283.1285    110464.56    10.472245   0.16730257 
   56800   -281.07988    28.516221   -252.56366    2061.7858    104655.49    10.472245   0.16263233 
   56900   -277.33671    24.548953   -252.78776    1774.9436    113194.02    10.472245   0.16186199 
   57000   -277.80743    31.766948   -246.04048    2296.8206    116976.45    10.472245   0.15367314 
   57100   -276.84519    24.589135   -252.25605    1777.8489       118617    10.472245   0.15897425 
   57200   -281.67782     29.04972    -252.6281     2100.359    103617.98    10.472245   0.14826702 
   57300   -277.17721    26.836623   -250.34058    1940.3472    116726.45    10.472245   0.18544309 
   57400   -277.31778    28.624933   -248.69284    2069.6459    118754.01    10.472245   0.17094144 
   57500    -280.2569    24.492933   -255.76397    1770.8932    104447.11    10.472245   0.16869754 
   57600   -280.32829     28.94124   -251.38705    2092.5157    107988.22    10.472245   0.16326152 
   57700    -280.4337    28.912142   -251.52156    2090.4118       107950    10.472245    0.1739789 
   57800   -279.50835    23.099706   -256.40864    1670.1599    107151.63    10.472245    0.1808335 
   57900   -281.38459    28.018079   -253.36651    2025.7691    104736.63    10.472245   0.15164068 
   58000   -278.28848    27.658557   -250.62992    1999.7748    114773.62    10.472245   0.17529365 
   58100   -280.17979    23.475109   -256.70469    1697.3023    105222.97    10.472245   0.14818706 
   58200   -277.76099    28.641591    -249.1194    2070.8504    116015.91    10.472245   0.19826476 
   58300   -279.01604     28.39811   -250.61793    2053.2462    110605.76    10.472245   0.16689742 
   58400   -281.23127    26.097906   -255.13336    1886.9363    105498.64    10.472245   0.15754579 
   58500   -277.21233    29.868014   -247.34431    2159.5235    119179.97    10.472245   0.18445874 
   58600   -279.47082    28.386843   -251.08398    2052.4315    110684.13    10.472245    0.1237759 
   58700   -283.13076    28.110488   -255.02028    2032.4505    99028.947    10.472245   0.12652279 
   58800   -277.73208    30.434668   -247.29741    2200.4938    114228.83    10.472245   0.16494938 
   58900   -278.96887    27.185942   -251.78293    1965.6037    110574.68    10.472245   0.17344849 
   59000    -279.8039    26.129626   -253.67427    1889.2297    109827.23    10.472245   0.15532815 
   59100   -277.27118    29.176462   -248.09472    2109.5227    116174.03    10.472245   0.16945615 
   59200   -281.22067    32.509017   -248.71166    2350.4738    107586.08    10.472245   0.15297307 
   59300   -279.47952    25.958792   -253.52073    1876.8781    111599.44    10.472245   0.15749146 
   59400   -279.95369    28.280721   -251.67297    2044.7587    107637.91    10.472245   0.15738251 
   59500   -278.56354    30.132823   -248.43072    2178.6698    114586.98    10.472245   0.15676884 
   59600   -280.13013    24.888295   -255.24183    1799.4788    108374.52    10.472245   0.14451649 
   59700   -278.01892    27.304644   -250.71427    1974.1862    117351.77    10.472245   0.16976022 
   59800   -275.21202    32.873784   -242.33824    2376.8473    125502.32    10.472245   0.21621549 
   59900   -280.18176    30.880479   -249.30128     2232.727    110234.78    10.472245    0.1285153 
   60000   -281.39717    26.753198   -254.64397    1934.3154    104560.19    10.472245   0.15245797 
   60100   -278.19999    27.247808   -250.95218    1970.0768    115665.86    10.472245    0.1445726 
   60200   -281.86047    33.396975    -248.4635    2414.6751    106060.17    10.472245   0.15671854 
   60300   -282.36467    27.029289   -255.33538    1954.2773    100896.92    10.472245   0.13810368 
   60400   -279.77969    29.377815   -250.40188     2124.081    109170.59    10.472245   0.17166119 
   60500   -274.71142    28.469728   -246.24169    2058.4243    123685.88    10.472245   0.20314623 
   60600   -280.96641    28.697703   -252.26871    2074.9074    106552.08    10.472245   0.13409738 
   60700   -278.49397    23.465521   -255.02845     1696.609    110501.89    10.472245   0.16809198 
   60800   -277.69557    30.783718   -246.91185    2225.7309    117143.41    10.472245    0.2160348 
   60900   -280.46578    29.710285   -250.75549    2148.1194    108191.28    10.472245   0.16990584 
   61000   -279.44401    25.548595   -253.89541      1847.22    108627.51    10.472245   0.17284403 
   61100   -278.84637    30.133422   -248.71295    2178.7131    112665.14    10.472245   0.16129977 
   61200   -278.84384    30.116625   -248.72722    2177.4986    112035.63    10.472245    0.1794643 
   61300    -281.3732    27.870285   -253.50292    2015.0832    103734.36    10.472245   0.16489474 
   61400   -279.64535    29.380069   -250.26528     2124.244    110734.86    10.472245   0.16816205 
   61500   -276.71636    32.906873   -243.80949    2379.2397    123419.06    10.472245   0.17488736 
   61600   -281.45058    28.857252   -252.59333    2086.4431    103636.66    10.472245   0.16368965 
   61700   -279.01822    27.020499   -251.99772    1953.6419    110206.54    10.472245   0.16143453 
   61800   -275.72046    27.859102   -247.86136    2014.2747    122031.19    10.472245   0.19989887 
   61900   -281.59074    25.784256   -255.80649    1864.2587    103474.35    10.472245   0.14781397 
   62000   -282.01046    28.998034   -253.01243     2096.622     104478.2    10.472245   0.14813035 
   62100   -280.85431    30.406383   -250.44793    2198.4488    106813.65    10.472245    0.1638662 
   62200   -281.26429    27.745953   -253.51834    2006.0938    107790.41    10.472245   0.16140482 
   62300   -278.43322    23.980406   -254.45281    1733.8364    112026.01    10.472245   0.17473553 
   62400   -278.52959    30.810306   -247.71928    2227.6533    114244.59    10.472245   0.16578376 
   62500   -282.49463    27.623598   -254.87103    1997.2472    100394.17    10.472245   0.14116943 
   62600   -281.56989    28.369112   -253.20078    2051.1495    105174.94    10.472245    0.1390377 
   62700   -276.11298    26.116089   -249.99689     1888.251    123386.05    10.472245   0.18629563 
   62800   -280.17934     32.25169   -247.92765    2331.8685    109544.44    10.472245   0.14123562 
   62900   -279.67965     24.89526   -254.78439    1799.9823     106202.7    10.472245   0.15086419 
   63000   -280.13795    30.244667   -249.89328    2186.7563    109978.12    10.472245    0.1872411 
   63100   -278.17029    29.202754   -248.96753    2111.4237    115473.14    10.472245   0.18092331 
   63200   -281.37022    28.257353   -253.11287    2043.0691    105256.76    10.472245   0.13633649 
   63300   -277.51984     26.13504    -251.3848    1889.6212    117443.53    10.472245   0.18092037 
   63400   -276.52003    28.637649   -247.88238    2070.5654    123669.44    10.472245   0.15674199 
   63500   -279.22893    24.754807   -254.47412    1789.8273    108653.89    10.472245   0.15998404 
   63600   -278.75983    28.283438   -250.47639    2044.9551    112601.65    10.472245   0.17579039 
   63700   -277.76948    31.441102   -246.32838    2273.2612     116919.3    10.472245   0.16382499 
   63800   -282.41587    27.668987   -254.74688     2000.529    102304.58    10.472245   0.14327936 
   63900   -278.21807    28.578283   -249.63979    2066.2731    118288.72    10.472245   0.21566265 
   64000   -276.13876    29.606204   -246.53256     2140.594    121329.55    10.472245   0.17665024 
   64100   -281.89646    27.105722   -254.79074    1959.8037    102548.26    10.472245   0.13124222 
   64200   -276.71776    26.827408   -249.89036     1939.681    114985.55    10.472245   0.18885499 
   64300   -279.47866    28.056992   -251.42166    2028.5826    111501.62    10.472245   0.19815353 
   64400   -285.59324    29.706556   -255.88668    2147.8497    92744.162    10.472245   0.10085984 
   64500    -276.3562    25.856638   -250.49956    1869.4921    118178.35    10.472245   0.18067229 
   64600    -278.2298    25.788958   -252.44084    1864.5987    112852.84    10.472245   0.20209199 
   64700   -280.46125     23.84333   -256.61792    1723.9255    105659.82    10.472245   0.15488244 
   64800   -275.81142    24.867535   -250.94388    1797.9778     121577.9    10.472245   0.21646135 
   64900   -280.79055    27.152892   -253.63766    1963.2141    107412.17    10.472245   0.16546021 
   65000   -280.98238    23.566168   -257.41621    1703.8861    103511.68    10.472245   0.14010288 
   65100   -280.35061    27.979854   -252.37075    2023.0053    108801.12    10.472245    0.1841593 
   65200   -279.81137    28.391985   -251.41939    2052.8033       107983    10.472245   0.15490111 
   65300    -284.0067    25.756947   -258.24975    1862.2842    95005.796    10.472245   0.12781548 
   65400   -278.75681    26.420451   -252.33636     1910.257    110902.73    10.472245     0.156181 
   65500   -279.44459    27.493602   -251.95099    1987.8482    110700.09    10.472245   0.17521517 
   65600   -279.59758    28.324329   -251.27325    2047.9116    109594.16    10.472245   0.13071031 
   65700   -278.55713    25.498734    -253.0584    1843.6149    113357.08    10.472245   0.17474414 
   65800   -281.85828    25.698333   -256.15995    1858.0463    99461.896    10.472245   0.18397973 
   65900    -275.3815    26.824196    -248.5573    1939.4487     120401.4    10.472245   0.19701507 
   66000   -282.95691    30.732616    -252.2243    2222.0361    104026.57    10.472245   0.13879778 
   66100   -279.33992    25.205494   -254.13443     1822.413    109262.38    10.472245   0.16024858 
   66200   -279.82653    28.130719   -251.69581    2033.9132    109750.07    10.472245   0.15024091 
   66300   -278.33218    28.842968   -249.48921    2085.4104    114427.18    10.472245   0.16285704 
   66400   -282.61958    27.939942   -254.67964    2020.1196    98686.028    10.472245   0.15300247 
   66500   -282.01636    28.013009   -254.00335    2025.4025    103078.71    10.472245   0.13266884 
   66600   -280.23475    31.609873   -248.62488    2285.4638    111182.15    10.472245   0.17350837 
   66700   -280.60843     26.36278   -254.24565    1906.0873    105277.41    10.472245   0.17797156 
   66800   -276.20953    27.136412   -249.07312    1962.0226    118645.99    10.472245   0.20184672 
   66900   -280.37431     30.57684   -249.79747    2210.7732    106274.85    10.472245    0.1892042 
   67000   -282.94598    28.120311   -254.82566    2033.1607    99002.449    10.472245   0.15141187 
   67100   -274.74356    27.108403   -247.63516    1959.9975    125803.85    10.472245   0.18463923 
   67200   -276.59626     26.74947   -249.84679    1934.0458    118627.72    10.472245   0.25077003 
   67300   -279.35336    26.361036   -252.99232    1905.9612    109957.75    10.472245    0.2089209 
   67400   -281.40193    25.371359   -256.03057    1834.4054    102248.92    10.472245   0.15456072 
   67500   -274.56158    25.434761   -249.12682    1838.9895    122272.68    10.472245   0.21142413 
   67600    -279.6034     28.29991   -251.30349    2046.1461    112909.95    10.472245   0.15066412 
   67700     -281.152    25.467664   -255.68433    1841.3685    104897.74    10.472245   0.17923209 
   67800   -279.32911     28.39492   -250.93419    2053.0155     110248.2    10.472245   0.15191229 
   67900   -278.21932    30.573213   -247.64611     2210.511    114233.89    10.472245   0.18436786 
   68000    -280.2436    26.194593     -254.049     1893.927    106709.69    10.472245   0.17901853 
   68100   -278.94247    26.769426   -252.17305    1935.4887     112540.8    10.472245   0.16099222 
   68200   -275.41185    27.771223   -247.64062    2007.9209    123527.28    10.472245   0.21328986 
   68300   -280.68323    29.079403   -251.60383    2102.5051    106108.78    10.472245   0.15688299 
   68400    -280.2763    26.743745   -253.53256    1933.6319    106370.99    10.472245   0.16952341 
   68500    -277.9993    30.817169   -247.18214    2228.1495    116444.93    10.472245   0.18158733 
   68600   -282.42436    28.510765   -253.91359    2061.3914    99049.042    10.472245    0.1579688 
   68700   -280.20273    26.434054   -253.76868    1911.2406    105388.99    10.472245   0.16630015 
   68800   -276.51967    28.095726   -248.42395    2031.3832    120694.24    10.472245   0.20144954 
   68900   -278.37924    23.544414   -254.83483    1702.3132    110994.16    10.472245   0.16512903 
   69000   -282.58414    28.724312   -253.85983    2076.8313    102180.89    10.472245   0.13251616 
   69100   -279.05529    31.015916   -248.03938    2242.5194    113235.69    10.472245   0.17124952 
   69200   -279.93095    27.781674   -252.14928    2008.6765    106258.78    10.472245   0.15345952 
   69300   -281.30237    29.240499   -252.06187    2114.1528    104972.41    10.472245   0.15013388 
   69400   -280.34743    26.141541   -254.20589    1890.0913    105126.51    10.472245   0.15742902 
   69500   -283.40083    29.258206   -254.14263     2115.433      99453.1    10.472245   0.14343383 
   69600   -276.16618    28.520685   -247.64549    2062.1086    119414.08    10.472245     0.187153 
   69700   -281.61908    28.565373   -253.05371    2065.3396    103844.48    10.472245   0.16921786 
   69800   -280.22187    28.759813   -251.46206    2079.3981    108675.08    10.472245   0.14364866 
   69900    -276.1768    25.214632   -250.96217    1823.0737    120776.26    10.472245   0.20969148 
   70000   -280.04091    24.049502   -255.99141    1738.8322    105832.48    10.472245   0.16860418 
   70100   -280.57507    28.886148   -251.68892    2088.5324     108079.5    10.472245   0.17601165 
   70200   -279.45165    31.242934   -248.20871    2258.9332    111418.22    10.472245   0.16435234 
   70300   -278.77387    25.164775    -253.6091    1819.4689    111641.92    10.472245   0.18226232 
   70400   -279.53421    26.961363   -252.57284    1949.3662    108563.16    10.472245   0.17065148 
   70500   -276.66108    30.842291   -245.81879    2229.9659    124427.24    10.472245   0.17845862 
   70600   -277.72621    27.201178   -250.52503    1966.7053    113666.37    10.472245   0.16888656 
   70700   -277.89961    23.978155   -253.92146    1733.6736    112832.13    10.472245   0.16865387 
   70800   -276.63408    30.162253   -246.47183    2180.7976     118952.4    10.472245   0.22977899 
   70900   -277.74991    28.764965   -248.98494    2079.7706    116876.11    10.472245   0.18020646 
   71000   -282.55286    30.362257    -252.1906    2195.2583    102136.52    10.472245    0.1341743 
   71100   -284.46102    26.870932   -257.59008    1942.8278    92702.582    10.472245   0.12609507 
   71200   -280.66574    24.882396   -255.78334    1799.0523    103991.24    10.472245   0.14034917 
   71300   -280.33831    29.307061   -251.03125    2118.9654    108446.87    10.472245   0.16636159 
   71400   -282.70011    28.479192   -254.22092    2059.1086    99809.251    10.472245   0.18743017 
   71500   -282.84525    26.493015   -256.35224    1915.5036    98383.466    10.472245   0.14853155 
   71600   -278.87016    30.260958    -248.6092    2187.9342    113377.81    10.472245   0.17716845 
   71700   -280.32518     26.44125   -253.88393    1911.7609    109098.36    10.472245   0.15955634 
   71800   -282.28052    26.433707   -255.84681    1911.2155    99544.303    10.472245   0.13123765 
   71900   -282.34553    29.884365   -252.46117    2160.7057    101608.55    10.472245   0.14712397 
   72000   -279.63998    30.524168   -249.11581    2206.9649    112582.72    10.472245   0.16083462 
   72100   -280.47254    26.368755   -254.10378    1906.5193    106696.45    10.472245   0.18747152 
   72200   -277.15394    23.565056   -253.58888    1703.8057     114566.8    10.472245   0.19981942 
   72300   -279.68405     30.71418   -248.96987    2220.7031    110905.99    10.472245    0.1534441 
   72400   -282.31892    29.425768   -252.89315    2127.5481    103059.35    10.472245   0.12341099 
   72500   -282.06197    24.904754   -257.15722    1800.6688    102192.89    10.472245   0.15024015 
   72600    -280.0182    27.585577   -252.43263    1994.4983    110056.35    10.472245   0.13902918 
   72700   -278.27933    28.490996   -249.78834    2059.9621    114097.37    10.472245   0.19646791 
   72800   -284.10361    26.970706    -257.1329    1950.0417    95311.867    10.472245   0.15870009 
   72900   -282.37398    30.019327   -252.35466    2170.4637    101181.67    10.472245   0.15515641 
   73000   -281.89123    30.780522   -251.11071    2225.4998     104594.3    10.472245   0.13687771 
   73100   -278.65952    25.898187   -252.76134    1872.4962    110403.17    10.472245   0.16128051 
   73200   -282.16779    24.383551   -257.78424    1762.9847    100763.07    10.472245   0.15037699 
   73300   -279.22667    28.431726   -250.79494    2055.6767    111081.91    10.472245   0.17725949 
   73400   -281.97548     29.37646   -252.59902     2123.983    103205.61    10.472245   0.14927721 
   73500   -284.94065    26.923045   -258.01761    1946.5957    91818.715    10.472245   0.13031033 
   73600   -280.74175    27.702098   -253.03965     2002.923    105827.46    10.472245   0.16577544 
   73700   -278.86402    27.875522    -250.9885    2015.4619    113038.26    10.472245    0.1526549 
   73800   -281.96927    25.016982   -256.95229    1808.7831    101145.94    10.472245    0.1413502 
   73900   -279.07304    27.363748   -251.70929    1978.4595    112171.69    10.472245   0.15704686 
   74000   -279.95033    29.173785   -250.77654    2109.3292    107408.77    10.472245   0.19282148 
   74100   -281.70079     26.04241   -255.65838    1882.9239    102423.48    10.472245   0.14489476 
   74200   -279.92361    21.559055   -258.36456    1558.7673     105396.9    10.472245   0.15485081 
   74300    -277.3294    27.028816   -250.30058    1954.2431    118282.58    10.472245    0.1613248 
   74400   -281.86781    28.106151   -253.76166    2032.1369    103474.44    10.472245   0.13715266 
   74500   -281.01718    24.719418   -256.29776    1787.2686    101796.59    10.472245   0.18492789 
   74600   -276.43671    26.319857   -250.11685    1902.9839    115843.22    10.472245   0.19201974 
   74700   -281.02033    26.659445   -254.36089    1927.5368    103013.37    10.472245     0.196886 
   74800    -281.1998    31.096779   -250.10302    2248.3659    107121.37    10.472245   0.15567899 
   74900   -279.10207    29.419171    -249.6829    2127.0712     113540.5    10.472245   0.13786794 
   75000   -278.82355    24.948795   -253.87475    1803.8531    108649.26    10.472245   0.16082042 
   75100   -280.89204    31.398733   -249.49331    2270.1978       107166    10.472245   0.15056825 
   75200    -277.9587    32.273149   -245.68555    2333.4201    118670.42    10.472245   0.18902552 
   75300   -280.72724    27.684123   -253.04312    2001.6234    105892.07    10.472245    0.1532237 
   75400   -281.91653    28.144759   -253.77177    2034.9284    102964.75    10.472245   0.14015141 
   75500   -274.03184    28.366762   -245.66508    2050.9796     126913.9    10.472245    0.2020759 
   75600   -279.27726    28.991809   -250.28545    2096.1719    111494.07    10.472245   0.18410376 
   75700   -279.45483    24.931801   -254.52303    1802.6244    108559.67    10.472245   0.19661202 
   75800    -280.2129    26.843459   -253.36944    1940.8415    107191.14    10.472245   0.18276855 
   75900   -277.89221    30.394464   -247.49774     2197.587     118238.5    10.472245   0.16108935 
   76000    -280.7286    26.327877   -254.40072    1903.5637    104431.53    10.472245   0.15212003 
   76100   -279.71374    26.701435   -253.01231    1930.5728    106369.34    10.472245   0.14663842 
   76200    -276.7538    30.527231   -246.22657    2207.1863    118214.93    10.472245   0.17170055 
   76300    -279.8674    28.240738   -251.62666    2041.8678    107649.03    10.472245   0.17631091 
   76400   -281.63394    28.405872   -253.22807    2053.8074    102940.94    10.472245    0.1602668 
   76500     -279.096    31.325599    -247.7704    2264.9101    114229.38    10.472245   0.19399952 
   76600   -281.42929    30.084298   -251.34499    2175.1613    105465.42    10.472245   0.17417388 
   76700    -280.5639    26.766645   -253.79726    1935.2876    107891.82    10.472245   0.14561721 
   76800   -278.83148     30.93598    -247.8955    2236.7398    113645.48    10.472245   0.16837609 
   76900   -277.85182    27.425648   -250.42617     1982.935     116651.7    10.472245   0.18214991 
   77000   -279.50287    24.908188   -254.59469    1800.9171    108591.08    10.472245   0.16039212 
   77100   -280.13899    32.598317   -247.54068    2356.9305    110880.95    10.472245   0.18718264 
   77200    -280.1612    29.909815   -250.25138    2162.5458    110668.03    10.472245   0.14684648 
[...]
   81400   -278.61988    25.370923   -253.24896    1834.3739    113467.92    10.472245   0.14626444 
   81500   -282.72433    26.574641   -256.14969    1921.4053     98400.11    10.472245   0.14709069 
   81600    -280.3013    28.013068   -252.28823    2025.4067    107443.84    10.472245   0.16755191 
   81700   -281.56893    31.329282   -250.23965    2265.1764    105723.59    10.472245   0.16134056 
   81800   -279.31572     27.65748   -251.65824     1999.697    109017.76    10.472245   0.16537857 
   81900   -282.31872    26.190749   -256.12797    1893.6491    101843.88    10.472245   0.15284301 
   82000   -276.50209    28.393225   -248.10887     2052.893    119626.97    10.472245   0.21272521 
   82100   -281.15561     28.66171    -252.4939     2072.305    104704.78    10.472245   0.13241387 
   82200   -282.10059    27.554926   -254.54567    1992.2821    102341.45    10.472245   0.14854369 
   82300   -279.34823    27.093839   -252.25439    1958.9445    111500.87    10.472245   0.16452298 
   82400   -277.29968    25.632393   -251.66728    1853.2787     115781.3    10.472245    0.1725054 
   82500   -282.32813    23.567818   -258.76031    1704.0054    98246.422    10.472245   0.13465637 
   82600   -279.11744    25.424693   -253.69275    1838.2615    107972.58    10.472245   0.15376306 
   82700   -278.51129    27.507443   -251.00385     1988.849    114466.51    10.472245   0.17968359 
   82800   -282.45589    25.121047   -257.33484    1816.3073    99659.333    10.472245   0.15527388 
   82900    -280.4166    26.625935   -253.79066     1925.114    105210.92    10.472245   0.21102825 
   83000   -275.36811    24.395943   -250.97216    1763.8806    119985.12    10.472245   0.22520296 
   83100   -279.73715    27.322408   -252.41474    1975.4705    107138.88    10.472245   0.17281242 
   83200   -282.47492    25.136782   -257.33813     1817.445    99330.955    10.472245    0.1358203 
   83300    -281.9866    33.116231   -248.87037    2394.3768    105157.43    10.472245   0.14460363 
   83400   -278.64561    24.918882   -253.72673    1801.6903    110695.78    10.472245   0.20374875 
   83500   -279.42129    29.398284   -250.02301    2125.5609    111158.92    10.472245   0.17667976 
   83600   -277.94489     30.67843   -247.26646    2218.1184    116899.84    10.472245   0.16636004 
   83700   -279.60454    26.708012   -252.89652    1931.0484    109020.24    10.472245   0.18589501 
   83800   -277.41194    26.957322   -250.45462     1949.074    116579.01    10.472245   0.20222902 
   83900   -275.32696    27.965621   -247.36134    2021.9762    123133.58    10.472245   0.23853371 
   84000   -279.23728     26.29724   -252.94004    1901.3486    109420.97    10.472245   0.16635836 
   84100   -279.56334     27.31147   -252.25187    1974.6797       111594    10.472245   0.17257163 
   84200   -277.22586     31.73171   -245.49415    2294.2728    118986.43    10.472245   0.19380308 
   84300   -279.66237     28.28631   -251.37606    2045.1628    112393.83    10.472245   0.17980593 
   84400   -281.04065    27.041646   -253.99901    1955.1708    102803.29    10.472245   0.18690354 
   84500   -278.16448    26.898537   -251.26594    1944.8237    113349.22    10.472245    0.1898679 
   84600   -278.10028    30.264157   -247.83612    2188.1655       116016    10.472245   0.16066471 
   84700   -282.51633    27.479966   -255.03637    1986.8623    98223.383    10.472245   0.12942413 
   84800    -279.0983    28.744846   -250.35346    2078.3159    111276.47    10.472245   0.17665397 
   84900    -277.0877    27.759246   -249.32845    2007.0549     116930.9    10.472245   0.15757813 
   85000   -279.58411    26.807773   -252.77633    1938.2613    108518.96    10.472245   0.21320067 
   85100   -278.09594    25.355189   -252.74075    1833.2362    114595.92    10.472245   0.16526359 
   85200   -279.28982    26.514456   -252.77537    1917.0538    110152.57    10.472245   0.18308008 
   85300   -275.86688    26.979261   -248.88762    1950.6603    123101.47    10.472245   0.21482867 
   85400   -278.45798    25.256105   -253.20187    1826.0722    114147.32    10.472245   0.24074526 
   85500   -280.87595     29.94924   -250.92671    2165.3963    107545.51    10.472245    0.1525209 
   85600   -276.47493    28.954386   -247.52055    2093.4661    119657.61    10.472245    0.2087751 
   85700   -281.70112     28.04503   -253.65609    2027.7177    104338.24    10.472245   0.15263204 
   85800   -279.60709    27.981091     -251.626    2023.0947    109770.05    10.472245   0.16912637 
   85900   -276.17955    29.370447    -246.8091    2123.5483    122245.77    10.472245   0.21236589 
   86000   -281.83303    26.550959   -255.28207    1919.6931    103513.41    10.472245   0.16033964 
   86100   -278.85222    27.081978   -251.77024    1958.0869    112066.14    10.472245   0.15606549 
   86200   -276.93722    28.765891   -248.17133    2079.8376     118636.4    10.472245   0.17702977 
   86300   -281.81524    26.130252   -255.68499     1889.275    104478.41    10.472245    0.1608563 
   86400   -278.53191    28.328121   -250.20379    2048.1858       112627    10.472245   0.15768471 
   86500   -280.03443    30.123739   -249.91069     2178.013    108116.99    10.472245   0.16522703 
   86600   -280.11503     26.91355   -253.20148    1945.9092    107134.74    10.472245   0.15874872 
   86700   -280.21523    27.288237   -252.92699    1972.9999    109476.36    10.472245   0.17695056 
   86800   -280.68839    28.727906   -251.96049    2077.0911    106221.62    10.472245   0.15734718 
   86900   -279.62385     30.29215    -249.3317    2190.1895    111119.22    10.472245   0.15453054 
   87000   -281.59995    25.673792   -255.92615    1856.2719    102212.34    10.472245   0.17126106 
   87100   -279.79206    31.427567    -248.3645    2272.2826    111281.85    10.472245   0.14448913 
   87200   -279.51756    28.855675   -250.66189    2086.3291    111755.18    10.472245   0.14749666 
   87300   -280.94213    26.328784   -254.61334    1903.6293    105540.43    10.472245    0.1389327 
   87400   -275.72626     24.93125   -250.79501    1802.5845     121758.2    10.472245   0.23363365 
   87500   -279.17956    27.909911   -251.26965    2017.9483    111993.38    10.472245   0.16495488 
   87600   -280.95742    25.025056   -255.93237    1809.3669     105662.8    10.472245   0.15036363 
   87700   -282.91361    29.159651   -253.75395    2108.3073    101556.81    10.472245   0.13993576 
   87800   -276.98029    28.209979   -248.77031    2039.6439    118656.04    10.472245   0.20619489 
   87900   -280.19745    24.082917   -256.11453    1741.2482    105670.23    10.472245   0.18541246 
   88000   -282.77062    28.855956   -253.91466    2086.3494    100059.05    10.472245   0.17655537 
   88100   -279.16039    27.847509   -251.31288    2013.4365     110469.8    10.472245   0.17072716 
   88200   -281.71821    25.538043   -256.18017     1846.457    102840.13    10.472245   0.15998801 
   88300   -282.40521      27.5386   -254.86661    1991.1017    101506.73    10.472245   0.14698896 
   88400   -282.15766    31.356676   -250.80099     2267.157    104568.78    10.472245   0.12935195 
   88500   -281.88162    26.283447   -255.59818    1900.3513    102688.54    10.472245   0.14869774 
   88600   -281.03739    27.044347   -253.99304    1955.3661    105848.37    10.472245   0.13300168 
   88700   -278.76717    30.720775    -248.0464      2221.18     114164.7    10.472245   0.15441819 
   88800   -281.52429    26.010652   -255.51364    1880.6276    101605.18    10.472245   0.13925194 
   88900   -281.11382    27.897623    -253.2162    2017.0599    104539.72    10.472245   0.12811816 
   89000   -281.42544    30.479134   -250.94631    2203.7088    105272.25    10.472245    0.1413701 
   89100   -281.74946    25.279772   -256.46968    1827.7834    101864.05    10.472245   0.17640182 
   89200   -280.68722    29.744771   -250.94245    2150.6128    110104.29    10.472245   0.15827012 
   89300   -278.63444     28.55094    -250.0835    2064.2961    111475.86    10.472245   0.14779889 
   89400    -282.5724    29.954658   -252.61775     2165.788    102180.19    10.472245   0.12511194 
   89500   -279.15525    25.401787   -253.75347    1836.6054    109402.59    10.472245   0.16713027 
   89600   -276.32064    27.388323   -248.93232    1980.2363     121762.7    10.472245   0.19709187 
   89700   -277.56431    24.394041   -253.17026    1763.7431    113563.48    10.472245   0.17205179 
   89800   -279.61185    24.735933   -254.87591    1788.4626    108409.43    10.472245   0.18077747 
   89900   -280.50687     29.27097    -251.2359    2116.3558    108969.51    10.472245   0.18669371 
   90000   -277.62421    26.447867   -251.17635    1912.2393    114406.86    10.472245   0.19107264 
   90100   -278.53625    23.205912   -255.33034    1677.8388    110005.95    10.472245   0.16269447 
   90200   -282.02671    27.054749   -254.97196    1956.1182    101491.44    10.472245   0.15759645 
   90300   -279.64405     31.14275    -248.5013    2251.6897     112067.7    10.472245   0.13575502 
   90400   -277.66193    23.840163   -253.82177    1723.6965    113695.38    10.472245   0.17253973 
   90500   -279.82863    27.072645   -252.75598    1957.4121     108927.8    10.472245   0.15191807 
   90600   -282.10525    30.091477   -252.01378    2175.6804    104477.62    10.472245   0.14500355 
   90700   -279.92133    27.179954   -252.74138    1965.1708    107749.35    10.472245    0.1523112 
   90800   -284.20664    27.459879   -256.74676      1985.41     95531.81    10.472245   0.16166792 
   90900   -275.91018     26.56323   -249.34695    1920.5803    121156.69    10.472245   0.18422724 
   91000    -282.2997    30.459541   -251.84016    2202.2922    102921.57    10.472245   0.16244477 
   91100   -284.40937    24.102456   -260.30691    1742.6609    91715.559    10.472245    0.1365019 
   91200   -280.98884    24.995901   -255.99294    1807.2589    102721.67    10.472245   0.16945696 
   91300   -280.07344    30.062285   -250.01116    2173.5697    109669.14    10.472245   0.15051183 
   91400   -279.98949    31.081679   -248.90781    2247.2742    109750.27    10.472245   0.14601141 
   91500   -280.19788    24.254054   -255.94383    1753.6217     106109.4    10.472245   0.16934498 
   91600   -279.77546    27.904212   -251.87125    2017.5362    110907.61    10.472245   0.16221434 
   91700   -278.97859    28.523545   -250.45504    2062.3154     114863.4    10.472245   0.13877437 
   91800   -281.65645    27.046586   -254.60986     1955.528    102782.08    10.472245   0.12828156 
   91900   -282.96135    23.999986   -258.96136    1735.2521    97037.971    10.472245   0.14679115 
   92000   -278.03958    26.025966   -252.01362    1881.7349    113124.92    10.472245   0.14091113 
   92100   -278.62137     28.62486   -249.99651    2069.6407    112981.54    10.472245   0.16709385 
   92200   -282.36696    24.769016   -257.59794    1790.8546    99428.922    10.472245   0.16247037 
   92300   -279.99165    26.461908   -253.52975    1913.2545     108885.2    10.472245   0.17114923 
   92400   -277.89469     25.77505   -252.11965    1863.5931    113641.11    10.472245   0.15604378 
   92500   -280.21862    27.673839   -252.54478    2000.8798    109209.68    10.472245   0.14712009 
   92600    -280.0624     24.77671   -255.28569     1791.411    107633.94    10.472245   0.16868287 
   92700   -279.79401    31.374796   -248.41922    2268.4671    109941.36    10.472245   0.15251924 
   92800   -279.58736     24.91063   -254.67673    1801.0936    107874.82    10.472245   0.16233886 
   92900       -284.1     28.94709   -255.15291    2092.9386    96859.043    10.472245   0.14829454 
   93000    -280.9356    31.166267   -249.76934      2253.39    108355.39    10.472245   0.15997064 
   93100   -278.86986    25.444866     -253.425    1839.7201    111760.23    10.472245   0.21093766 
   93200   -282.30018     22.88537   -259.41481    1654.6629     97616.15    10.472245   0.14506385 
   93300   -279.88487     27.66342   -252.22145    2000.1264    109648.02    10.472245   0.18146273 
   93400   -280.14823    29.354254   -250.79397    2122.3775    109040.83    10.472245   0.17354389 
   93500   -281.01079    23.519808   -257.49098    1700.5342     102447.8    10.472245   0.17070804 
   93600   -279.58253    28.180915   -251.40162    2037.5425    110877.77    10.472245   0.16213024 
   93700   -276.42005    24.667429   -251.75262    1783.5097     117469.9    10.472245   0.20555322 
   93800    -282.5673    26.078405    -256.4889    1885.5263    99036.526    10.472245   0.15063963 
   93900   -280.64148    24.943049   -255.69843    1803.4376    103801.56    10.472245   0.19424003 
   94000   -279.71128    30.196852   -249.51442    2183.2992    110863.75    10.472245   0.16119927 
   94100   -282.22916    26.824298   -255.40487    1939.4561    100865.64    10.472245   0.14270778 
   94200    -280.8116     28.04393   -252.76767    2027.6382     105645.1    10.472245   0.17432505 
   94300    -279.9355    29.791666   -250.14384    2154.0034    111309.39    10.472245   0.15623831 
   94400   -279.45923    24.268477   -255.19075    1754.6646    108782.75    10.472245   0.15324764 
   94500   -274.17702    27.574702   -246.60232     1993.712    126269.77    10.472245   0.21022431 
   94600   -280.41543    28.579563   -251.83586    2066.3656    108423.68    10.472245   0.16387041 
   94700   -281.34008    27.036458   -254.30362    1954.7957    105798.05    10.472245   0.15541873 
   94800   -277.17243    30.228762   -246.94367    2185.6063    117666.09    10.472245   0.14878471 
   94900   -279.83589     27.46787   -252.36802    1985.9877    108870.74    10.472245   0.19139546 
   95000   -280.21334    26.518594   -253.69475     1917.353    106771.97    10.472245   0.16306139 
   95100   -279.26716    31.412342   -247.85482    2271.1818    112365.62    10.472245   0.16997459 
   95200   -281.31497    32.430078    -248.8849    2344.7663    105741.55    10.472245   0.15755607 
   95300   -279.15305    25.715024   -253.43802    1859.2531    111126.32    10.472245   0.15842055 
   95400   -274.76972    25.345022    -249.4247    1832.5012    124324.37    10.472245   0.24509115 
   95500   -279.63629    30.496856   -249.13943    2204.9901    111359.39    10.472245   0.15532862 
   95600   -279.82229    25.735326   -254.08696     1860.721    108287.17    10.472245   0.15806841 
   95700   -279.90042    30.486836   -249.41358    2204.2657    109654.95    10.472245   0.14631089 
   95800   -281.76535    25.911524   -255.85383    1873.4605    102267.51    10.472245      0.17464 
   95900   -278.11754    25.643441    -252.4741    1854.0775    112624.62    10.472245   0.19654933 
   96000   -277.78837    28.701044   -249.08733     2075.149     115419.2    10.472245   0.20123038 
   96100   -283.33447    28.346713   -254.98776    2049.5301    96607.458    10.472245   0.14213314 
   96200   -279.21443    26.588298   -252.62613    1922.3928    107588.46    10.472245   0.16090477 
   96300   -277.19467    28.471084   -248.72358    2058.5223    116835.08    10.472245   0.16363062 
   96400   -280.85172    26.490184   -254.36153    1915.2989    104962.84    10.472245   0.15850431 
   96500   -280.27282    31.340212   -248.93261    2265.9667     109071.4    10.472245   0.17508641 
   96600   -276.67141    31.425592   -245.24582    2272.1398    119921.64    10.472245    0.2184728 
   96700   -280.16108    28.820777    -251.3403    2083.8059    108645.22    10.472245   0.14586396 
   96800   -280.95009     25.72125   -255.22884    1859.7032    103893.04    10.472245   0.16652165 
   96900   -275.44008    28.167985    -247.2721    2036.6076    121704.63    10.472245   0.23669907 
   97000   -277.07764      25.4321   -251.64554    1838.7971    114371.42    10.472245   0.16334645 
   97100   -281.54867    28.279406   -253.26927    2044.6636     103355.7    10.472245   0.15388249 
   97200   -276.27135    29.021051    -247.2503    2098.2862     119714.2    10.472245   0.18571747 
   97300   -279.11519    30.593203   -248.52199    2211.9562    113117.76    10.472245   0.19718447 
   97400   -280.50175    28.490728   -252.01102    2059.9426    109409.21    10.472245   0.14638937 
   97500   -281.37725    26.972369   -254.40489    1950.1619    103386.19    10.472245    0.1420458 
   97600   -280.71937    25.360711   -255.35866    1833.6355    106825.82    10.472245   0.15315022 
   97700   -277.56876     28.64422   -248.92454    2071.0405    117281.14    10.472245   0.20178029 
   97800   -280.77345    25.708721   -255.06472    1858.7974    102919.17    10.472245   0.15044652 
   97900    -283.3386    27.704224   -255.63438    2003.0767    97779.433    10.472245   0.12280074 
   98000   -279.56905    28.782074   -250.78697    2081.0076     111261.8    10.472245   0.17434773 
   98100   -279.27873    24.628006   -254.65072    1780.6593    108807.05    10.472245   0.15323519 
   98200   -281.98146    26.124687   -255.85677    1888.8727    98602.043    10.472245   0.14064656 
   98300   -277.94475    27.419952    -250.5248    1982.5232     117063.7    10.472245   0.18694131 
   98400   -280.27987    27.413881   -252.86599    1982.0842    107450.15    10.472245   0.14943439 
   98500   -282.09739    23.267764   -258.82962    1682.3108    99641.376    10.472245   0.15056597 
   98600   -281.98676    28.516351   -253.47041    2061.7953     103506.1    10.472245   0.14410211 
   98700   -275.48406    25.510214   -249.97385    1844.4449    120581.89    10.472245   0.18267069 
   98800   -275.10253    28.327142   -246.77539     2048.115    123380.04    10.472245   0.19972113 
   98900   -283.71136    29.464882   -254.24648    2130.3762    95622.518    10.472245   0.12482988 
   99000   -280.36273    28.339472   -252.02326    2049.0065    107854.54    10.472245   0.13208978 
   99100   -274.07819     27.20236   -246.87583    1966.7908    126459.33    10.472245   0.19898667 
   99200   -280.38346    28.014997   -252.36847    2025.5463    107516.65    10.472245   0.15424215 
   99300   -278.16761    26.080675   -252.08694    1885.6905    114079.24    10.472245    0.1809489 
   99400   -280.66567    29.626381   -251.03929    2142.0529    107402.57    10.472245   0.14609346 
   99500     -282.603    26.675124   -255.92788    1928.6705    99855.537    10.472245   0.13628844 
   99600    -278.6423    28.702453   -249.93985    2075.2508    113327.97    10.472245   0.18416851 
   99700   -276.81105    26.567055     -250.244    1920.8568    118672.97    10.472245   0.21704503 
   99800   -281.83605    24.368183   -257.46787    1761.8735    100976.22    10.472245   0.15925417 
   99900   -281.80011    24.017202   -257.78291    1736.4969    99972.138    10.472245    0.1651812 
  100000    -277.9854    28.335893   -249.64951    2048.7477    114231.68    10.472245   0.18380988 
Loop time of 31.7612 on 1 procs for 100000 steps with 108 atoms

Performance: 1360.150 ns/day, 0.018 hours/ns, 3148.496 timesteps/s
100.0% CPU use with 1 MPI tasks x no OpenMP threads

MPI task timing breakdown:
Section |  min time  |  avg time  |  max time  |%varavg| %total
---------------------------------------------------------------
Pair    | 18.871     | 18.871     | 18.871     |   0.0 | 59.41
Neigh   | 1.2458     | 1.2458     | 1.2458     |   0.0 |  3.92
Comm    | 0.50239    | 0.50239    | 0.50239    |   0.0 |  1.58
Output  | 0.018804   | 0.018804   | 0.018804   |   0.0 |  0.06
Modify  | 11.038     | 11.038     | 11.038     |   0.0 | 34.75
Other   |            | 0.08565    |            |       |  0.27

Nlocal:    108 ave 108 max 108 min
Histogram: 1 0 0 0 0 0 0 0 0 0
Nghost:    994 ave 994 max 994 min
Histogram: 1 0 0 0 0 0 0 0 0 0
Neighs:    5566 ave 5566 max 5566 min
Histogram: 1 0 0 0 0 0 0 0 0 0

Total # of neighbors = 5566
Ave neighs/atom = 51.537
Neighbor list builds = 5345
Dangerous builds = 2
    
Total wall time: 0:00:31
