LAMMPS (3 Mar 2020)
Reading data file ...
  orthogonal box = (0 0 0) to (17.469 17.469 17.469)
  1 by 1 by 1 MPI processor grid
  reading atoms ...
  217 atoms
  read_data CPU = 0.000970202 secs
Reading potential file library.meam with DATE: 2012-06-29
Reading potential file LiSi.meam with DATE: 2020-11-07
1 atoms in group Li
Neighbor list info ...
  update every 1 steps, delay 10 steps, check yes
  max neighbors/atom: 2000, page size: 100000
  master list distance cutoff = 6
  ghost atom cutoff = 6
  binsize = 3, bins = 6 6 6
  2 neighbor lists, perpetual/occasional/extra = 2 0 0
  (1) pair meam/c, perpetual
      attributes: full, newton on
      pair build: full/bin/atomonly
      stencil: full/bin/3d
      bin: standard
  (2) pair meam/c, perpetual, half/full from (1)
      attributes: half, newton on
      pair build: halffull/newton
      stencil: none
      bin: none
Setting up Verlet run ...
  Unit style    : metal
  Current step  : 0
  Time step     : 0.0027278
Per MPI rank memory allocation (min/avg/max) = 9.27 | 9.27 | 9.27 Mbytes
Step PotEng KinEng TotEng Temp Press Density c_msdli[4] 
       0   -951.06911    50.256344   -900.81276         1800    -114182.3    1.8918427            0 
     100    -918.2045    34.334577   -883.86992      1229.74   -81189.558    1.8918427   0.11390168 
     200   -908.84256    49.963411   -858.87915    1789.5082   -68061.946    1.8918427   0.09560858 
     300   -900.63137    55.793962   -844.83741    1998.3374    -62222.81    1.8918427   0.20733124 
     400   -903.08636    47.133858    -855.9525    1688.1638   -64840.173    1.8918427  0.046998395 
     500   -899.41529    42.348556   -857.06673    1516.7717   -63640.106    1.8918427   0.10511945 
     600    -901.3529    52.994102    -848.3588    1898.0566   -66049.082    1.8918427    0.1858164 
     700   -904.49525    50.338672   -854.15658    1802.9487   -67289.457    1.8918427  0.097794113 
     800   -906.25912     49.88891   -856.37021    1786.8398    -67938.31    1.8918427   0.15586125 
     900   -897.12967    49.102323   -848.02735    1758.6671   -59651.571    1.8918427   0.28262524 
    1000   -905.96775    51.943103   -854.02465    1860.4136   -66866.212    1.8918427    0.5347162 
    1100   -901.71759    47.882123   -853.83546     1714.964   -64002.403    1.8918427    0.1579675 
    1200   -904.52826    54.166719   -850.36154    1940.0554   -65092.048    1.8918427  0.072828482 
    1300   -902.34818    48.793321   -853.55486    1747.5998    -65081.57    1.8918427  0.073572995 
    1400   -904.54673    47.034018   -857.51271     1684.588   -68915.842    1.8918427   0.12867822 
    1500   -897.34974     49.35949   -847.99025    1767.8779   -62699.216    1.8918427   0.45784803 
    1600    -904.8642    50.429717   -854.43448    1806.2096    -68492.42    1.8918427  0.076524226 
    1700   -901.17725    47.271237   -853.90602    1693.0843   -64253.164    1.8918427  0.021457358 
    1800    -898.5486    51.521423   -847.02718    1845.3105   -61426.041    1.8918427   0.50406258 
    1900   -904.53264    49.237284   -855.29536     1763.501   -68124.827    1.8918427   0.18304876 
    2000   -905.53184    54.221676   -851.31016    1942.0238   -66471.239    1.8918427   0.18627642 
    2100   -895.54616    54.465315   -841.08085    1950.7501   -58447.317    1.8918427   0.14235114 
    2200   -901.24962    51.184436   -850.06518    1833.2409   -62619.157    1.8918427   0.30507176 
    2300   -902.37601    45.915038   -856.46097    1644.5101   -67910.884    1.8918427 0.0051433906 
    2400   -902.81285     55.99811   -846.81474    2005.6492   -64096.298    1.8918427   0.21441319 
    2500   -898.82053    47.869666   -850.95086    1714.5179   -62010.715    1.8918427   0.26368935 
    2600   -904.79078    50.854857   -853.93593    1821.4366   -66589.478    1.8918427  0.051378832 
    2700   -902.86965    54.103397   -848.76626    1937.7875   -65185.332    1.8918427    0.1017971 
    2800   -901.10391    54.359268   -846.74464    1946.9519    -62382.69    1.8918427  0.057180054 
    2900   -904.74911    51.187196   -853.56192    1833.3397   -68617.916    1.8918427   0.27222694 
    3000   -899.29123    47.043469   -852.24776    1684.9264   -64681.828    1.8918427   0.12662344 
    3100   -896.03617    50.389288   -845.64688    1804.7616   -62303.379    1.8918427  0.051113251 
    3200   -905.75396    50.133124   -855.62084    1795.5867   -68532.276    1.8918427   0.13537655 
    3300   -898.77158    47.827508   -850.94407    1713.0079   -64621.284    1.8918427   0.19813592 
    3400   -901.89512    54.070009   -847.82511    1936.5916   -62966.414    1.8918427    0.3262304 
    3500   -905.19083    47.659811   -857.53102    1707.0016   -68772.755    1.8918427    0.1690372 
    3600   -900.97134    51.833406   -849.13793    1856.4846    -66765.29    1.8918427   0.33292051 
    3700    -899.5569    50.303817   -849.25309    1801.7003   -65462.628    1.8918427    4.3685634 
    3800   -904.50851    46.320528   -858.18799    1659.0333     -70144.1    1.8918427    4.7000333 
    3900   -903.42139    52.055202   -851.36618    1864.4286   -67607.983    1.8918427    7.9647475 
    4000   -900.62363    51.671698   -848.95193    1850.6928   -68309.774    1.8918427    3.0164526 
    4100   -904.86998    48.600365   -856.26961    1740.6888   -70934.028    1.8918427    4.7437258 
    4200   -901.15686    49.099025   -852.05784     1758.549    -66391.84    1.8918427    10.233662 
    4300   -900.56949    51.337122   -849.23237    1838.7095   -64943.976    1.8918427    6.9684799 
    4400   -904.77822    49.388985   -855.38924    1768.9343   -67779.986    1.8918427    9.4808832 
    4500   -900.46763    45.218407   -855.24923    1619.5594   -62634.858    1.8918427    5.0935421 
    4600   -899.24203    51.370834   -847.87119     1839.917   -64742.946    1.8918427     6.316879 
    4700   -901.03409    46.306706   -854.72738    1658.5383   -67948.475    1.8918427    8.4996267 
    4800    -905.3042    55.410325   -849.89387    1984.5969   -68548.681    1.8918427     4.910442 
    4900   -897.46019    50.179156   -847.28104    1797.2354   -64033.628    1.8918427    8.4625595 
    5000   -902.35176    48.215081   -854.13668    1726.8894   -68535.169    1.8918427    4.4961265 
    5100   -893.63587     50.01707    -843.6188      1791.43   -60089.869    1.8918427    8.0032543 
    5200    -900.5364    53.076005    -847.4604      1900.99   -66491.517    1.8918427     8.569802 
    5300   -903.37739    50.497867   -852.87952    1808.6505   -66885.453    1.8918427    7.7869591 
    5400   -899.31401    55.354734   -843.95927    1982.6058   -65754.836    1.8918427    9.6893989 
    5499    -899.6974    52.204984   -847.49241    1869.7932   -64588.822    1.8918427    3.0117801 
Loop time of 3.09673 on 1 procs for 5499 steps with 217 atoms

Performance: 418.511 ns/day, 0.057 hours/ns, 1775.745 timesteps/s
100.0% CPU use with 1 MPI tasks x no OpenMP threads

MPI task timing breakdown:
Section |  min time  |  avg time  |  max time  |%varavg| %total
---------------------------------------------------------------
Pair    | 2.9115     | 2.9115     | 2.9115     |   0.0 | 94.02
Neigh   | 0.12665    | 0.12665    | 0.12665    |   0.0 |  4.09
Comm    | 0.026588   | 0.026588   | 0.026588   |   0.0 |  0.86
Output  | 0.0015426  | 0.0015426  | 0.0015426  |   0.0 |  0.05
Modify  | 0.02392    | 0.02392    | 0.02392    |   0.0 |  0.77
Other   |            | 0.006535   |            |       |  0.21

Nlocal:    217 ave 217 max 217 min
Histogram: 1 0 0 0 0 0 0 0 0 0
Nghost:    881 ave 881 max 881 min
Histogram: 1 0 0 0 0 0 0 0 0 0
Neighs:    3643 ave 3643 max 3643 min
Histogram: 1 0 0 0 0 0 0 0 0 0
FullNghs:  7286 ave 7286 max 7286 min
Histogram: 1 0 0 0 0 0 0 0 0 0

Total # of neighbors = 7286
Ave neighs/atom = 33.576
Neighbor list builds = 231
Dangerous builds = 5
Total wall time: 0:00:03
