LAMMPS (3 Mar 2020)
Reading data file ...
  orthogonal box = (0 0 0) to (17.469 17.469 17.469)
  1 by 1 by 1 MPI processor grid
  reading atoms ...
  217 atoms
  read_data CPU = 0.00100554 secs
Reading potential file library.meam with DATE: 2012-06-29
Reading potential file LiSi.meam with DATE: 2020-11-07
1 atoms in group Li
Neighbor list info ...
  update every 1 steps, delay 10 steps, check yes
  max neighbors/atom: 2000, page size: 100000
  master list distance cutoff = 6
  ghost atom cutoff = 6
  binsize = 3, bins = 6 6 6
  2 neighbor lists, perpetual/occasional/extra = 2 0 0
  (1) pair meam/c, perpetual
      attributes: full, newton on
      pair build: full/bin/atomonly
      stencil: full/bin/3d
      bin: standard
  (2) pair meam/c, perpetual, half/full from (1)
      attributes: half, newton on
      pair build: halffull/newton
      stencil: none
      bin: none
Setting up Verlet run ...
  Unit style    : metal
  Current step  : 0
  Time step     : 0.00149535
Per MPI rank memory allocation (min/avg/max) = 9.27 | 9.27 | 9.27 Mbytes
Step PotEng KinEng TotEng Temp Press Density c_msdli[4] 
       0   -951.06911    36.296249   -914.77286         1300   -116979.37    1.8918427            0 
     100   -925.67577    22.694453   -902.98132    812.83301   -91744.323    1.8918427  0.083709987 
     200   -921.54425    36.720343   -884.82391    1315.1895   -83059.419    1.8918427  0.061481768 
     300   -912.53702    37.355469   -875.18155    1337.9374    -76484.95    1.8918427   0.11925593 
     400   -919.02635    35.514718   -883.51163    1272.0084   -83556.298    1.8918427  0.026322036 
     500   -918.06884    34.968864   -883.09998    1252.4579   -81757.012    1.8918427  0.048635887 
     600   -911.48574    33.663966   -877.82177    1205.7212   -77035.795    1.8918427    0.1399043 
     700   -917.87926    35.526439   -882.35282    1272.4282   -80340.212    1.8918427  0.013005819 
     800   -917.29951    34.183817   -883.11569    1224.3404   -81107.282    1.8918427   0.15097591 
     900   -914.01589    36.776312   -877.23958    1317.1941   -76731.409    1.8918427  0.059336365 
    1000   -918.06775    36.006111   -882.06164    1289.6083   -82041.637    1.8918427  0.022570532 
    1100   -917.33189    36.343445   -880.98845    1301.6904   -80161.816    1.8918427  0.043174879 
    1200   -916.47662    37.024756   -879.45186    1326.0925   -80191.447    1.8918427   0.04815938 
    1300   -922.08093    37.472916   -884.60801     1342.144   -84291.607    1.8918427   0.11599745 
    1400   -916.06431     36.16815   -879.89616     1295.412    -81862.75    1.8918427  0.045735071 
    1500   -917.47034    37.926657   -879.54368    1358.3953   -78551.264    1.8918427  0.011268091 
    1600   -917.68767     33.38939   -884.29828    1195.8869   -82063.058    1.8918427  0.081333348 
    1700   -921.76593     33.75109   -888.01484    1208.8416   -86594.687    1.8918427  0.074941558 
    1800   -918.94997    38.933265    -880.0167    1394.4483   -83075.704    1.8918427  0.045982373 
    1900   -918.34327    38.249572    -880.0937     1369.961    -82136.12    1.8918427   0.22229257 
    2000   -917.41542    32.295168   -885.12025    1156.6958   -82994.692    1.8918427   0.14270406 
    2100   -916.34603    37.828237   -878.51779    1354.8703   -79169.507    1.8918427  0.032226575 
    2200   -914.49646    34.394761   -880.10169    1231.8956   -78118.968    1.8918427   0.13149381 
    2300   -919.93006    35.900645   -884.02941    1285.8309   -84124.031    1.8918427   0.14906381 
    2400   -914.27933    38.882159   -875.39717    1392.6179   -77405.839    1.8918427  0.037957987 
    2500   -917.98297    35.745433   -882.23754    1280.2718   -80901.614    1.8918427  0.064534787 
    2600   -918.69469    37.227207   -881.46748    1333.3436   -82526.978    1.8918427  0.085130724 
    2700   -913.75106    39.273745   -874.47731    1406.6431   -75909.033    1.8918427  0.021536214 
    2800   -916.18956    36.522989   -879.66657     1308.121   -81726.649    1.8918427  0.068451369 
    2900   -918.43598    35.979764   -882.45622    1288.6647   -81967.818    1.8918427 0.0073654312 
    3000   -914.05463    38.990467   -875.06417    1396.4971   -76559.763    1.8918427   0.10970634 
    3100   -916.65749     36.03285   -880.62464     1290.566   -82396.629    1.8918427   0.33749778 
    3200   -918.47105    37.513114   -880.95793    1343.5837   -83143.061    1.8918427   0.11372859 
    3300    -913.8527    37.405905   -876.44679    1339.7439   -79926.982    1.8918427   0.11590776 
    3344   -914.34569    40.339452   -874.00624    1444.8129   -76712.853    1.8918427  0.041162524 
Loop time of 1.79446 on 1 procs for 3344 steps with 217 atoms

Performance: 240.763 ns/day, 0.100 hours/ns, 1863.516 timesteps/s
100.0% CPU use with 1 MPI tasks x no OpenMP threads

MPI task timing breakdown:
Section |  min time  |  avg time  |  max time  |%varavg| %total
---------------------------------------------------------------
Pair    | 1.7607     | 1.7607     | 1.7607     |   0.0 | 98.12
Neigh   | 0          | 0          | 0          |   0.0 |  0.00
Comm    | 0.014079   | 0.014079   | 0.014079   |   0.0 |  0.78
Output  | 0.0010523  | 0.0010523  | 0.0010523  |   0.0 |  0.06
Modify  | 0.014124   | 0.014124   | 0.014124   |   0.0 |  0.79
Other   |            | 0.004503   |            |       |  0.25

Nlocal:    217 ave 217 max 217 min
Histogram: 1 0 0 0 0 0 0 0 0 0
Nghost:    957 ave 957 max 957 min
Histogram: 1 0 0 0 0 0 0 0 0 0
Neighs:    3702 ave 3702 max 3702 min
Histogram: 1 0 0 0 0 0 0 0 0 0
FullNghs:  7404 ave 7404 max 7404 min
Histogram: 1 0 0 0 0 0 0 0 0 0

Total # of neighbors = 7404
Ave neighs/atom = 34.1198
Neighbor list builds = 0
Dangerous builds = 0
Total wall time: 0:00:01
