LAMMPS (3 Mar 2020)
Reading data file ...
  orthogonal box = (0 0 0) to (28.63 28.63 28.63)
  1 by 1 by 1 MPI processor grid
  reading atoms ...
  1372 atoms
  read_data CPU = 0.00180263 secs
Reading potential file /usr/share/lammps-stable/potentials/Ag_u3.eam with DATE: 2007-06-11
Neighbor list info ...
  update every 1 steps, delay 10 steps, check yes
  max neighbors/atom: 2000, page size: 100000
  master list distance cutoff = 7.55
  ghost atom cutoff = 7.55
  binsize = 3.775, bins = 8 8 8
  2 neighbor lists, perpetual/occasional/extra = 1 1 0
  (1) pair eam, perpetual
      attributes: half, newton on
      pair build: half/bin/atomonly/newton
      stencil: half/bin/3d/newton
      bin: standard
  (2) compute rdf, occasional, copy from (1)
      attributes: half, newton on
      pair build: copy
      stencil: none
      bin: none
Setting up Verlet run ...
  Unit style    : metal
  Current step  : 0
  Time step     : 0.001
Per MPI rank memory allocation (min/avg/max) = 3.83 | 3.83 | 3.83 Mbytes
Step PotEng KinEng TotEng Temp Press Density c_msdall[4] 
       0      -3910.2    567.09011   -3343.1099         3200    25811.078    10.472245            0 
     100   -3555.6916    310.33876   -3245.3529    1751.1927    106713.72    10.472245   0.19772001 
     200   -3468.0096    427.03007   -3040.9796    2409.6633    134016.32    10.472245   0.30223767 
     300   -3350.9128    534.92396   -2815.9889    3018.4915    165540.59    10.472245   0.42112025 
     400   -3277.6461    606.15082   -2671.4953    3420.4134    188171.07    10.472245   0.54611165 
     500   -3259.9798    573.94834   -2686.0314    3238.6999     190684.6    10.472245   0.66307576 
     600   -3255.7143    562.06231    -2693.652    3171.6289    189296.97    10.472245    0.7438167 
     700    -3242.574    571.48797   -2671.0861    3224.8164     193773.5    10.472245   0.83245939 
     800    -3231.359    570.65106   -2660.7079    3220.0939    196215.82    10.472245   0.94451118 
     900   -3230.0007    565.01579   -2664.9849    3188.2949    196188.06    10.472245    1.1357531 
    1000   -3209.4661    569.68503    -2639.781    3214.6427    201203.73    10.472245    1.3996786 
    1100   -3159.3885    578.74124   -2580.6473    3265.7455    212647.59    10.472245    1.6706708 
    1200   -3162.7946    564.40206   -2598.3925    3184.8318    211950.63    10.472245     1.929506 
    1300   -3178.4823    556.55616   -2621.9261    3140.5586    207484.42    10.472245    2.2236688 
    1400   -3183.8548    585.20855   -2598.6462    3302.2395    208017.56    10.472245    2.6022232 
    1500   -3185.7665    566.88573   -2618.8807    3198.8467     206921.4    10.472245     2.999801 
    1600    -3183.453     570.5942   -2612.8588     3219.773    207188.96    10.472245    3.3879397 
    1700   -3146.5205     572.5161   -2574.0044     3230.618    215472.54    10.472245    3.7201319 
    1800    -3154.753    587.33399    -2567.419     3314.233     215390.2    10.472245     4.152379 
    1900   -3178.3536    563.16483   -2615.1888    3177.8503    208871.67    10.472245    4.5504301 
    2000   -3179.0111    584.11758   -2594.8936    3296.0833    210557.63    10.472245    4.9503693 
    2100   -3168.3476    545.55985   -2622.7878    3078.5081    210167.94    10.472245    5.3965253 
    2200   -3154.4274    578.24292   -2576.1845    3262.9336    215565.62    10.472245    5.8444315 
    2300     -3155.85    557.00137   -2598.8486    3143.0708    214026.55    10.472245     6.235409 
    2400   -3183.9582     568.3841   -2615.5741    3207.3018       207743    10.472245    6.8051681 
    2500   -3152.3985    570.30906   -2582.0894    3218.1641    213961.05    10.472245    7.3892774 
    2600   -3152.5309    575.12134   -2577.4096     3245.319    216206.36    10.472245    7.8912052 
    2700   -3166.4553    551.05038   -2615.4049    3109.4903    211730.45    10.472245    8.3628229 
    2800   -3168.6882    588.45005   -2580.2381    3320.5308    212012.41    10.472245    8.9378288 
    2900   -3156.1468    560.82515   -2595.3217    3164.6478    214948.43    10.472245    9.4002562 
    3000   -3172.0438    568.99202   -2603.0518    3210.7322    210910.35    10.472245    9.8842609 
    3100   -3159.5475    562.48364   -2597.0638    3174.0064    214400.13    10.472245    10.371839 
    3200   -3141.0179    568.18704   -2572.8309    3206.1898    216623.17    10.472245    10.814399 
    3300   -3175.3891    560.59053   -2614.7986    3163.3239    210154.26    10.472245    11.287451 
    3400   -3164.3317    557.90216   -2606.4295    3148.1539    212239.39    10.472245    11.707287 
    3500   -3143.7021    567.86103    -2575.841    3204.3502    216855.18    10.472245    12.205001 
    3600   -3159.4715    577.51592   -2581.9555    3258.8312     213529.4    10.472245    12.492456 
    3700   -3177.3846     551.6579   -2625.7267    3112.9185    209074.24    10.472245    12.808635 
    3800   -3147.3727    561.30337   -2586.0693    3167.3463    214381.12    10.472245    13.236573 
    3900   -3157.2488    559.59175   -2597.6571    3157.6879    213630.74    10.472245    13.520522 
    4000   -3163.9979    574.88932   -2589.1086    3244.0097    213352.99    10.472245     13.90264 
    4100   -3168.0178     545.3579   -2622.6599    3077.3686    209854.18    10.472245    14.257568 
    4200   -3164.0659    582.37984    -2581.686    3286.2776    213068.29    10.472245    14.609187 
    4300   -3167.1888    566.50973    -2600.679     3196.725    210565.85    10.472245    15.057955 
    4400   -3174.0679    575.53642   -2598.5315    3247.6612    210196.27    10.472245    15.402365 
    4500   -3166.7338    565.00692   -2601.7268    3188.2449    211369.74    10.472245    15.780173 
    4600   -3162.9227    579.85097   -2583.0717    3272.0075    214700.85    10.472245    16.162243 
    4700   -3170.4473    565.66655   -2604.7808    3191.9671    210316.26    10.472245    16.511806 
    4800   -3179.4403     559.6232   -2619.8171    3157.8654    208164.34    10.472245    16.952512 
    4900   -3173.2842    590.95335   -2582.3309    3334.6565    211818.28    10.472245     17.30007 
    5000   -3173.5685     559.3189   -2614.2496    3156.1483    210404.15    10.472245    17.764798 
    5100   -3153.4052    561.44657   -2591.9586    3168.1544    214958.18    10.472245     18.16384 
    5200   -3175.7923    578.33727   -2597.4551     3263.466    210080.24    10.472245    18.539483 
    5300   -3156.8262    556.39122    -2600.435    3139.6278    212905.47    10.472245    18.983197 
    5400   -3157.2922    570.80813   -2586.4841    3220.9802     213211.3    10.472245    19.541981 
    5500   -3173.7445    538.32956    -2635.415    3037.7087    210598.81    10.472245    19.858496 
    5600   -3177.0139     571.8909    -2605.123    3227.0901    210196.58    10.472245    20.343395 
    5700   -3173.6344    601.41941    -2572.215    3393.7149    212134.22    10.472245    20.789551 
    5800   -3170.0355    561.89637   -2608.1391    3170.6926    210856.73    10.472245    21.410627 
    5900   -3161.5985    576.73131   -2584.8672    3254.4038    212073.49    10.472245    21.927517 
    6000   -3154.9455    557.98598   -2596.9595    3148.6268    212884.49    10.472245    22.310119 
    6100   -3174.5394    574.89652   -2599.6429    3244.0504     210410.2    10.472245    22.602249 
    6200   -3161.6738    586.56034   -2575.1135    3309.8674    213874.44    10.472245    22.849411 
    6300   -3164.1278    560.78367   -2603.3441    3164.4137    212743.71    10.472245    23.304438 
    6400     -3190.26    564.09099    -2626.169    3183.0765    206409.17    10.472245    23.827561 
    6500   -3160.1003    574.48828    -2585.612    3241.7467    213681.44    10.472245    24.373868 
    6600   -3148.5087    570.02075   -2578.4879    3216.5371    216446.27    10.472245    24.741079 
    6700   -3158.1333    546.14032    -2611.993    3081.7837    213331.21    10.472245    25.158303 
    6800   -3178.0407    593.04756   -2584.9932    3346.4738    210315.58    10.472245    25.578852 
    6900   -3162.6512    560.74017    -2601.911    3164.1683    212874.13    10.472245    25.987867 
    7000   -3164.4608    571.35721   -2593.1036    3224.0786    211944.21    10.472245    26.281106 
    7100   -3167.0032    562.82344   -2604.1798    3175.9239    210885.73    10.472245    26.648747 
    7200    -3155.123    585.89577   -2569.2272    3306.1174    214727.64    10.472245    27.040141 
    7300   -3155.4985    554.63096   -2600.8675     3129.695    214762.24    10.472245    27.564965 
    7400   -3160.7075    568.28285   -2592.4247    3206.7304    212279.36    10.472245    28.018249 
    7500   -3186.9739    547.64055   -2639.3334    3090.2492    206659.13    10.472245    28.368414 
    7600   -3175.0857    557.67229   -2617.4134    3146.8567    208567.79    10.472245    28.870112 
    7700   -3143.5046    553.96116   -2589.5434    3125.9154    216261.75    10.472245    29.167255 
    7800   -3144.4073    559.09208   -2585.3152    3154.8684    216424.64    10.472245    29.753438 
    7900   -3148.7757     561.8276   -2586.9481    3170.3045    216232.97    10.472245    30.176943 
    8000   -3162.7489    589.21644   -2573.5325    3324.8554    213156.27    10.472245      30.3803 
    8100   -3174.5651    570.39949   -2604.1656    3218.6743    211089.33    10.472245    30.726312 
    8200   -3189.7283    581.01564   -2608.7127    3278.5796    208363.63    10.472245    31.147159 
    8300   -3175.0624     562.1387   -2612.9237      3172.06    210366.87    10.472245    31.477301 
    8400   -3165.7134     585.6114    -2580.102    3304.5128    212397.91    10.472245      31.8339 
    8500   -3181.4236    561.83563   -2619.5879    3170.3498     207053.4    10.472245    32.235261 
    8600   -3178.0254    568.22747   -2609.7979     3206.418    209785.84    10.472245    32.411417 
    8700   -3162.7847    569.16176   -2593.6229      3211.69    213404.77    10.472245    32.768863 
    8800   -3171.8562    554.39086   -2617.4654    3128.3401    210603.47    10.472245    33.200446 
    8900   -3177.2771    571.99651   -2605.2806    3227.6861    209410.46    10.472245    33.571164 
    9000   -3160.7616    556.87146   -2603.8901    3142.3378     213015.4    10.472245    33.977061 
    9100   -3147.4119    579.36362   -2568.0483    3269.2575    216239.07    10.472245    34.429924 
    9200   -3147.6701    572.80556   -2574.8646    3232.2514     214930.8    10.472245    34.651729 
    9300   -3174.3961     565.3472    -2609.049     3190.165    209487.71    10.472245    35.120414 
    9400   -3175.8815    556.43505   -2619.4464    3139.8752    209420.84    10.472245    35.836941 
    9500    -3179.675    578.35865   -2601.3163    3263.5866     208703.2    10.472245    36.129806 
    9600   -3168.0157    559.63171    -2608.384    3157.9134    210413.81    10.472245    36.321127 
    9700    -3149.943    589.61631   -2560.3267    3327.1118    217733.88    10.472245    36.552791 
    9800   -3148.1965    576.02133   -2572.1751    3250.3975    216616.69    10.472245    36.776709 
    9900   -3171.7007    571.59018   -2600.1105    3225.3932    210440.18    10.472245    37.280063 
   10000   -3160.2603    563.17507   -2597.0852    3177.9081    213829.03    10.472245    37.760641 
Loop time of 37.5097 on 1 procs for 10000 steps with 1372 atoms

Performance: 23.034 ns/day, 1.042 hours/ns, 266.598 timesteps/s
100.0% CPU use with 1 MPI tasks x no OpenMP threads

MPI task timing breakdown:
Section |  min time  |  avg time  |  max time  |%varavg| %total
---------------------------------------------------------------
Pair    | 23.304     | 23.304     | 23.304     |   0.0 | 62.13
Neigh   | 0.56241    | 0.56241    | 0.56241    |   0.0 |  1.50
Comm    | 0.19544    | 0.19544    | 0.19544    |   0.0 |  0.52
Output  | 0.0050288  | 0.0050288  | 0.0050288  |   0.0 |  0.01
Modify  | 13.369     | 13.369     | 13.369     |   0.0 | 35.64
Other   |            | 0.0737     |            |       |  0.20

Nlocal:    1372 ave 1372 max 1372 min
Histogram: 1 0 0 0 0 0 0 0 0 0
Nghost:    3482 ave 3482 max 3482 min
Histogram: 1 0 0 0 0 0 0 0 0 0
Neighs:    71992 ave 71992 max 71992 min
Histogram: 1 0 0 0 0 0 0 0 0 0

Total # of neighbors = 71992
Ave neighs/atom = 52.4723
Neighbor list builds = 190
Dangerous builds = 0
Total wall time: 0:00:37
