LAMMPS (3 Mar 2020)
Reading data file ...
  orthogonal box = (0 0 0) to (16.36 16.36 16.36)
  1 by 1 by 1 MPI processor grid
  reading atoms ...
  256 atoms
  read_data CPU = 0.000985194 secs
Reading potential file /usr/share/lammps-stable/potentials/Ag_u3.eam with DATE: 2007-06-11
Neighbor list info ...
  update every 1 steps, delay 10 steps, check yes
  max neighbors/atom: 2000, page size: 100000
  master list distance cutoff = 7.55
  ghost atom cutoff = 7.55
  binsize = 3.775, bins = 5 5 5
  2 neighbor lists, perpetual/occasional/extra = 1 1 0
  (1) pair eam, perpetual
      attributes: half, newton on
      pair build: half/bin/atomonly/newton
      stencil: half/bin/3d/newton
      bin: standard
  (2) compute rdf, occasional, copy from (1)
      attributes: half, newton on
      pair build: copy
      stencil: none
      bin: none
Setting up Verlet run ...
  Unit style    : metal
  Current step  : 0
  Time step     : 0.001
Per MPI rank memory allocation (min/avg/max) = 3.744 | 3.744 | 3.744 Mbytes
Step PotEng KinEng TotEng Temp Press Density c_msdall[4] 
       0       -729.6    46.145872   -683.45413         1400    11256.408    10.472245            0 
     100   -701.86734    28.631951   -673.23538    868.65259      46827.5    10.472245  0.081378738 
     200   -690.89268    41.240012   -649.65266    1251.1632    66127.855    10.472245   0.10833507 
     300   -678.30163    48.588437   -629.71319     1474.104    83378.528    10.472245   0.14417215 
     400   -675.58024    46.811172   -628.76907    1420.1843    87349.212    10.472245   0.13999268 
     500   -687.64348    44.966952   -642.67653    1364.2333    70693.084    10.472245   0.10176421 
     600   -688.54337    43.981426   -644.56194    1334.3338     69550.47    10.472245  0.092913307 
     700   -684.58999    50.844508   -633.74549    1542.5499    76686.704    10.472245   0.10422651 
     800     -681.667    43.817712   -637.84929     1329.367    78599.244    10.472245   0.12714178 
     900   -685.75625    48.938951    -636.8173     1484.738    74121.084    10.472245    0.1290224 
    1000   -682.20502    47.506596   -634.69842    1441.2824    79797.543    10.472245   0.13175565 
    1100   -683.21969    48.951962   -634.26773    1485.1328    78418.835    10.472245   0.10907162 
    1200   -683.69959    43.617254   -640.08233    1323.2853    76327.813    10.472245   0.10967498 
    1300    -681.4251     44.09258   -637.33252    1337.7061     79870.58    10.472245   0.12112376 
    1400   -679.49754    46.993215   -632.50433    1425.7072    83203.684    10.472245   0.12973845 
    1500   -686.66788    47.511408   -639.15647    1441.4284    73504.496    10.472245   0.11044432 
    1600   -685.33948    45.364592   -639.97488    1376.2971    75195.025    10.472245   0.10391396 
    1700   -680.26917    49.280241   -630.98893    1495.0923    82322.973    10.472245   0.11942856 
    1800   -682.72726    47.426264     -635.301    1438.8453    78469.413    10.472245   0.11931525 
    1900   -685.12998    46.413586    -638.7164    1408.1221    75054.682    10.472245   0.10140635 
    2000   -687.18176    43.458356    -643.7234    1318.4646    72061.613    10.472245  0.094316618 
    2100   -684.59576    47.823712   -636.77205    1450.9033     75800.01    10.472245   0.10725288 
    2200   -680.97696    46.958207   -634.01876    1424.6451    79934.465    10.472245   0.12951395 
    2300   -677.08936    46.612349   -630.47701    1414.1523     85722.21    10.472245   0.13753901 
    2400   -686.10755    46.833802   -639.27375    1420.8708    72942.417    10.472245   0.12279767 
    2500   -684.92147    49.214945   -635.70652    1493.1113    76592.236    10.472245   0.11251087 
    2600   -679.52362    39.746262   -639.77736    1205.8449    81215.964    10.472245   0.12816692 
    2700   -682.40118    45.250604   -637.15058    1372.8388    78647.239    10.472245   0.11462734 
    2800   -683.72363    43.241262   -640.48237    1311.8783    76118.606    10.472245   0.11338469 
    2900   -683.11335    48.105042    -635.0083    1459.4384    78390.186    10.472245   0.10738198 
    3000   -681.14494    43.967332   -637.17761    1333.9062    80514.364    10.472245   0.11378283 
    3100   -685.30258    45.514286    -639.7883    1380.8386    74943.607    10.472245   0.10634432 
    3200    -682.4453    49.575014   -632.87029    1504.0353    79599.852    10.472245  0.097636735 
    3300   -685.27046     45.15091   -640.11955    1369.8143     75412.22    10.472245   0.10009193 
    3400   -682.33716    45.080516   -637.25664    1367.6786     78392.32    10.472245   0.11195524 
    3500    -683.4967    47.030415   -636.46629    1426.8358    77997.364    10.472245   0.10417246 
    3600   -685.94239    47.148198    -638.7942    1430.4092    75060.438    10.472245  0.097703262 
    3700   -686.23597    47.557879   -638.67809    1442.8383    74053.967    10.472245   0.10262574 
    3800    -683.6847    46.149824   -637.53488    1400.1199    77468.591    10.472245   0.10768133 
    3900   -681.07156    44.518721   -636.55284    1350.6346    80431.302    10.472245   0.10576259 
    4000   -683.19298    42.976138   -640.21684    1303.8348    76965.469    10.472245   0.10369061 
    4100   -686.02872    48.694952   -637.33377    1477.3355    74457.469    10.472245  0.097645343 
    4200   -682.42146    43.683958    -638.7375    1325.3091    78440.028    10.472245   0.10174552 
    4300   -681.62861    46.459738   -635.16888    1409.5222    80551.289    10.472245   0.10360704 
    4400   -683.69585    43.210445   -640.48541    1310.9433    76596.962    10.472245   0.11541614 
    4500   -682.30471     48.79504   -633.50967     1480.372    79976.073    10.472245   0.11479466 
    4600   -682.37677    49.429577   -632.94719    1499.6229    79857.883    10.472245   0.10972636 
    4700    -685.8362    44.564221   -641.27198     1352.015    74132.338    10.472245   0.10013912 
    4800   -684.03481    44.941111    -639.0937    1363.4493    76750.719    10.472245    0.1017357 
    4900   -684.02252    50.320109   -633.70241    1526.6404    77406.429    10.472245   0.10804345 
    5000   -682.09461    45.776512    -636.3181    1388.7942    79008.935    10.472245   0.12153309 
    5100   -684.60859    47.483065   -637.12553    1440.5685    75115.766    10.472245   0.10729294 
    5200   -686.95657    44.704758   -642.25181    1356.2787    72591.221    10.472245  0.096057256 
    5300   -683.79263    48.243113   -635.54951    1463.6273    77931.183    10.472245   0.10491142 
    5400   -682.20414    46.823757   -635.38038    1420.5661    79478.534    10.472245   0.11941144 
    5500   -683.60135    46.110984   -637.49037    1398.9415     77077.73    10.472245   0.11195183 
    5600   -686.50919    46.328385   -640.18081    1405.5372    73461.775    10.472245   0.10041489 
    5700   -684.41797    46.104346   -638.31363    1398.7402    76209.126    10.472245  0.099284479 
    5800   -683.54142    44.801096   -638.74033    1359.2014    77127.215    10.472245   0.11104707 
    5900   -682.74381    50.090313   -632.65349    1519.6687    78985.069    10.472245   0.12092258 
    6000   -683.36285    46.698353   -636.66449    1416.7615    77079.207    10.472245   0.11687826 
    6100   -686.31612    42.721065   -643.59505    1296.0962    73371.754    10.472245   0.10278283 
    6200   -684.35182    47.486049   -636.86577    1440.6591    76883.363    10.472245   0.10335254 
    6300   -682.17693    43.786395   -638.39053    1328.4168    78129.713    10.472245   0.12418673 
    6400   -681.48385    50.625652   -630.85819    1535.9101    81287.361    10.472245   0.11540087 
    6500    -682.8927    42.660902    -640.2318     1294.271    77455.241    10.472245   0.12035163 
    6600     -680.657    46.410727   -634.24627    1408.0353    81584.168    10.472245   0.11549484 
    6700   -681.63835    41.825973   -639.81238    1268.9404    78557.148    10.472245   0.11228221 
    6800   -685.58025    45.488009   -640.09224    1380.0414    74978.495    10.472245   0.10191946 
    6900   -681.36093    45.247984   -636.11295    1372.7594    80274.345    10.472245   0.11190569 
    7000   -682.36958    48.944214   -633.42537    1484.8977    78676.939    10.472245    0.1127467 
    7100   -682.92585    45.722189   -637.20366    1387.1461    79202.537    10.472245   0.10974935 
    7200   -684.28587    42.172822   -642.11305    1279.4633    75332.757    10.472245   0.10543929 
    7300   -687.14716     48.02334   -639.12382    1456.9597    72861.842    10.472245   0.10145686 
    7400   -680.04453     47.18543    -632.8591    1431.5387    82454.904    10.472245   0.11127648 
    7500   -685.41285    46.520504   -638.89234    1411.3658    75312.832    10.472245   0.10085783 
    7600   -686.28139    46.935927   -639.34546    1423.9691    74612.079    10.472245  0.091801041 
    7700    -685.4099    47.571074   -637.83882    1443.2386    75567.989    10.472245   0.10481316 
    7800   -682.51813    50.732438   -631.78569    1539.1499     79784.51    10.472245   0.11318351 
    7900   -682.72576    43.489356   -639.23641    1319.4051    77685.848    10.472245   0.11786019 
    8000   -686.70872    49.808745   -636.89997    1511.1263    73317.975    10.472245   0.10485935 
    8100   -688.79361    46.188407    -642.6052    1401.2905    69877.116    10.472245   0.10215993 
    8200   -685.85478    44.833659   -641.02112    1360.1893    72455.356    10.472245   0.10308677 
    8300   -686.19284    47.758905   -638.43394    1448.9371     73823.13    10.472245   0.10491448 
    8400   -681.79496    43.597451   -638.19751    1322.6846    78140.412    10.472245   0.12272386 
    8500   -681.70378    47.878384    -633.8254     1452.562    79709.899    10.472245   0.11171788 
    8600    -686.1199    45.654619   -640.46528    1385.0961    73463.286    10.472245    0.1110096 
    8700   -683.82666    48.964011   -634.86265    1485.4983    78184.558    10.472245   0.11689063 
    8800   -680.16001     48.22584   -631.93417    1463.1033    82107.187    10.472245   0.11925956 
    8900   -683.92383    47.314497   -636.60933    1435.4544    77388.637    10.472245   0.10346751 
    9000   -686.13377    44.678245   -641.45553    1355.4743    73793.579    10.472245  0.098613731 
    9100   -685.86545     50.68615    -635.1793    1537.7456    74687.985    10.472245  0.097995222 
    9200   -684.69105    47.031629   -637.65942    1426.8726    75641.857    10.472245   0.11450484 
    9300   -682.86303    53.283754   -629.57928    1616.5532    80095.612    10.472245   0.11942813 
    9400   -678.83241    45.784184   -633.04823    1389.0269    83751.385    10.472245    0.1379378 
    9500   -684.09498    47.765469   -636.32951    1449.1363    77457.329    10.472245   0.12101896 
    9600   -685.91755    43.616794   -642.30076    1323.2714    73392.544    10.472245    0.1080992 
    9700   -677.83273    44.863885   -632.96885    1361.1063    83709.823    10.472245   0.12225209 
    9800   -681.93267    45.479365   -636.45331    1379.7791    79227.403    10.472245    0.1307158 
    9900   -681.90028    46.028291   -635.87199    1396.4328    79653.776    10.472245   0.11844399 
   10000   -684.02828     44.80049   -639.22779     1359.183    75967.002    10.472245   0.10803062 
Loop time of 6.57511 on 1 procs for 10000 steps with 256 atoms

Performance: 131.405 ns/day, 0.183 hours/ns, 1520.887 timesteps/s
99.9% CPU use with 1 MPI tasks x no OpenMP threads

MPI task timing breakdown:
Section |  min time  |  avg time  |  max time  |%varavg| %total
---------------------------------------------------------------
Pair    | 4.1534     | 4.1534     | 4.1534     |   0.0 | 63.17
Neigh   | 0.037775   | 0.037775   | 0.037775   |   0.0 |  0.57
Comm    | 0.06446    | 0.06446    | 0.06446    |   0.0 |  0.98
Output  | 0.0027045  | 0.0027045  | 0.0027045  |   0.0 |  0.04
Modify  | 2.3003     | 2.3003     | 2.3003     |   0.0 | 34.98
Other   |            | 0.01653    |            |       |  0.25

Nlocal:    256 ave 256 max 256 min
Histogram: 1 0 0 0 0 0 0 0 0 0
Nghost:    1431 ave 1431 max 1431 min
Histogram: 1 0 0 0 0 0 0 0 0 0
Neighs:    13069 ave 13069 max 13069 min
Histogram: 1 0 0 0 0 0 0 0 0 0

Total # of neighbors = 13069
Ave neighs/atom = 51.0508
Neighbor list builds = 67
Dangerous builds = 0
Total wall time: 0:00:06
