LAMMPS (3 Mar 2020)

    # ---------- Initialize simulation ---------------------
    units metal
    atom_style atomic
    dimension  3
    boundary   p p p
    read_data /home/modeler/RemLabs/Lab4/Problem2A_size_7/temp_1150/lammps.data
  orthogonal box = (0 0 0) to (28.63 28.63 28.63)
  1 by 1 by 1 MPI processor grid
  reading atoms ...
  1372 atoms
  read_data CPU = 0.0018129 secs

    pair_style eam
    pair_coeff * * /usr/share/lammps-stable/potentials/Ag_u3.eam
Reading potential file /usr/share/lammps-stable/potentials/Ag_u3.eam with DATE: 2007-06-11

    velocity  all create 1150 87287 dist gaussian

    # ---------- Describe computed properties------------------
    compute msdall all msd
    thermo_style custom step pe ke etotal temp press density c_msdall[4]
    thermo 100

    # ---------- Specify ensemble  ---------------------
    #fix  1 all nve
    fix  1 all nvt temp 1150 1150 0.05

    # --------- Compute RDF ---------------
    compute rdfall all rdf 100 1 1
    fix 2 all ave/time 1 2500 2500 c_rdfall[*] file /home/modeler/RemLabs/Lab4/Problem2A_size_7/temp_1150/lammps.rdf mode vector

    # --------- Run -------------
    timestep 0.001
    run 10000
Neighbor list info ...
  update every 1 steps, delay 10 steps, check yes
  max neighbors/atom: 2000, page size: 100000
  master list distance cutoff = 7.55
  ghost atom cutoff = 7.55
  binsize = 3.775, bins = 8 8 8
  2 neighbor lists, perpetual/occasional/extra = 1 1 0
  (1) pair eam, perpetual
      attributes: half, newton on
      pair build: half/bin/atomonly/newton
      stencil: half/bin/3d/newton
      bin: standard
  (2) compute rdf, occasional, copy from (1)
      attributes: half, newton on
      pair build: copy
      stencil: none
      bin: none
Per MPI rank memory allocation (min/avg/max) = 3.83 | 3.83 | 3.83 Mbytes
Step PotEng KinEng TotEng Temp Press Density c_msdall[4] 
       0      -3910.2    203.79801    -3706.402         1150     9275.819    10.472245            0 
     100   -3787.6904    113.53945   -3674.1509     640.6852     37993.77    10.472245  0.066088009 
     200   -3770.5752    172.25583   -3598.3193    972.01247     45386.22    10.472245   0.07620837 
     300   -3723.2952    204.60844   -3518.6868    1154.5731    59497.861    10.472245   0.10043923 
     400   -3694.1091    219.05887   -3475.0502    1236.1146    67849.649    10.472245    0.1167284 
     500   -3703.9629    207.35814   -3496.6047    1170.0893    64801.374    10.472245   0.11549699 
     600   -3718.7448    200.51524   -3518.2295    1131.4759    60709.773    10.472245   0.10313383 
     700   -3715.8442    211.34925    -3504.495    1192.6105    62024.794    10.472245  0.096087134 
     800   -3707.8031    212.65292   -3495.1502    1199.9669    64103.875    10.472245  0.095265583 
     900   -3711.5449    199.42074   -3512.1241    1125.2998    62569.271    10.472245  0.098434077 
    1000   -3705.2118    204.85651   -3500.3553     1155.973    64099.661    10.472245  0.098373588 
    1100   -3702.7393    205.63127   -3497.1081    1160.3448    65182.494    10.472245  0.098727662 
    1200   -3709.5502    195.67574   -3513.8745    1104.1673    63025.964    10.472245   0.10157262 
    1300   -3702.5232    198.83441   -3503.6888    1121.9912     64808.81    10.472245    0.1072231 
    1400   -3703.1141    210.68646   -3492.4277    1188.8704    65082.975    10.472245   0.10492399 
    1500   -3712.1713    199.25096   -3512.9203    1124.3417     62433.81    10.472245   0.10270897 
    1600   -3709.7694    206.74559   -3503.0238    1166.6327    63551.865    10.472245   0.10201503 
    1700    -3698.979    203.82831   -3495.1506     1150.171    66083.109    10.472245   0.10465938 
    1800   -3702.9245    200.28947    -3502.635    1130.2019     65122.09    10.472245  0.096871363 
    1900   -3713.7314    198.86029   -3514.8711    1122.1373    62361.519    10.472245  0.088556885 
    2000   -3708.8214    201.85548    -3506.966    1139.0386    63794.848    10.472245   0.09248986 
    2100    -3703.326    204.65636   -3498.6696    1154.8435    64829.851    10.472245  0.099676433 
    2200   -3708.3046    202.34427   -3505.9604    1141.7968    63764.825    10.472245   0.10482561 
    2300    -3703.727      202.333    -3501.394    1141.7332    64743.863    10.472245   0.10755795 
    2400   -3699.7369    200.90901   -3498.8279    1133.6978    65869.525    10.472245   0.11002608 
    2500   -3703.7049    199.29856   -3504.4064    1124.6103     64510.44    10.472245   0.10225863 
    2600   -3710.9081    197.70586   -3513.2023     1115.623    62922.547    10.472245  0.093142736 
    2700   -3707.7464    199.22368   -3508.5227    1124.1878    63752.155    10.472245  0.095534825 
    2800   -3699.6622    207.48508   -3492.1771    1170.8056    66213.803    10.472245  0.098519402 
    2900   -3706.5597    197.81087   -3508.7489    1116.2155    63732.376    10.472245  0.096252925 
    3000   -3711.3884    202.74247   -3508.6459    1144.0438     62985.72    10.472245  0.097430978 
    3100   -3701.7085    202.13136   -3499.5771    1140.5954    65295.029    10.472245   0.10289547 
    3200   -3702.2048    205.60159   -3496.6032    1160.1773    65758.748    10.472245   0.10206874 
    3300   -3708.1997     200.5422   -3507.6575     1131.628    63161.051    10.472245  0.097661326 
    3400   -3709.6671    203.68238   -3505.9848    1149.3475    63566.356    10.472245  0.095650684 
    3500   -3702.0679    208.07278   -3493.9951    1174.1219    65365.342    10.472245  0.098156744 
    3600   -3706.2255     202.2668   -3503.9587    1141.3596    64365.549    10.472245   0.10054793 
    3700   -3708.4321    198.38745   -3510.0447    1119.4691    63677.612    10.472245   0.10216162 
    3800    -3703.883    203.31327   -3500.5697    1147.2647     64710.82    10.472245   0.10318601 
    3900   -3708.0206     201.6024   -3506.4182    1137.6106    63629.748    10.472245   0.10036656 
    4000   -3713.1155    213.40787   -3499.7077     1204.227    62969.259    10.472245  0.096833461 
    4100   -3705.9121    201.62255   -3504.2896    1137.7242    63978.942    10.472245   0.10058854 
    4200    -3709.648     206.8666   -3502.7814    1167.3156    63582.961    10.472245  0.098332182 
    4300   -3703.5728    202.59109   -3500.9817    1143.1896    64823.108    10.472245   0.10107297 
    4400    -3705.139    211.97875   -3493.1602    1196.1626    64712.146    10.472245  0.097984602 
    4500   -3715.5594    206.62491   -3508.9345    1165.9518    61952.295    10.472245   0.09568097 
    4600    -3708.906    203.09322   -3505.8128     1146.023    63339.933    10.472245   0.10100168 
    4700   -3705.0198    207.60316   -3497.4166    1171.4719    64669.889    10.472245   0.10340716 
    4800   -3709.9736     204.4259   -3505.5477    1153.5431    63253.554    10.472245  0.099283758 
    4900    -3713.527    199.48652   -3514.0405     1125.671    61822.928    10.472245  0.095746684 
    5000   -3711.5009    204.81166   -3506.6892    1155.7199     63142.12    10.472245   0.09511815 
    5100   -3704.0919    210.04041   -3494.0515    1185.2249     64829.88    10.472245  0.097261055 
    5200   -3707.0156     202.5403   -3504.4753    1142.9029    63945.093    10.472245  0.094638456 
    5300   -3715.2013    208.66761   -3506.5337    1177.4784    62007.582    10.472245    0.0902069 
    5400   -3710.8328    206.25006   -3504.5828    1163.8366    63243.413    10.472245  0.093437562 
    5500   -3704.4135    204.66783   -3499.7456    1154.9083    64563.873    10.472245  0.098495665 
    5600   -3707.0825    201.20985   -3505.8727    1135.3954    63864.795    10.472245  0.099905816 
    5700   -3710.1044    213.98218   -3496.1222    1207.4677     63520.71    10.472245  0.098524066 
    5800   -3698.3349    209.24914   -3489.0858    1180.7599    66484.893    10.472245   0.10034238 
    5900   -3710.0431     202.6357   -3507.4074    1143.4413    63115.164    10.472245  0.092670606 
    6000   -3713.3797    201.63861   -3511.7411    1137.8149    62459.911    10.472245  0.090638802 
    6100   -3699.7581    202.51612    -3497.242    1142.7665    66034.444    10.472245  0.095453934 
    6200   -3704.3702    199.85139   -3504.5188    1127.7298    64490.309    10.472245  0.099759718 
    6300   -3704.8788    199.82807   -3505.0508    1127.5983    64643.956    10.472245   0.10157215 
    6400   -3704.1258      211.031   -3493.0948    1190.8146    65090.154    10.472245    0.1014626 
    6500    -3710.188    203.65632   -3506.5317    1149.2005     63466.09    10.472245  0.098902479 
    6600   -3705.3664    198.37587   -3506.9905    1119.4038     64201.93    10.472245  0.096655642 
    6700   -3707.1067    205.79397   -3501.3127    1161.2629    64112.829    10.472245  0.095130497 
    6800   -3706.3362     202.5838   -3503.7524    1143.1484    64330.864    10.472245  0.096670804 
    6900   -3707.3157    202.45102   -3504.8647    1142.3992    64016.048    10.472245  0.097594026 
    7000   -3705.8397    213.10969     -3492.73    1202.5444    64775.809    10.472245  0.098897959 
    7100   -3707.0573    205.65176   -3501.4056    1160.4605    63818.199    10.472245   0.10038703 
    7200   -3713.4107    198.63404   -3514.7766    1120.8606     62043.18    10.472245   0.09403032 
    7300   -3713.9823     206.1963    -3507.786    1163.5332    62592.171    10.472245  0.090232613 
    7400   -3708.5273    204.63201   -3503.8953    1154.7061    63787.377    10.472245  0.094212224 
    7500   -3705.5518    215.78349   -3489.7683    1217.6322    65159.129    10.472245   0.09498994 
    7600   -3710.4289    204.00925   -3506.4197     1151.192    63136.802    10.472245  0.095251112 
    7700   -3706.9095    201.71442   -3505.1951    1138.2426    64000.097    10.472245  0.091830592 
    7800   -3708.2415    205.60219   -3502.6393    1160.1807     63559.94    10.472245  0.090957151 
    7900   -3707.3444    203.43764   -3503.9068    1147.9665    63972.971    10.472245  0.096128996 
    8000   -3705.2962    213.80765   -3491.4886    1206.4828    64848.814    10.472245  0.095801071 
    8100   -3705.0193      204.276   -3500.7434    1152.6972    64728.073    10.472245   0.09697298 
    8200   -3708.4408    195.49024   -3512.9506    1103.1206    63456.506    10.472245  0.096328256 
    8300   -3706.2967     205.7855   -3500.5112    1161.2151    64309.269    10.472245  0.095494065 
    8400   -3707.1221    206.75215     -3500.37    1166.6698    64126.116    10.472245  0.097754877 
    8500   -3712.2107    206.65369    -3505.557    1166.1142    63034.401    10.472245  0.094329671 
    8600   -3712.8664    198.29624   -3514.5702    1118.9544     62030.02    10.472245  0.094074687 
    8700   -3709.4864    209.42001   -3500.0664    1181.7241    63631.861    10.472245  0.096251593 
    8800   -3708.4893    205.54601   -3502.9433    1159.8637    63693.994    10.472245   0.10233701 
    8900   -3699.4308    208.43683    -3490.994    1176.1761    66360.641    10.472245   0.10228544 
    9000   -3707.9742    202.44452   -3505.5297    1142.3625    63820.181    10.472245  0.099421414 
    9100   -3711.8073    206.15407   -3505.6532    1163.2949    63034.018    10.472245  0.094199406 
    9200   -3708.1215    202.47316   -3505.6483    1142.5241    63467.429    10.472245  0.095639383 
    9300   -3704.9724    206.92099   -3498.0514    1167.6225    64991.528    10.472245  0.093603419 
    9400   -3712.4038    200.70686    -3511.697    1132.5571    62620.375    10.472245  0.096614616 
    9500   -3705.0565    204.28369   -3500.7729    1152.7406    64634.888    10.472245     0.101781 
    9600   -3702.7108    200.70085     -3502.01    1132.5232      65028.2    10.472245   0.10387115 
    9700   -3704.9928    204.06641   -3500.9264    1151.5146    64873.191    10.472245    0.1011435 
    9800   -3700.0308    201.77485   -3498.2559    1138.5836     65515.84    10.472245   0.10019458 
    9900   -3709.9415    198.24647    -3511.695    1118.6736    63212.391    10.472245  0.095640152 
   10000   -3709.1051    205.59439   -3503.5107    1160.1367    63368.098    10.472245  0.093381727 
Loop time of 37.7053 on 1 procs for 10000 steps with 1372 atoms

Performance: 22.915 ns/day, 1.047 hours/ns, 265.215 timesteps/s
100.0% CPU use with 1 MPI tasks x no OpenMP threads

MPI task timing breakdown:
Section |  min time  |  avg time  |  max time  |%varavg| %total
---------------------------------------------------------------
Pair    | 23.64      | 23.64      | 23.64      |   0.0 | 62.70
Neigh   | 0.28578    | 0.28578    | 0.28578    |   0.0 |  0.76
Comm    | 0.18578    | 0.18578    | 0.18578    |   0.0 |  0.49
Output  | 0.0051041  | 0.0051041  | 0.0051041  |   0.0 |  0.01
Modify  | 13.509     | 13.509     | 13.509     |   0.0 | 35.83
Other   |            | 0.0805     |            |       |  0.21

Nlocal:    1372 ave 1372 max 1372 min
Histogram: 1 0 0 0 0 0 0 0 0 0
Nghost:    3259 ave 3259 max 3259 min
Histogram: 1 0 0 0 0 0 0 0 0 0
Neighs:    69554 ave 69554 max 69554 min
Histogram: 1 0 0 0 0 0 0 0 0 0

Total # of neighbors = 69554
Ave neighs/atom = 50.6953
Neighbor list builds = 93
Dangerous builds = 0
    
Total wall time: 0:00:37
