LAMMPS (3 Mar 2020)
Reading data file ...
  orthogonal box = (0 0 0) to (12.27 12.27 12.27)
  1 by 1 by 1 MPI processor grid
  reading atoms ...
  108 atoms
  read_data CPU = 0.000890565 secs
Reading potential file /usr/share/lammps-stable/potentials/Ag_u3.eam with DATE: 2007-06-11
Neighbor list info ...
  update every 1 steps, delay 10 steps, check yes
  max neighbors/atom: 2000, page size: 100000
  master list distance cutoff = 7.55
  ghost atom cutoff = 7.55
  binsize = 3.775, bins = 4 4 4
  2 neighbor lists, perpetual/occasional/extra = 1 1 0
  (1) pair eam, perpetual
      attributes: half, newton on
      pair build: half/bin/atomonly/newton
      stencil: half/bin/3d/newton
      bin: standard
  (2) compute rdf, occasional, copy from (1)
      attributes: half, newton on
      pair build: copy
      stencil: none
      bin: none
Setting up Verlet run ...
  Unit style    : metal
  Current step  : 0
  Time step     : 0.001
Per MPI rank memory allocation (min/avg/max) = 3.723 | 3.723 | 3.723 Mbytes
Step PotEng KinEng TotEng Temp Press Density c_msdall[4] 
       0       -307.8     20.19302   -287.60698         1460    11675.743    10.472245            0 
     100   -294.68136    12.226261    -282.4551    883.98571    51364.073    10.472245    0.0800903 
     200   -290.73821    20.384597   -270.35361    1473.8514    69369.781    10.472245  0.095164846 
     300    -285.6262    23.863808   -261.76239    1725.4061    88773.237    10.472245   0.11521846 
     400    -286.7969    18.470032   -268.32687    1335.4241    81298.243    10.472245   0.12479079 
     500   -289.73689    22.481736   -267.25515    1625.4792    75781.333    10.472245  0.091115554 
     600   -289.67767    19.459817   -270.21785    1406.9878    71513.246    10.472245  0.099742789 
     700    -287.3402    19.982204   -267.35799    1444.7575    81204.514    10.472245   0.11903609 
     800   -287.32299    20.778303   -266.54468    1502.3173    81117.388    10.472245   0.11546067 
     900   -288.31627    20.372076   -267.94419    1472.9462    76115.912    10.472245   0.11018384 
    1000   -288.30961    20.785305    -267.5243    1502.8236    77425.893    10.472245   0.10208928 
    1100   -289.17319    20.876305   -268.29688     1509.403    75974.969    10.472245   0.11231033 
    1200   -285.19655    19.464213   -265.73234    1407.3057     87737.76    10.472245   0.14649298 
    1300   -284.26608    21.315482    -262.9506    1541.1565    91325.289    10.472245     0.148814 
    1400   -288.63166    19.477963   -269.15369    1408.2998    76894.763    10.472245   0.10501971 
    1500   -289.24882    20.005429   -269.24339    1446.4367    73654.803    10.472245   0.10088907 
    1600   -286.41382     21.66326   -264.75056    1566.3016    83893.169    10.472245   0.11911595 
    1700   -285.68667    19.621128   -266.06554     1418.651     85095.28    10.472245   0.12468916 
    1800   -287.92844    20.167639    -267.7608    1458.1649     78662.16    10.472245   0.10985238 
    1900   -288.06513    20.231239   -267.83389    1462.7634    78967.546    10.472245   0.11277117 
    2000   -283.08483    19.709817   -263.37501    1425.0633    94347.172    10.472245   0.14130644 
    2100   -284.68465    19.227999   -265.45665    1390.2269    89706.084    10.472245   0.13755084 
    2200   -289.37853    18.926042   -270.45249    1368.3947    73661.823    10.472245   0.10713165 
    2300   -288.96719    21.444382    -267.5228    1550.4762    76412.443    10.472245   0.11502557 
    2400    -286.6844    20.962832   -265.72157    1515.6591    82613.482    10.472245   0.13204384 
    2500    -287.1287    19.911719   -267.21698    1439.6613     82207.26    10.472245   0.12208023 
    2600   -288.94554    17.340056   -271.60549    1253.7244    73380.264    10.472245    0.1083257 
    2700   -287.78011    21.165972   -266.61413    1530.3466    81556.027    10.472245   0.10185915 
    2800   -287.52805    19.769276   -267.75877    1429.3624    80140.021    10.472245   0.12122287 
    2900    -287.1223    22.830225   -264.29208    1650.6758    82823.767    10.472245   0.11191623 
    3000   -288.74843    19.617229    -269.1312    1418.3691    76484.332    10.472245    0.1090752 
    3100   -287.66322    19.277777   -268.38545    1393.8259    81358.738    10.472245    0.1116996 
    3200   -286.70674    23.134232   -263.57251    1672.6562     85050.83    10.472245   0.10401591 
    3300   -287.60683    19.509716   -268.09711    1410.5956    81272.802    10.472245   0.10508649 
    3400   -286.18421    20.104882   -266.07933    1453.6274    85044.588    10.472245   0.10926432 
    3500   -285.93152    17.233223   -268.69829    1246.0001    83333.743    10.472245   0.10970378 
    3600   -288.07528    20.010103   -268.06518    1446.7747    78357.257    10.472245   0.10418634 
    3700   -286.38524    20.540989   -265.84425     1485.159    84598.565    10.472245   0.11824901 
    3800    -287.6663    22.642079   -265.02422    1637.0724     80615.37    10.472245   0.10483568 
    3900   -289.46624    19.963313   -269.50293    1443.3917    74915.278    10.472245  0.081652114 
    4000   -289.81078    16.294468   -273.51631    1178.1261    69456.711    10.472245   0.09351906 
    4100   -288.75274    19.992384   -268.76035    1445.4935    76001.968    10.472245   0.10001279 
    4200   -287.09274    22.377194   -264.71555    1617.9206    84182.516    10.472245  0.094887763 
    4300   -287.67876    18.695129   -268.98363    1351.6992    78901.395    10.472245  0.099623512 
    4400   -288.93868    22.095854   -266.84283    1597.5791    76355.652    10.472245   0.10326005 
    4500   -286.70205    17.642298   -269.05975    1275.5772    81190.903    10.472245   0.12245134 
    4600   -287.31792     19.93784   -267.38008    1441.5499    81194.163    10.472245    0.1044148 
    4700    -286.5523    21.353296     -265.199    1543.8905     84990.18    10.472245   0.11187854 
    4800   -289.02283    20.132969   -268.88986    1455.6582    75387.668    10.472245   0.11243932 
    4900    -286.3946    19.819318   -266.57528    1432.9806    84187.601    10.472245     0.114982 
    5000   -285.73372    21.285671   -264.44805    1539.0011    86400.395    10.472245   0.11093278 
    5100   -288.87508    19.235151   -269.63993     1390.744    75675.378    10.472245  0.098068284 
    5200   -288.86334    21.042717   -267.82062     1521.435    77391.156    10.472245   0.10736268 
    5300   -286.18926    22.959693   -263.22957    1660.0366     86912.84    10.472245   0.11919525 
    5400   -287.15232    19.210826   -267.94149    1388.9852    81546.221    10.472245   0.11812622 
    5500   -287.05717    19.990239   -267.06693    1445.3385    83726.096    10.472245   0.10654093 
    5600   -286.24536    19.387924   -266.85744    1401.7898    85872.591    10.472245   0.11672482 
    5700   -287.18519    20.611113   -266.57407    1490.2291    80884.381    10.472245   0.10671168 
    5800   -290.26871    20.208417   -270.06029    1461.1133    70802.635    10.472245  0.088405535 
    5900   -290.93649    18.433473   -272.50302    1332.7808    68555.266    10.472245  0.090992631 
    6000   -286.30613    20.028064   -266.27806    1448.0733    84957.458    10.472245   0.11772951 
    6100    -287.0471    21.314617   -265.73248     1541.094    83178.466    10.472245   0.12013573 
    6200   -288.79191    17.816532   -270.97537    1288.1746    73901.113    10.472245   0.11233979 
    6300   -288.97181     23.17267   -265.79914    1675.4353    76878.897    10.472245  0.095753165 
    6400   -287.06583    18.394638   -268.67119     1329.973    80317.646    10.472245   0.12409805 
    6500   -286.10497    20.686908   -265.41806    1495.7092    85356.913    10.472245     0.123908 
    6600    -289.0014    17.725642   -271.27576    1281.6031    73799.854    10.472245   0.11575582 
    6700   -287.54718    18.063393   -269.48379    1306.0233    78793.443    10.472245   0.11228545 
    6800   -287.64555    21.082111   -266.56344    1524.2832    80074.019    10.472245   0.10140763 
    6900   -289.86891    20.534012   -269.33489    1484.6545    73227.069    10.472245  0.097732421 
    7000   -287.74756    20.647149   -267.10041    1492.8346    80083.162    10.472245   0.10081477 
    7100   -286.13313    20.123002   -266.01013    1454.9376    85499.524    10.472245   0.10993019 
    7200   -290.95417    19.217284   -271.73688    1389.4521    68729.737    10.472245  0.081811789 
    7300   -290.17735    18.943764   -271.23358     1369.676     71624.18    10.472245  0.085781935 
    7400   -288.44052    21.542035   -266.89848    1557.5368    78390.181    10.472245  0.091412554 
    7500   -287.32245    18.489361   -268.83309    1336.8217    81601.737    10.472245   0.10448719 
    7600   -287.28843    22.830479   -264.45795    1650.6942     82040.26    10.472245   0.11238917 
    7700   -285.96774    20.055461   -265.91228    1450.0542    85710.464    10.472245   0.13512302 
    7800   -287.34974    18.459844    -268.8899    1334.6875    78362.284    10.472245   0.12321466 
    7900   -286.61175     22.44828   -264.16347    1623.0603    83858.313    10.472245    0.1112177 
    8000   -287.60868    19.033857   -268.57482    1376.1899    79605.863    10.472245   0.11575548 
    8100   -288.27835    19.120624   -269.15772    1382.4634    76746.894    10.472245   0.11101449 
    8200   -285.60851    21.864933   -263.74358     1580.883    85898.136    10.472245    0.1209863 
    8300   -288.60438    23.035571   -265.56881    1665.5227    77834.037    10.472245  0.099130021 
    8400   -290.72441    20.995087   -269.72933    1517.9912    69458.128    10.472245  0.079105912 
    8500   -288.79453    19.295196   -269.49934    1395.0853    75418.617    10.472245   0.10581924 
    8600   -284.90926    21.053892   -263.85536     1522.243    88932.183    10.472245   0.13141626 
    8700   -290.08642    22.294103   -267.79231     1611.913    73173.255    10.472245   0.10224398 
    8800   -289.95891    21.595771   -268.36314     1561.422    72933.778    10.472245   0.10680809 
    8900   -286.68139    22.455914   -264.22548    1623.6122    83302.502    10.472245   0.11981593 
    9000   -287.57687    20.763795   -266.81308    1501.2683    80264.706    10.472245   0.09987508 
    9100   -289.21414    18.734718   -270.47942    1354.5616     73692.78    10.472245  0.083422586 
    9200   -286.60917    18.722895   -267.88627    1353.7067    83400.668    10.472245   0.10958957 
    9300    -285.1939     19.78039   -265.41351    1430.1659    87298.275    10.472245   0.12755155 
    9400   -288.30949    21.880999   -266.42849    1582.0446    78102.147    10.472245   0.10324669 
    9500   -289.92694    18.911772   -271.01516     1367.363    71909.747    10.472245  0.098347763 
    9600   -289.16875     21.91951   -267.24924     1584.829    75681.817    10.472245   0.10702083 
    9700   -288.30898    23.007151   -265.30183    1663.4679    79110.623    10.472245   0.11142915 
    9800   -286.16551    18.495117   -267.67039    1337.2379    83990.397    10.472245   0.11873668 
    9900   -287.34773    19.258977   -268.08875    1392.4666    81641.133    10.472245   0.12737381 
   10000   -287.69362    22.523079   -265.17054    1628.4685    81051.347    10.472245   0.12191628 
Loop time of 2.15243 on 1 procs for 10000 steps with 108 atoms

Performance: 401.407 ns/day, 0.060 hours/ns, 4645.914 timesteps/s
100.0% CPU use with 1 MPI tasks x no OpenMP threads

MPI task timing breakdown:
Section |  min time  |  avg time  |  max time  |%varavg| %total
---------------------------------------------------------------
Pair    | 1.4204     | 1.4204     | 1.4204     |   0.0 | 65.99
Neigh   | 0          | 0          | 0          |   0.0 |  0.00
Comm    | 0.041901   | 0.041901   | 0.041901   |   0.0 |  1.95
Output  | 0.0019294  | 0.0019294  | 0.0019294  |   0.0 |  0.09
Modify  | 0.67867    | 0.67867    | 0.67867    |   0.0 | 31.53
Other   |            | 0.009573   |            |       |  0.44

Nlocal:    108 ave 108 max 108 min
Histogram: 1 0 0 0 0 0 0 0 0 0
Nghost:    990 ave 990 max 990 min
Histogram: 1 0 0 0 0 0 0 0 0 0
Neighs:    4644 ave 4644 max 4644 min
Histogram: 1 0 0 0 0 0 0 0 0 0

Total # of neighbors = 4644
Ave neighs/atom = 43
Neighbor list builds = 0
Dangerous builds = 0
Total wall time: 0:00:02
