LAMMPS (3 Mar 2020)

    # ---------- Initialize simulation ---------------------
    units metal
    atom_style atomic
    dimension  3
    boundary   p p p
    read_data /home/modeler/RemLabs/Lab4/ProblemEC1_v6_size_3/temp_1250/lammps.data
  orthogonal box = (0 0 0) to (12.27 12.27 12.27)
  1 by 1 by 1 MPI processor grid
  reading atoms ...
  108 atoms
  read_data CPU = 0.00088284 secs

    pair_style eam
    pair_coeff * * /usr/share/lammps-stable/potentials/Ag_u3.eam
Reading potential file /usr/share/lammps-stable/potentials/Ag_u3.eam with DATE: 2007-06-11

    velocity  all create 1250 87287 dist gaussian

    # ---------- Describe computed properties------------------
    compute msdall all msd
    thermo_style custom step pe ke etotal temp press density c_msdall[4]
    thermo 100

    # ---------- Specify ensemble  ---------------------
    #fix  1 all nve
    #fix  1 all nvt temp 1250 1250 0.25
    fix 1 all npt temp 1250 1250 0.25 tchain 2 iso 1.0 1.0 1.0 pchain 2

    # --------- Compute RDF ---------------
    compute rdfall all rdf 100 1 1
    fix 2 all ave/time 1 125000 125000 c_rdfall[*] file /home/modeler/RemLabs/Lab4/ProblemEC1_v6_size_3/temp_1250/lammps.rdf mode vector

    # --------- Run -------------
    timestep 0.005
    run 500000
Neighbor list info ...
  update every 1 steps, delay 10 steps, check yes
  max neighbors/atom: 2000, page size: 100000
  master list distance cutoff = 7.55
  ghost atom cutoff = 7.55
  binsize = 3.775, bins = 4 4 4
  2 neighbor lists, perpetual/occasional/extra = 1 1 0
  (1) pair eam, perpetual
      attributes: half, newton on
      pair build: half/bin/atomonly/newton
      stencil: half/bin/3d/newton
      bin: standard
  (2) compute rdf, occasional, copy from (1)
      attributes: half, newton on
      pair build: copy
      stencil: none
      bin: none
Per MPI rank memory allocation (min/avg/max) = 3.723 | 3.723 | 3.723 Mbytes
Step PotEng KinEng TotEng Temp Press Density c_msdall[4] 
       0       -307.8    17.288544   -290.51146         1250    9996.3468    10.472245            0 
     100   -295.75901    7.7063452   -288.05267     557.1858   -1410.6295    9.9697782  0.073491362 
     200   -294.69253    9.0983798   -285.59415    657.83299   -7030.0799    9.8583507  0.091588239 
     300   -294.20178    10.789261   -283.41252    780.08747    9499.4656    9.9942265  0.084355941 
     400   -295.00799    13.795705   -281.21228       997.46   -1092.1386    9.8964391  0.092130853 
     500   -291.89861    12.929089   -278.96952    934.80173   -7796.6446    9.7009412   0.11873086 
     600   -292.90068    15.956687   -276.94399    1153.7037   -4867.2287    9.7618261   0.11428541 
     700   -291.16315     16.72339   -274.43976    1209.1381    11412.311    9.8725025   0.13520185 
     800   -288.24069    15.728226   -272.51246    1137.1855    12174.706      9.75352    0.1536837 
     900   -289.04012    18.450359   -270.58977    1334.0018   -14038.019    9.4942555    0.1430439 
    1000   -285.43839    15.825811   -269.61258    1144.2411   -1633.5317     9.489839   0.18020042 
    1100   -283.77356    16.829289   -266.94427    1216.7948   -4295.7597    9.4083296   0.21839057 
    1200   -283.45656     17.47084   -265.98572    1263.1804    1849.3518    9.4332727   0.23806416 
    1300   -288.39798    17.648443   -270.74953    1276.0215   -2000.5613    9.5941969   0.15271136 
    1400   -285.52061     15.76726   -269.75335    1140.0077     -7015.47     9.430099   0.22686374 
    1500   -284.44616    17.894368   -266.55179    1293.8024   -9026.8075    9.3733921   0.19896082 
    1600   -287.00956    16.908944   -270.10062     1222.554   -7490.8938    9.5149081   0.19419932 
    1700   -287.56537    17.522574   -270.04279    1266.9208   -2301.9964    9.5910273   0.19673333 
    1800   -283.39516    17.349869   -266.04529    1254.4339    10898.239    9.5268659    0.2403424 
    1900   -287.46621    18.704207     -268.762    1352.3556    -12955.55    9.4274732   0.18419572 
    2000   -286.37391     15.43929   -270.93462    1116.2948   -5821.8966    9.4907702   0.17273235 
    2100   -284.02367    17.118466    -266.9052     1237.703    13399.648    9.5808602   0.20767375 
    2200   -284.50738     17.96288    -266.5445    1298.7559    7096.2527    9.5541307   0.19564254 
    2300   -286.40322    15.615362   -270.78786    1129.0252     955.8635    9.5767995   0.17621469 
    2400   -286.66265    17.188921   -269.47372     1242.797   -3276.8285    9.5098473   0.17589208 
    2500   -283.59175    18.384349    -265.2074    1329.2291    10047.166    9.4957242   0.22795019 
    2600   -287.03705    17.929608   -269.10744    1296.3503   -7399.7964    9.4726421   0.16560604 
    2700   -287.38914    17.115501   -270.27364    1237.4886   -6025.0421    9.5329334   0.19279873 
    2800   -287.11899    19.443333   -267.67565     1405.796   -7184.5414    9.4861772   0.20355482 
    2900   -285.60801    18.028863   -267.57915    1303.5267    5269.4806    9.5568402   0.19735592 
    3000   -288.23678    16.322843   -271.91394    1180.1776    2049.2928    9.6649407   0.14749707 
    3100   -285.33664    16.281916   -269.05473    1177.2186   -9461.5673    9.3919645    0.2200296 
    3200   -283.73674    17.071637    -266.6651    1234.3171   -2039.2116    9.4045486   0.21674726 
    3300   -288.27047    18.054467     -270.216    1305.3779    11562.364     9.752001   0.15011296 
    3400   -287.23274     16.06449   -271.16825    1161.4981    11273.143     9.733411   0.17009206 
    3500   -283.98395     17.43254   -266.55141    1260.4112   -4011.0768    9.4220502   0.22656933 
    3600   -286.49101    18.307869   -268.18314    1323.6994   -10114.701    9.4294466   0.18648274 
    3700   -287.62092    16.145653   -271.47527    1167.3664    8232.3465    9.7032811   0.17118458 
    3800   -287.99399    20.592452   -267.40153    1488.8798    -1021.146    9.5850281   0.16448742 
    3900   -284.19403    17.382178   -266.81186    1256.7699     8769.105    9.5520533   0.20610481 
    4000   -286.26063    14.919727   -271.34091    1078.7293   -9353.7342    9.4389037   0.19541702 
    4100   -283.33727    14.058725   -269.27854    1016.4769     -8069.42    9.3366174   0.24640429 
    4200   -286.11387    19.046539   -267.06733    1377.1069   -321.49081    9.5097199   0.21315752 
    4300   -288.38348    19.501907   -268.88157     1410.031    11988.735    9.7313551   0.14432231 
    4400   -288.20908    16.740808   -271.46827    1210.3974    3649.2265    9.6647837   0.15245334 
    4500   -285.29944    18.167293   -267.13215    1313.5355    4060.9189    9.5470188   0.18528544 
    4600   -286.40626    19.288568   -267.11769    1394.6062    821.63547    9.5405168   0.17386812 
    4700   -288.40045    17.836639   -270.56381    1289.6284    4019.0177    9.6748414   0.16171063 
    4800    -285.6301    15.179533   -270.45056    1097.5138    10573.261    9.6372642   0.16905511 
    4900   -284.36481    18.768828   -265.59598    1357.0278   -3887.9565    9.3989182   0.22161415 
    5000   -286.14348    18.155101   -267.98838    1312.6539    8703.5796    9.6195878   0.17041623 
    5100   -288.85522    17.874265   -270.98096    1292.3489    7799.5402    9.7358411   0.17180673 
    5200   -283.99976    16.869912   -267.12985    1219.7319    3053.7808    9.4821271   0.23242315 
    5300   -283.59068    17.478705   -266.11198     1263.749   -4723.1527    9.4115544   0.23457255 
    5400    -288.7467    18.264508    -270.4822    1320.5644    4559.5741    9.6766169   0.15836291 
    5500   -286.89127    18.292426   -268.59885    1322.5829     11538.77    9.6967555   0.15469739 
    5600   -284.22649    19.309627   -264.91687    1396.1287    4492.0421    9.4895668   0.19204462 
    5700   -285.60834    15.823903   -269.78444    1144.1032    1132.9529    9.5377209   0.17268376 
    5800   -285.91373    14.880075   -271.03366    1075.8623   -10344.794    9.4027014   0.22614011 
    5900   -285.71236    17.926695   -267.78567    1296.1397   -6785.6178    9.4600498   0.22855565 
    6000   -287.45205    18.389862   -269.06219    1329.6277    1312.9644    9.5997605   0.18017747 
    6100   -288.88595    16.624439   -272.26151    1201.9837   -1738.2447    9.6497138   0.16664605 
    6200   -285.77071    17.652553   -268.11816    1276.3186   -1055.8884     9.513906   0.22673802 
    6300   -285.21128    17.119345   -268.09193    1237.7665   -6980.5384    9.4384389   0.22599426 
    6400   -287.57362    16.209337   -271.36429    1171.9709   -232.23738    9.6079549   0.17001414 
    6500   -287.03522    17.161604   -269.87362    1240.8219    1924.9393    9.5969225   0.15939942 
    6600    -286.9985    20.151536   -266.84697    1457.0006   -13808.436    9.4020012   0.19775846 
    6700   -286.02925    18.273184   -267.75607    1321.1916    16095.735    9.7143717   0.15506683 
    6800   -289.99103    17.940338   -272.05069    1297.1261    12207.624    9.8288534   0.12032314 
    6900    -286.9584    16.867839   -270.09056    1219.5821   -5472.2706    9.5181381    0.2022167 
    7000   -285.70521    18.654217     -267.051    1348.7412   -7520.5873    9.4332481   0.20169301 
    7100   -289.07539    19.522047   -269.55334    1411.4872   -1758.0244    9.6244952   0.14933627 
    7200   -288.61899    16.521732   -272.09726    1194.5578    4000.7557    9.6865691   0.16185364 
    7300   -283.61086    16.672574   -266.93829     1205.464   -4943.8163    9.3774321   0.27191952 
    7400   -285.58613    17.861808   -267.72432    1291.4482    1195.5789    9.5283044   0.18562393 
    7500   -288.54689    18.109411   -270.43748    1309.3504     13896.67    9.7915105   0.14605492 
    7600   -287.81059    19.324527   -268.48607    1397.2061   -3024.9905    9.5646311   0.17808038 
    7700   -281.71213     16.67445   -265.03768    1205.5996   -4625.3779    9.2983932   0.28843142 
    7800   -285.92858    16.517346   -269.41124    1194.2407   -8349.8681     9.438262   0.19529725 
    7900   -287.54268    16.621872   -270.92081    1201.7981    10248.967    9.7158683   0.16932425 
    8000   -284.13548    17.588172   -266.54731    1271.6637     13560.11    9.6073902   0.20711668 
    8100    -285.2819     18.41349   -266.86841    1331.3361   -21098.787    9.2722711   0.19032084 
    8200   -287.37193    17.089098   -270.28283    1235.5796   -11094.954    9.4648841   0.18409096 
    8300   -285.69283    18.078886   -267.61394    1307.1434    19103.706    9.7338566   0.16659837 
    8400   -283.78667    18.155689   -265.63098    1312.6965    15866.676    9.5987168   0.19150469 
    8500   -287.09136    16.616271   -270.47508    1201.3932   -13117.293     9.421647   0.18716028 
    8600   -287.36605    18.323865   -269.04218     1324.856   -10586.455    9.4618945   0.17946238 
    8700   -284.28341    19.372653   -264.91076    1400.6857    9413.7831    9.5420697   0.18310311 
    8800   -287.93819    18.768638   -269.16955    1357.0141    9677.7212    9.7092766   0.14403661 
    8900   -286.75345    16.449619   -270.30383    1189.3438    10457.457    9.6851808   0.16943391 
    9000   -285.04282    17.749109   -267.29371    1283.2998     3686.317    9.5212761   0.20966938 
    9100   -284.10188    18.575801   -265.52608    1343.0715   -10195.072    9.3223093   0.25716271 
    9200    -286.9198    15.743667   -271.17614    1138.3019    5131.0028    9.6296811   0.17920673 
    9300   -286.53955    16.451933   -270.08762    1189.5111    11292.808    9.6713825   0.19386706 
    9400   -285.50492    18.096893   -267.40803    1308.4454     -13173.6    9.3582335     0.237829 
    9500   -284.31024    16.129082   -268.18116    1166.1683   -18277.518     9.286548   0.25169754 
    9600   -289.37397    17.905546   -271.46842    1294.6106    7273.5363    9.7249576   0.12427104 
    9700    -288.6041    19.822006    -268.7821    1433.1749    3302.2225    9.6548118   0.13939791 
    9800   -285.81055    19.274762   -266.53578    1393.6079   -12701.286    9.3738352   0.19636197 
    9900   -287.64833    16.703289   -270.94504    1207.6847    27.617355    9.5886205   0.16773381 
   10000   -286.34875    16.408273   -269.94048    1186.3544    6174.2583    9.6142998   0.21566931 
   10100   -283.80895     17.70328   -266.10567    1279.9863   -2805.6674    9.4045485   0.26109698 
   10200   -286.97097     17.38188   -269.58909    1256.7484   -15993.086    9.4031359   0.19261859 
   10300   -288.43771    17.698571   -270.73913    1279.6458    4906.8839    9.6867296   0.15817159 
   10400   -284.95319     18.76037   -266.19282    1356.4162    8427.8373     9.564858   0.21126143 
   10500   -286.53031    17.731349   -268.79897    1282.0158   -4808.7656    9.4978676   0.19634166 
   10600   -285.64585    15.473379   -270.17247    1118.7596   -1419.4663    9.5053028   0.22431908 
   10700   -283.14093    16.750468   -266.39046    1211.0959   -3985.9419    9.3669829   0.21226529 
   10800   -286.61827    16.485314   -270.13295    1191.9247   -11173.756    9.4495884   0.19907634 
   10900   -288.82426    18.407412   -270.41685    1330.8966   -5989.3528    9.5931402    0.1710604 
   11000   -284.63068    18.929033   -265.70165     1368.611     6552.916    9.5301641   0.17094071 
   11100   -286.53805    16.847705   -269.69034    1218.1263   -1466.8966    9.5430808    0.2045491 
   11200   -289.51649    20.317078   -269.19941    1468.9697   -11047.143    9.5261483   0.15859963 
   11300   -284.78476      20.1233   -264.66147    1454.9591   -11869.838    9.3369274    0.2425952 
   11400   -284.52543    18.371349   -266.15408    1328.2892    6875.5636    9.5400926   0.24090897 
   11500   -289.00006    20.128566   -268.87149    1455.3398    13948.329    9.7865433   0.12830446 
   11600   -286.93537    17.529245   -269.40613    1267.4032    7095.9395     9.634354   0.16979753 
   11700   -283.95892    18.452529   -265.50639    1334.1587   -1704.7917    9.4443766   0.21872653 
   11800   -284.44311    16.193937   -268.24917    1170.8574   -1875.0344    9.4475859   0.23698079 
   11900   -287.42698    16.884987     -270.542    1220.8219   -6619.4308    9.5099088   0.18426403 
   12000   -284.12398    16.446534   -267.67745    1189.1208    631.40586    9.4552984   0.25195603 
   12100   -283.16987    18.317343   -264.85252    1324.3844   -7714.2644    9.3268761   0.27335298 
   12200     -287.115    18.137354   -268.97765    1311.3708    21017.571     9.809767   0.15724602 
   12300   -286.93194    16.264663   -270.66728    1175.9711    1536.3614    9.5921417   0.17734611 
   12400   -286.71011    20.063775   -266.64633    1450.6553   -15917.414    9.3629635   0.18422581 
   12500   -286.12303    18.037292   -268.08574    1304.1361     7948.491    9.6219707   0.17380936 
   12600   -287.19516    15.546953   -271.64821    1124.0791   -526.41044    9.5920216   0.16812819 
   12700   -286.50612    18.381902   -268.12422    1329.0522   -7302.5189     9.462005   0.20915028 
   12800   -282.92786    16.806141   -266.12172    1215.1212    12499.432    9.5381894   0.24827759 
   12900   -287.59788    16.241675    -271.3562     1174.309    2313.2787    9.6479743   0.15578895 
   13000   -287.89273    16.955294   -270.93744    1225.9053   -7999.0951     9.538717   0.16517814 
   13100   -285.44596     17.89742   -267.54854     1294.023    8108.0321    9.5972996   0.18325847 
   13200   -286.14693    16.225889   -269.92104    1173.1677    -2229.681    9.5327847   0.19395086 
   13300   -286.91187    15.420852   -271.49102    1114.9617   -6074.5423     9.503051   0.17631291 
   13400   -283.37167    16.694106   -266.67756    1207.0208     3519.421      9.47486   0.20478333 
   13500   -288.85908     19.86271   -268.99636    1436.1179    5309.6025    9.6936719   0.14340962 
   13600   -287.34581    15.647473   -271.69834    1131.3469    22529.066    9.8445214   0.14831887 
   13700   -284.23409    15.778462   -268.45563    1140.8177    1964.9749    9.4785461   0.21227254 
   13800   -283.83518    16.074453   -267.76073    1162.2185   -11159.823    9.3157507   0.25262036 
   13900   -286.83822    16.183185   -270.65503    1170.0801    -7186.847    9.4906638   0.22143671 
   14000   -289.24683    15.839757   -273.40707    1145.2494    2437.5764    9.7078205   0.15663445 
   14100   -285.01829    16.189304   -268.82899    1170.5225   -218.50291    9.5072585   0.20701955 
   14200   -284.87482    16.791715    -268.0831    1214.0781    4639.9988    9.5381863   0.20495429 
   14300   -287.69971    16.728982   -270.97073    1209.5424    628.31227    9.6226608   0.15582028 
   14400   -289.44748    16.541236   -272.90625     1195.968    16852.117    9.8766576   0.13510617 
   14500    -285.8224    17.561144   -268.26126    1269.7096    14371.674    9.7072878   0.21107934 
   14600   -286.66299     18.31375   -268.34924    1324.1247   -7294.2964    9.4790642   0.19816593 
   14700   -285.72792    17.047944   -268.67998     1232.604   -367.40228    9.5288836   0.20839518 
   14800   -285.19052    17.743049   -267.44747    1282.8617    6235.7152    9.5358367    0.2128995 
   14900   -283.30319    19.257129   -264.04607     1392.333   -11779.067    9.2832769   0.23629825 
   15000   -285.35027     18.23964   -267.11063    1318.7663   -6737.5744    9.4155649   0.24384069 
   15100   -286.67139    17.838288    -268.8331    1289.7477   -4741.8166     9.519882   0.20465725 
   15200   -287.38351    15.153697   -272.22981    1095.6458    12599.271    9.7482101   0.16723858 
   15300   -284.50877    16.658527   -267.85025    1204.4483    1655.3077    9.4926636   0.21752433 
   15400   -287.34044    20.005654   -267.33478     1446.453   -7867.4459    9.4877888   0.17862698 
   15500   -287.35631      16.8827   -270.47361    1220.6565    4232.9571    9.6280622    0.1682519 
   15600   -288.30226    19.996332   -268.30593     1445.779    8261.7907    9.7075931   0.15747538 
   15700   -282.89409    17.807598   -265.08649    1287.5288   -14199.295    9.2312694   0.25949063 
   15800   -284.57916     15.47997   -269.09919    1119.2361   -4620.3546    9.4298836   0.24968495 
   15900    -287.4895    17.425186   -270.06432    1259.8795     1695.713    9.5952656   0.18732192 
   16000   -285.16347    18.398105   -266.76536    1330.2237   -3018.4678     9.433949   0.22914977 
   16100   -283.96824    18.485694   -265.48255    1336.5565   -14339.982    9.3024019   0.22054808 
   16200   -287.23542    17.139553   -270.09587    1239.2276    3596.7864    9.6044879   0.15845988 
   16300    -286.1844    16.590044   -269.59436    1199.4968    -2121.949    9.5374368   0.20549738 
   16400   -285.51542    20.174204   -265.34122    1458.6396   -2098.6184    9.4746599   0.18550071 
   16500   -287.92262     18.11413   -269.80849    1309.6916    6926.3079    9.6772536   0.14604773 
   16600    -287.9929    17.418125   -270.57477    1259.3689   -4358.5612    9.5609755   0.16615688 
   16700   -284.03295    17.646638   -266.38631     1275.891   -1003.6295    9.4609883    0.2177486 
   16800    -287.0726    18.513136   -268.55947    1338.5407    1065.7103    9.5761317   0.16545179 
   16900   -287.21445      16.3158   -270.89865    1179.6685   -443.27342    9.5847868   0.16107972 
   17000   -284.96775    17.982255    -266.9855    1300.1568   -206.53358     9.479244   0.15785007 
   17100   -285.91274    17.384716   -268.52802    1256.9534    4647.7376    9.5647521   0.19063072 
   17200   -287.97337     16.08537     -271.888    1163.0078    5800.3007     9.696572    0.1667635 
   17300   -285.95306    18.634116   -267.31895    1347.2878    3729.3517    9.5556187   0.19134846 
   17400   -286.07926    18.916122   -267.16314    1367.6775    14104.947    9.6564799   0.18307254 
   17500   -287.03732    15.531891   -271.50543    1122.9901    333.63807    9.5710157   0.15044668 
   17600   -286.54187    15.275097   -271.26677    1104.4233    -9654.467    9.4604005   0.20392472 
   17700   -287.47003    20.116654   -267.35338    1454.4786   -5338.8944    9.5101794   0.17025196 
   17800   -286.09407    16.562515   -269.53156    1197.5065    4755.3288    9.5853952   0.17204399 
   17900   -289.24894    17.668177   -271.58076    1277.4483     5089.273    9.7242086   0.15639852 
   18000   -284.99826    17.747044   -267.25122    1283.1505    2883.5418     9.502916   0.25306997 
   18100   -282.54637    15.832054   -266.71431    1144.6926    1088.8737    9.4196192   0.21996715 
   18200   -285.58384    16.073464   -269.51038     1162.147   -258.97872    9.5204578   0.19649801 
   18300   -286.46885    16.024907   -270.44394    1158.6362   -3735.7358    9.5064913   0.17726539 
   18400   -283.84222    18.900426   -264.94179    1366.5426    7830.4633    9.4685445   0.24856388 
   18500   -283.56104    18.066637   -265.49441    1306.2578    2180.4212    9.4303977   0.24768422 
   18600   -286.71157    17.366055   -269.34551    1255.6042   -3837.2449    9.5230826   0.19574015 
   18700   -286.05915    17.789553    -268.2696     1286.224    12614.019    9.6849176   0.19902392 
   18800   -283.79048    20.271344   -263.51913     1465.663    8487.6549    9.4976199   0.20011137 
   18900   -285.87393    18.423038   -267.45089    1332.0264   -484.41388     9.505534   0.19385534 
   19000   -287.45629    17.290717   -270.16557    1250.1571    -298.5883    9.5855665   0.17045297 
   19100   -286.03459    17.586699    -268.4479    1271.5572   -2669.8288     9.494568   0.18981181 
   19200   -282.78054     17.64299   -265.13755    1275.6272   -13344.467    9.2460627   0.24081165 
   19300   -288.11547    18.458552   -269.65692    1334.5941   -4058.9494    9.5286921    0.1750653 
   19400   -285.84639    16.548803   -269.29759     1196.515    14133.091    9.6856101   0.20730864 
   19500   -284.18579    17.562424   -266.62336    1269.8021   -5571.8094    9.3831471    0.2451406 
   19600    -287.2711    15.893774   -271.37732     1149.155   -4348.4048    9.5543422   0.20075579 
   19700   -286.79896    16.537871   -270.26109    1195.7246    6320.9332    9.6144178   0.18791004 
   19800   -285.38198    18.385377   -266.99661    1329.3034   -2602.6832    9.4376816   0.21276569 
   19900   -285.15771    18.202112    -266.9556     1316.053    806.43047     9.496855   0.16784274 
   20000   -289.33095    18.487378   -270.84357    1336.6783    8106.2805    9.7435376   0.12986014 
   20100   -286.11335    16.657994   -269.45535    1204.4098    238.11601    9.5626994   0.19713211 
   20200   -283.13301    16.648424   -266.48459    1203.7179   -11995.747    9.2882862   0.21934764 
   20300   -287.42849    16.098818   -271.32967    1163.9801    7314.9616    9.6574209   0.15079513 
   20400   -288.77696    17.842335   -270.93463    1290.0403    2433.9615    9.6611935   0.13763727 
   20500    -287.1702    19.662579   -267.50762     1421.648    244.63641    9.5582511    0.1686577 
   20600   -284.24508    16.260187   -267.98489    1175.6475    11113.007    9.5846261   0.21094594 
   20700   -289.78293    17.101512   -272.68142    1236.4771   -3528.5362     9.657221   0.15586471 
   20800    -285.3192    16.031794   -269.28741    1159.1341   -6175.8674    9.4332661     0.234076 
   20900    -284.0212    16.342695   -267.67851     1181.613   -17323.543    9.2706489   0.25236117 
   21000   -285.69241    17.040637   -268.65177    1232.0758   -4811.1076    9.4509182   0.21956725 
   21100   -287.89136    15.134888   -272.75647    1094.2859    17443.218    9.8044571    0.1594412 
   21200   -285.96011     17.17036   -268.78975     1241.455    6305.8326    9.5856493   0.17290827 
   21300   -285.44059    18.059777   -267.38082    1305.7619   -5513.0047    9.4295932   0.21461192 
   21400   -288.09839    19.688001   -268.41039     1423.486   -4624.6737    9.5612251   0.18310746 
   21500   -289.53935    16.308059   -273.23129    1179.1087    8706.2019    9.7601731   0.13256165 
   21600   -285.73602    16.294755   -269.44127    1178.1468   -411.90262    9.5399025    0.1685225 
   21700   -287.56419    19.708182   -267.85601    1424.9451   -367.20383    9.5602433   0.17959817 
   21800   -287.20849    16.074169   -271.13432     1162.198    13746.932    9.7298931   0.17492298 
   21900   -287.09101    15.777925   -271.31309    1140.7789   -1384.4658    9.5838065   0.20047146 
   22000   -285.41315    17.476044   -267.93711    1263.5566   -16270.148    9.3193546   0.23382179 
   22100   -286.58159    16.757113   -269.82448    1211.5764   -12725.881    9.4149438   0.20797263 
   22200   -288.59999     16.35059    -272.2494    1182.1839     12230.29    9.7874498   0.14343333 
   22300   -283.67525    16.442804   -267.23245    1188.8511    6256.0651    9.5126838   0.23005763 
   22400   -284.77042     17.52175   -267.24867    1266.8613     4769.992    9.5161712   0.17216389 
   22500    -286.3331    16.269554   -270.06354    1176.3248   -4378.5638    9.5024344   0.17809475 
   22600    -286.5284    16.920202    -269.6082     1223.368   -1559.9417    9.5203136   0.19407832 
   22700   -282.16689    16.836202   -265.33068    1217.2947    13871.095    9.5106493   0.19900236 
   22800   -286.24688    16.957689   -269.28919    1226.0784    8262.7837    9.6261037   0.17587254 
   22900   -287.45008    16.809999   -270.64008    1215.4001   -3792.5043    9.5640086   0.16687251 
   23000    -283.5845    17.169963   -266.41454    1241.4263   -3901.8106    9.3913941   0.20764848 
   23100   -283.93384    18.264687   -265.66916    1320.5772   -2710.3372    9.3899495   0.22942285 
   23200   -285.16215    16.207682   -268.95446    1171.8512   -927.56719    9.4997596   0.24819368 
   23300   -287.19364    18.085854   -269.10778    1307.6473    13431.986    9.7027743   0.17817761 
   23400     -286.913    16.941525   -269.97148    1224.9097    4437.4257    9.6326456   0.18291529 
   23500   -281.76259    16.643886    -265.1187    1203.3898   -4248.4469    9.2972459   0.24253215 
   23600   -285.52401    17.561974   -267.96204    1269.7696   -13615.155    9.3688403   0.21063372 
   23700   -286.16015     15.68062   -270.47953    1133.7435    4079.5018    9.5942882   0.20166476 
   23800   -283.68148    17.517714   -266.16377    1266.5695    10713.719    9.5619878   0.20005119 
   23900   -285.23204    17.574177   -267.65786    1270.6519     3611.977    9.5447853   0.18271914 
   24000   -284.92339    14.045128   -270.87826    1015.4938    2042.9883    9.5262175   0.20773513 
   24100   -285.20176    17.379236   -267.82253    1256.5572    4300.4008     9.544484   0.20484176 
   24200   -287.16968    19.357826   -267.81185    1399.6137   -7658.3152    9.4854878   0.18210535 
   24300    -288.0784    16.834471   -271.24393    1217.1695    14601.945    9.7770478   0.15177233 
   24400   -285.93181    18.044474   -267.88734    1304.6554    943.57772    9.5481461   0.20363376 
   24500   -282.11214     15.69544    -266.4167     1134.815   -6886.8463     9.304718   0.28022973 
   24600   -287.84963      16.5099   -271.33973    1193.7023   -10095.626    9.4923533    0.1628432 
   24700   -287.20987    16.016237   -271.19364    1158.0094     7019.753     9.658566   0.16771239 
   24800   -284.70973    18.087467   -266.62227    1307.7639   -1347.4373    9.4517181   0.22634939 
   24900   -285.13751    16.985948   -268.15156    1228.1216   -18076.967    9.2998792   0.22536518 
   25000    -288.5383    16.580158   -271.95814    1198.7821   -2361.1215    9.6224085   0.16460342 
   25100   -286.81285    18.592322   -268.22053     1344.266    6064.3066    9.6148705     0.188738 
   25200   -284.67201    17.998717   -266.67329    1301.3471    1427.0144    9.4813255    0.1849097 
   25300   -288.31756    17.026471   -271.29109    1231.0515    7578.3749    9.7042563   0.16134441 
   25400   -287.13334    18.067022   -269.06632    1306.2856    6073.6561    9.6377135   0.19686085 
   25500   -284.29543    18.533192   -265.76224    1339.9908   -16248.194     9.284603   0.21966553 
   25600    -288.6178    18.359902    -270.2579    1327.4615   -12016.889    9.5116354   0.15516423 
   25700   -289.04903    18.829729    -270.2193    1361.4311    5256.1882     9.705282   0.13700275 
   25800   -286.19222    19.375936   -266.81628     1400.923    45.345939    9.5199098   0.21605809 
   25900   -283.23149    18.921698    -264.3098    1368.0806   -4279.0382    9.3763276   0.25836507 
   26000   -287.28872    17.966146   -269.32258    1298.9921    21248.159    9.8091444   0.16027269 
   26100   -287.20252    17.847914   -269.35461    1290.4437    6650.3995    9.6692705   0.18880011 
   26200   -284.56891    17.623893   -266.94502    1274.2465   -7606.2597    9.3813018   0.23580866 
   26300   -284.80156    16.320811   -268.48075    1180.0308    1257.3446    9.5075912   0.19867467 
   26400   -287.91837    16.892422   -271.02595    1221.3595   -4225.6079    9.5642555   0.15796526 
   26500    -284.6389    17.070024   -267.56888    1234.2005    15487.852    9.6434509    0.2429301 
   26600   -283.15731    18.067031   -265.09027    1306.2863    5807.1024    9.4950151   0.22879743 
   26700   -286.79796    16.902149   -269.89581    1222.0627    10965.775    9.6909135   0.17673766 
   26800   -285.68344      16.6582   -269.02524    1204.4247    2227.9625    9.5467131   0.17595504 
   26900   -283.64847    16.732599   -266.91587    1209.8039   -1626.6933    9.4249619   0.20218295 
   27000    -289.2873    17.524315   -271.76298    1267.0468   -840.47582    9.6427927   0.14705031 
   27100   -288.32568    18.043974    -270.2817    1304.6192   -647.73045    9.6011732   0.17854864 
   27200   -283.91289    16.861312   -267.05158    1219.1102    4411.0551    9.4846513   0.22226697 
   27300   -285.44093    15.599603   -269.84133    1127.8858   -4842.2383    9.4832876   0.20449236 
   27400   -287.02767    15.915811   -271.11186    1150.7483   -4738.4078    9.5328014   0.16556357 
   27500   -286.03355    19.056552     -266.977    1377.8308    -4729.526    9.4818727   0.21246474 
   27600   -284.66703    18.289374   -266.37765    1322.3622    12820.137    9.6118169   0.20072212 
   27700   -285.48321    15.804445   -269.67877    1142.6964    13261.962    9.6566956   0.20375419 
   27800   -286.75426    17.486877   -269.26738    1264.3399    6884.1817    9.6321574   0.17985203 
   27900    -284.2682    20.192757   -264.07545     1459.981   -570.19402    9.4459411   0.21956571 
   28000   -288.03007    20.035546   -267.99452    1448.6143    10563.862    9.7177409     0.149318 
   28100   -288.06471    17.606947   -270.45777    1273.0212    -2361.755    9.5761385    0.1534299 
   28200   -285.10992    18.029453   -267.08047    1303.5694   -4323.3838    9.4144064   0.21607349 
   28300   -283.89787    17.546642   -266.35123     1268.661    4151.0146     9.482749    0.2378598 
   28400   -287.27963    16.891591   -270.38804    1221.2994    216.26805    9.6005699   0.19246499 
   28500   -285.20419    16.994505   -268.20969    1228.7403    5233.7326    9.5412047   0.25385216 
   28600   -282.60914    16.033916   -266.57522    1159.2876    -643.7455     9.390862   0.23203517 
   28700   -285.82246    16.110174   -269.71228    1164.8012    1104.3046    9.5429072    0.1889041 
   28800   -287.34367    16.558732   -270.78494    1197.2329    10177.101    9.7108596   0.17028728 
   28900   -284.39543    19.392999   -265.00243    1402.1568   -1558.2641    9.4180631   0.24580591 
   29000   -286.84914    19.819648   -267.02949    1433.0044    11493.829    9.6965808    0.1806501 
   29100    -287.3053    16.630122   -270.67518    1202.3946   -736.23031    9.5793531     0.180143 
   29200   -285.39598    16.975541   -268.42044    1227.3691    -18561.69    9.3052111   0.23434441 
   29300   -283.75494    18.071845   -265.68309    1306.6343   -4789.8521    9.3893374   0.23776986 
   29400   -287.54545    17.216989   -270.32846    1244.8264   -3970.0888    9.5467164    0.1899801 
   29500   -286.91634    17.877237    -269.0391    1292.5638   -3024.9716    9.5404513   0.17437001 
   29600    -284.6662    20.081604    -264.5846    1451.9444    1575.8595    9.4754762   0.20850678 
   29700   -284.87748    16.080893   -268.79659    1162.6841     12272.17    9.6202078   0.19645487 
   29800    -285.6069    15.319637   -270.28727    1107.6437    418.66323    9.5226669   0.17802871 
   29900   -285.80905    17.127516   -268.68153    1238.3573   -8446.2394    9.4157304   0.19111201 
   30000   -283.48824    19.811397   -263.67685    1432.4078    7169.2114    9.4973893   0.22500064 
   30100     -285.785    17.918296   -267.86671    1295.5324    17669.182    9.7339856   0.15574819 
   30200   -288.03951    18.717503     -269.322    1353.3169    2062.9775    9.6344587   0.15048716 
   30300   -286.67353    17.634533     -269.039    1275.0158   -7171.1518    9.4838643   0.19233039 
   30400   -283.50714      19.0003   -264.50684    1373.7637    282.75519    9.4314474   0.23838635 
   30500    -283.2107    17.733973   -265.47673    1282.2055    3305.8555    9.4612319   0.25339589 
   30600   -286.78426    18.672137   -268.11212    1350.0368   -1260.0613    9.5340597   0.19108558 
   30700   -285.81263    15.764202   -270.04843    1139.7867   -1698.3965    9.5105181   0.18160933 
   30800   -288.33271    16.481592   -271.85112    1191.6555    1362.4766    9.6418114   0.16013848 
   30900   -284.38525     18.32238   -266.06287    1324.7486    7975.9336    9.5674717   0.22133801 
   31000   -286.07228     17.89621   -268.17607    1293.9355    809.39806    9.5280727   0.19515631 
   31100   -287.83648    17.991952   -269.84453    1300.8579   -1522.5556    9.5726326   0.18592286 
   31200   -284.77488     19.38408    -265.3908    1401.5119    5435.0299     9.522921   0.22316138 
   31300   -286.98655    19.007702   -267.97885    1374.2989    9198.9141    9.6676913   0.19416043 
   31400   -286.29504    15.879888   -270.41515     1148.151   -7517.9961    9.4946418   0.22167989 
   31500    -284.5041    17.581716   -266.92238     1271.197   -14885.565    9.2994415   0.24043237 
   31600   -283.99232    17.772927    -266.2194    1285.0219    710.97505    9.4332938   0.24640243 
   31700   -287.60089    16.540116   -271.06077     1195.887    1642.4513    9.6107514   0.16291275 
   31800   -285.97175    16.561433   -269.41032    1197.4282    2984.2718    9.5825626   0.20843006 
   31900     -284.941    19.582227   -265.35877    1415.8384    14927.697    9.6540957   0.19023129 
   32000   -287.00152     17.98568   -269.01584    1300.4044    7946.4299    9.6593458    0.1739321 
   32100   -286.88446    17.158478   -269.72598    1240.5959   -16604.666    9.3725918   0.19494313 
   32200   -283.05603    17.357835    -265.6982    1255.0099   -8023.5608    9.3125439   0.29521231 
   32300   -283.77977    17.465022   -266.31475    1262.7597    505.56111    9.4169683   0.26368351 
   32400   -287.85052    18.000481   -269.85004    1301.4746   -283.93214    9.5967043   0.16679061 
   32500   -288.42366    19.787919   -268.63574    1430.7103   -28.474558    9.6194576   0.15408433 
   32600   -282.87246    17.864039   -265.00842    1291.6095   -1017.5131    9.3931859   0.27913362 
   32700   -285.45498    18.184653   -267.27033    1314.7906   -16840.046    9.3241944   0.23312062 
   32800   -285.57076    15.249823   -270.32094    1102.5959   -5495.3879    9.4698063   0.24916151 
   32900   -286.39719    19.182689    -267.2145    1386.9508    11781.814    9.6882883   0.18941215 
   33000    -285.3862    18.117313   -267.26888    1309.9218    27736.602    9.8171312   0.19246503 
   33100   -287.99865    15.375942   -272.62271    1111.7146   -8966.1858    9.5349671   0.16195751 
   33200   -287.51409    16.595984    -270.9181    1199.9264   -11651.384    9.4551873   0.17161467 
   33300   -286.82519    18.637368   -268.18782    1347.5229    -7262.622    9.4716678   0.20527936 
   33400   -285.13656     16.58612   -268.55044    1199.2131    3809.4951    9.5461101   0.19806665 
   33500   -288.74164    15.809188   -272.93245    1143.0393    1246.8292    9.6463479   0.15548257 
   33600   -285.27765    16.624129   -268.65352    1201.9613   -12037.988    9.3615873   0.22730924 
   33700   -284.26038    17.556394   -266.70399    1269.3661    6204.6123     9.504141   0.22068877 
   33800   -285.92808     15.48454   -270.44354    1119.5665    10222.607    9.6537347   0.16851161 
   33900   -287.90492    17.098746   -270.80617    1236.2771    1478.6881    9.6279396   0.16133853 
   34000   -283.56861    16.618333   -266.95027    1201.5423   -10281.584    9.3102944   0.25431026 
   34100   -283.20484    16.233942    -266.9709    1173.7499   -20059.825    9.2018544   0.24428409 
   34200   -287.65335    16.846243   -270.80711    1218.0206    -8403.224    9.5113408   0.21070493 
   34300   -286.95115    18.410135   -268.54101    1331.0935    8244.0992     9.636249   0.17386496 
   34400   -282.48656    18.178992   -264.30757    1314.3814     1782.577    9.4072399   0.26642198 
   34500   -286.08939    17.401839   -268.68755    1258.1914   -21188.444    9.2967086   0.25112926 
   34600   -285.17848    15.735694   -269.44278    1137.7255   -1300.7939    9.5059059   0.23141871 
   34700   -284.25751    17.499115    -266.7584    1265.2247   -11306.001     9.341162   0.23390954 
   34800   -281.74736    17.243528   -264.50383    1246.7452   -11743.142    9.2113836   0.29536461 
   34900   -287.62377    17.428174    -270.1956    1260.0956   -8625.5692    9.5125655   0.19437497 
   35000   -284.66177    15.479708   -269.18206    1119.2171    17410.129     9.682689   0.19176199 
   35100   -287.32058    19.328319   -267.99226    1397.4802    1137.9493     9.578617   0.19234241 
   35200    -281.8175    18.636614   -263.18089    1347.4684    4533.7818    9.3904841   0.29158913 
   35300   -284.09721    17.873951   -266.22326    1292.3262   -6636.9916    9.3904568   0.21289174 
   35400    -284.9197    15.610121   -269.30957    1128.6463    2550.6251    9.5213105   0.19557128 
   35500   -286.93177     17.20219   -269.72958    1243.7564   -1451.7189    9.5526125   0.16762668 
   35600   -283.97508    16.130977   -267.84411    1166.3053     5951.428    9.5195809    0.2261819 
   35700   -282.32508    17.450342   -264.87474    1261.6983    525.34958    9.3818333   0.29219697 
   35800    -285.4101    18.308807   -267.10129    1323.7673   -10.851662    9.4957044   0.19583987 
   35900   -288.59022    18.056917   -270.53331     1305.555     3341.858    9.6594042   0.17694646 
   36000   -287.93467    20.916447   -267.01823    1512.3054    6380.3414    9.6769523    0.1569392 
   36100   -284.02054    19.613708   -264.40683    1418.1145    11885.407    9.5837967   0.19105542 
   36200   -285.61476    15.777775   -269.83699     1140.768   -2322.6641    9.4921821   0.21258759 
   36300   -284.84279    14.762962   -270.07983    1067.3948   -13248.718    9.3427809   0.20438076 
   36400   -283.36778    16.096727   -267.27105     1163.829    2017.0211    9.4205333    0.2714205 
   36500    -283.9248    18.153957   -265.77084    1312.5712    2489.7251    9.4708603    0.2073662 
   36600   -286.25333    17.272037   -268.98129    1248.8065   -1520.9155    9.5119381   0.19085457 
   36700   -284.33431    15.584192   -268.75012    1126.7716    4900.8665    9.5317183    0.2118372 
   36800    -281.9826    17.634969   -264.34763    1275.0473   -4777.6076    9.2919094   0.27938799 
   36900   -284.38012    16.996637   -267.38349    1228.8944   -8559.8864    9.3591408   0.21631992 
   37000   -287.16696    17.847207   -269.31976    1290.3926    13473.104    9.7091844   0.16295391 
   37100   -287.91168    19.711346   -268.20033    1425.1739    15984.264    9.7831566   0.15780133 
   37200   -285.70549     20.16374   -265.54175     1457.883    318.91544    9.4954743   0.20097487 
   37300   -282.45921    16.240042   -266.21917    1174.1909    4188.8202    9.4300981   0.24543716 
   37400   -286.75199    16.161531   -270.59045    1168.5145   -1924.6467    9.5277307   0.18825899 
   37500   -287.00299    18.066894   -268.93609    1306.2764    7581.7353    9.6398743   0.19013449 
   37600    -285.4633    18.087259   -267.37604    1307.7489   -2884.2886    9.4851845   0.20813951 
   37700   -280.48818    18.179798   -262.30838    1314.4396     2626.872    9.3142609   0.28706024 
   37800   -284.59969     17.18783   -267.41187    1242.7181    9761.0216    9.5812539   0.23340699 
   37900    -285.1843    16.174688   -269.00961    1169.4657   -8280.7488    9.3861443   0.21607563 
   38000   -285.01232    16.654167   -268.35816    1204.1331    -4718.353    9.4534789   0.21966338 
   38100   -287.14146    17.854246   -269.28721    1290.9015    11680.502    9.7239229   0.15997281 
   38200    -289.4888    16.661009   -272.82779    1204.6278   -781.80095    9.6654503   0.13826786 
   38300    -285.6895    15.761313   -269.92819    1139.5778   -12236.621    9.3930803   0.23394438 
   38400   -287.28975    19.588314   -267.70143    1416.2784   -8089.9192     9.459946   0.17963168 
   38500   -287.51401    18.337344   -269.17667    1325.8305     15728.98    9.7558636   0.18043184 
   38600   -283.58197    18.000723   -265.58125    1301.4921    11074.944    9.5240881   0.19838503 
   38700   -283.22517    17.345322   -265.87984    1254.1051   -3989.2611     9.359364    0.2067275 
   38800   -284.10157    14.961357   -269.14021    1081.7392   -3460.5261    9.4137851   0.20034224 
   38900   -286.05144    17.130156   -268.92128    1238.5482    28.034156    9.5401443   0.19351871 
   39000   -283.66703    19.780831    -263.8862    1430.1979    8031.8962    9.5230088   0.23196351 
   39100   -284.87937    18.381603   -266.49777    1329.0306    7917.2987    9.5773158    0.1721541 
   39200    -286.2515    17.318529   -268.93297     1252.168   -4704.4393    9.4967857   0.21060685 
   39300   -284.03145    15.183887   -268.84756    1097.8286    372.46087    9.4897421   0.21089292 
   39400   -287.88278    17.599127   -270.28365    1272.4558    14771.802    9.7598007   0.16644078 
   39500   -289.72362    15.678068   -274.04555     1133.559    6976.8015    9.7786648   0.13581914 
   39600    -287.4658     17.04602   -270.41978    1232.4649    941.85275     9.597352   0.17612875 
   39700   -284.48114    16.699427   -267.78172    1207.4055   -1247.2698    9.4448578   0.21042179 
   39800   -284.40281    16.630138   -267.77267    1202.3957    4942.4699    9.5166513   0.22048912 
   39900   -287.97611    16.648675   -271.32744     1203.736   -2315.3716    9.5905873   0.15504069 
   40000   -286.09675       18.209   -267.88775     1316.551   -1830.5207    9.5029831   0.19566295 
   40100   -283.07736    16.242378   -266.83499    1174.3598    824.29413    9.4458797   0.21709031 
   40200   -286.25865    16.484155   -269.77449    1191.8409    2876.2756    9.5423733     0.186307 
   40300   -287.56746    18.628892   -268.93857    1346.9101    6318.4302    9.6548063   0.15096749 
   40400   -283.34289    19.896703   -263.44619    1438.5757    25312.801    9.7015843   0.22086809 
   40500   -283.98881     16.72897   -267.25984    1209.5416    11329.382    9.5692996   0.24141135 
   40600   -286.03369    16.108297    -269.9254    1164.6655   -11150.767     9.391134   0.22429559 
   40700   -285.27571    16.754088   -268.52162    1211.3576     -5024.83    9.4509591   0.21783623 
   40800   -283.65913    19.477191   -264.18194     1408.244   -3821.4865    9.3912379   0.23534108 
   40900   -286.28657    17.885543   -268.40102    1293.1644    10899.521    9.6630042    0.1804053 
   41000   -285.89043    16.811955   -269.07848    1215.5415    7223.4882    9.6008878   0.18428564 
   41100    -286.0044    18.412195   -267.59221    1331.2424   -12270.886    9.3885738    0.1872589 
   41200     -284.677    15.549791   -269.12721    1124.2843   -7218.0129    9.4170388   0.20635288 
   41300   -286.94618    14.478315   -272.46786    1046.8142    132.87026    9.5813491   0.16138605 
   41400   -286.18402    16.253558   -269.93046    1175.1682    11887.264    9.6634045   0.20045417 
   41500   -286.22295    19.122081   -267.10087    1382.5688   -1556.1048    9.5145116   0.17120814 
   41600   -288.63388    19.311243   -269.32264    1396.2456   -1101.5498    9.6193236   0.15650329 
   41700   -287.96894    16.581661   -271.38728    1198.8908    -10523.73    9.5005129    0.2012691 
   41800   -283.99895    16.324049    -267.6749    1180.2648   -10956.798    9.3279441   0.27113234 
   41900    -285.2209    18.964701    -266.2562    1371.1898    20123.049    9.7086688   0.22329283 
   42000   -286.22289    16.471543   -269.75135     1190.929    12375.785    9.6974303   0.16030619 
   42100     -289.522    17.008479   -272.51353    1229.7507   -7571.0819    9.6000438   0.16403555 
   42200   -285.53414    17.882997   -267.65114    1292.9803   -4124.9679    9.4661107    0.2147234 
   42300   -284.63242    16.987174   -267.64524    1228.2103   -8033.7262     9.387883    0.2349753 
   42400   -288.09916    17.643568   -270.45559     1275.669    -3985.332    9.5653385   0.18714754 
   42500   -289.14972     16.84164   -272.30808    1217.6878    7598.1479    9.7481815    0.1432951 
   42600   -285.90179    18.264584    -267.6372    1320.5698    9005.8241    9.6357083   0.17880777 
   42700   -284.91983    17.323441   -267.59639    1252.5231    -509.4878    9.4821545    0.2024408 
   42800   -285.95742    14.935453   -271.02197    1079.8663    1797.8776    9.5631388   0.22586296 
   42900   -286.50305    15.298178   -271.20487    1106.0921   -1360.0237    9.5535513   0.17591988 
   43000   -285.97033    18.886907   -267.08342    1365.5652    -1779.021    9.5261592   0.17356457 
   43100   -285.73322    15.764136   -269.96909    1139.7819    18226.194    9.7237261   0.17529561 
   43200   -287.86019    15.693076   -272.16711    1134.6441    1410.8932     9.631759     0.146009 
   43300   -284.88328    18.162188   -266.72109    1313.1664   -12692.684    9.3303121    0.2364537 
   43400   -283.06794    14.790504   -268.27743    1069.3861    5754.9059    9.4906837    0.2272678 
   43500    -287.0884    15.702008   -271.38639    1135.2899   -11313.249    9.4559254   0.21725866 
   43600   -283.72561    16.534934   -267.19068    1195.5123    9139.3268    9.5200406   0.24351019 
   43700   -285.59278    18.791288   -266.80149    1358.6517     4434.129    9.5354016   0.20965522 
   43800   -287.74565    17.682577   -270.06307    1278.4895     5184.862     9.668147   0.17062157 
   43900   -286.98502    16.119858   -270.86517    1165.5014    6220.6773    9.6466827   0.19849902 
   44000   -283.84171    17.908898   -265.93281    1294.8529   -14418.857    9.2697979   0.26189784 
   44100   -284.67512    16.414207   -268.26092    1186.7835    1794.0936    9.4735398   0.20929804 
   44200   -287.09984    17.521047   -269.57879    1266.8104    11490.818    9.6969187   0.18615942 
   44300   -284.11925    18.474874   -265.64438    1335.7742    11108.064     9.551637    0.2214035 
   44400   -284.03165    19.832077   -264.19957     1433.903   -16389.308    9.2573901    0.2403833 
   44500   -284.74142    16.542083   -268.19934    1196.0292   -15953.882    9.3094448   0.22211928 
   44600   -286.86319    17.505497   -269.35769    1265.6861    1750.6942     9.571789   0.16527911 
   44700   -290.32171    17.844048   -272.47766    1290.1641    -203.8131    9.7132729   0.15344848 
   44800   -289.72711    16.129661   -273.59745    1166.2102   -4810.4801    9.6299288   0.15886319 
   44900   -285.78739    16.716721   -269.07067    1208.6559   -2817.5291    9.5248286   0.23842387 
   45000   -286.70698     18.78293   -267.92405    1358.0474    7043.3665    9.6306565   0.19577719 
   45100   -286.54296    16.870757    -269.6722     1219.793   -5724.7224    9.4954757   0.20962233 
   45200   -290.20626    16.704994   -273.50127     1207.808   -9575.7269    9.6026041   0.14604041 
   45300   -284.65157    16.247802   -268.40376    1174.7521    11043.932    9.6205364   0.21602082 
   45400   -285.10364    16.775542    -268.3281    1212.9088   -4024.2526    9.4583515   0.20876392 
   45500   -286.30521    15.397693   -270.90751    1113.2873   -4429.1782    9.4869735   0.17917318 
   45600   -287.75495    14.810419   -272.94453    1070.8261    2066.4505    9.6319218    0.1735543 
   45700   -285.22889    17.445494    -267.7834    1261.3478     4999.979    9.5629639   0.19459493 
   45800   -285.58453    17.462435   -268.12209    1262.5726    976.40909    9.4929579   0.21796766 
   45900   -285.57548    17.143765   -268.43172    1239.5321   -13467.117    9.3805889   0.22297765 
   46000    -288.1038    14.444995   -273.65881    1044.4051   -7835.1192    9.5565106   0.17481777 
   46100   -288.42218    18.367883   -270.05429    1328.0386   -1986.3075    9.5940934   0.15484621 
   46200    -286.3475    17.936467   -268.41103    1296.8462    10363.984     9.655084   0.18302698 
   46300   -283.34743    17.616529    -265.7309     1273.714     19241.04    9.6508137   0.19284888 
   46400   -285.38182    17.193886   -268.18794     1243.156   -3581.1689    9.4724567   0.19186374 
   46500   -286.93085    16.239841   -270.69101    1174.1764   -2948.5671    9.5317801   0.18262704 
   46600   -285.86155    17.302355    -268.5592    1250.9985   -3545.9384    9.4707292   0.22441708 
   46700   -285.77281    18.502933   -267.26987     1337.803    6251.9824    9.5759246   0.19376885 
   46800   -289.36295    17.773808   -271.58915    1285.0856    11063.964    9.8097388   0.15643358 
   46900   -285.43656    17.145147   -268.29142    1239.6321    -10189.64    9.4072443   0.19506334 
   47000   -283.60278    17.124537   -266.47824    1238.1419   -17280.702    9.2675228   0.24926333 
   47100   -286.84639    16.294586    -270.5518    1178.1346   -3116.4869    9.5353143   0.20371541 
   47200   -286.30141     16.84347   -269.45794    1217.8201    16201.508    9.7174117   0.18001058 
   47300   -284.73869    18.043668   -266.69502    1304.5971    7645.7205    9.5610789   0.20671135 
   47400   -285.86602     15.12796   -270.73806     1093.785    2137.3338    9.5469857   0.21012501 
   47500   -286.74427    15.275787   -271.46848    1104.4732   -9789.1801    9.4646119   0.19905345 
   47600   -284.23853    17.569998   -266.66853    1270.3497   -2982.9908    9.4000575   0.22286472 
   47700   -286.19009    18.104865   -268.08523    1309.0218    21268.774    9.7815887   0.18562553 
   47800   -287.28719    17.038469   -270.24872     1231.919    9380.7341    9.7036156   0.14897987 
   47900     -283.947    18.231453   -265.71555    1318.1744   -3188.0451    9.3828178   0.22520958 
   48000   -283.76113    19.139794   -264.62133    1383.8495    -12595.93    9.2927416   0.23418639 
   48100    -286.6072    16.869899    -269.7373     1219.731    5223.8306    9.6036045   0.18519102 
   48200   -286.62528    18.300488   -268.32479    1323.1658    8495.5098    9.6261781   0.19165879 
   48300   -285.23079    19.601309   -265.62948     1417.218   -6362.5597    9.4029957   0.22487882 
   48400   -285.98613    16.296046   -269.69009    1178.2402   -5016.1815    9.4721966   0.18888114 
   48500   -288.37659    18.175224   -270.20136    1314.1089    -1376.293    9.5977104   0.16682964 
   48600   -285.32975    17.168753   -268.16099    1241.3388    17637.808    9.7031966   0.18943276 
   48700   -283.47353    17.984794   -265.48873    1300.3404    4342.2436    9.4570935   0.21279719 
   48800     -286.696    15.956766   -270.73924    1153.7095   -8819.4718    9.4702207   0.19994637 
   48900   -284.77745    14.210108   -270.56735    1027.4222    6694.1175    9.5434022   0.19730212 
   49000   -285.24738    16.190539   -269.05684    1170.6118    3272.2762    9.5388962   0.23492901 
   49100    -282.9481    15.934779   -267.01332    1152.1198   -5321.6892    9.3612129    0.2539197 
   49200   -286.08433    14.431025    -271.6533    1043.3951   -8499.8331    9.4512227   0.19256352 
   49300   -288.32422    17.141752   -271.18246    1239.3866    -1413.494    9.6222676   0.16362203 
   49400   -287.11167    19.454582   -267.65709    1406.6093    8543.8724    9.6593554   0.16534099 
   49500   -286.66783    19.997292   -266.67054    1445.8485    8255.6004    9.6415229    0.1752024 
   49600   -288.67542    17.534204   -271.14122    1267.7618    5352.0807    9.6889643   0.15806637 
   49700   -287.33835    17.014681   -270.32367    1230.1991    8107.3097    9.6559728   0.14471584 
   49800    -285.6028    18.633718   -266.96909     1347.259    7308.5089    9.5567768   0.20621266 
   49900   -282.63685    15.843724   -266.79313    1145.5363    2691.5348    9.4441882   0.23881689 
   50000   -288.21015    17.417361   -270.79279    1259.3137   -10284.065    9.5138546   0.16108448 
   50100   -286.34348    17.917119   -268.42636    1295.4473    1700.7764    9.5806522    0.1761581 
   50200    -284.4076    18.093494   -266.31411    1308.1997    7165.9258    9.5430696   0.21022382 
   50300   -287.61255    17.284483   -270.32807    1249.7063    56.212647    9.5879435   0.16278182 
   50400    -286.8321    15.211858   -271.62024     1099.851    1450.3598    9.5864817   0.21930805 
   50500    -285.0357    17.432321   -267.60338    1260.3954    3191.4805    9.5086192   0.20891943 
   50600   -286.96142    18.309225    -268.6522    1323.7975   -12805.465     9.412928   0.20168474 
   50700   -287.81263    15.347362   -272.46527    1109.6483    3358.5905    9.6304657   0.16843414 
   50800   -287.48962    19.252706   -268.23691    1392.0132    6183.2539    9.6312191   0.16965608 
   50900   -286.59646    19.715864    -266.8806    1425.5006   -15476.118    9.3662584   0.19571467 
   51000   -286.96304    16.470007   -270.49304    1190.8179   -13113.608    9.4378892    0.1708671 
   51100   -287.33903    16.196658   -271.14238    1171.0542    23911.712    9.8463903   0.13904769 
   51200   -286.72372    19.991052   -266.73266    1445.3973    6325.9507      9.62495   0.18868827 
   51300   -284.98716     18.29122   -266.69594    1322.4956    11691.525    9.6127913   0.18331239 
   51400   -286.05389    14.957956   -271.09594    1081.4933    -7283.877     9.474709   0.16456244 
   51500   -288.39153    16.742968   -271.64856    1210.5536   -12995.362    9.5113845   0.17308131 
   51600   -284.80079    17.672727   -267.12806    1277.7772    965.65724    9.4963763   0.21953904 
   51700   -285.44915    16.580041   -268.86911    1198.7736     10226.12    9.6183819   0.23593316 
   51800   -287.61489    15.468003   -272.14688    1118.3708   -4589.7408     9.552901   0.18762106 
   51900   -287.99515    16.001088   -271.99406     1156.914   -11885.085    9.4889932   0.18069306 
   52000    -285.8075    18.123301   -267.68419    1310.3548   -4791.7143    9.4686487   0.22805712 
   52100   -285.17045    17.001343   -268.16911    1229.2347    2857.6983    9.5211972   0.22638726 
   52200   -287.05678    19.860742   -267.19603    1435.9756    2653.4821    9.5680197   0.16449042 
   52300   -288.86775    17.057574   -271.81017    1233.3003   -9266.2462    9.5698893    0.1481977 
   52400   -288.52337    16.893913   -271.62946    1221.4673    3009.4323    9.6594671    0.1807042 
   52500   -287.07952    18.502114    -268.5774    1337.7438   -9043.1073    9.4694605   0.15967745 
   52600   -285.00065    16.521757    -268.4789    1194.5595   -3073.6912    9.4528847   0.19911074 
   52700   -284.76728    19.928715   -264.83856    1440.8901    -663.4077    9.4641543   0.22290457 
   52800   -282.46754    19.799231    -262.6683    1431.5282     20953.02    9.5960537   0.27927128 
   52900   -286.04454    17.449299   -268.59524    1261.6229    -57.85182    9.5368171   0.19266194 
   53000   -285.64331    16.168617   -269.47469    1169.0268   -3988.0485    9.4660103   0.20477791 
   53100   -285.88953    19.131527   -266.75801    1383.2517   -9969.4867    9.4084833   0.22334838 
   53200   -283.53121    18.648817    -264.8824    1348.3507   -3776.1206    9.3726084   0.28388661 
   53300   -286.71134    16.756088   -269.95525    1211.5022   -4726.1647    9.5109504    0.1953594 
   53400   -288.18389    18.524333   -269.65956    1339.3502   -12285.476    9.4678112   0.20944018 
   53500   -285.50599    20.272972   -265.23302    1465.7808    16832.382    9.6828236   0.17187534 
   53600   -285.79879    16.288219   -269.51057    1177.6742    8398.9968    9.6112275   0.17638028 
   53700   -286.84182    16.072005   -270.76982    1162.0415   -9048.2362    9.4806143   0.20045251 
   53800   -285.07625    18.773517   -266.30274    1357.3668   -6850.7331    9.4087045   0.20331702 
   53900   -289.57906    20.363456    -269.2156    1472.3229    -2568.091    9.6314844   0.16028415 
   54000   -287.65847    17.694817   -269.96366    1279.3744    16073.241     9.763832    0.1598733 
   54100   -285.41256    18.634971   -266.77759    1347.3496   -708.17287    9.4837757   0.20628365 
   54200   -285.25769    15.433795    -269.8239    1115.8975   -425.63212     9.490745   0.22939318 
   54300   -284.72491    13.520609    -271.2043    977.56994    6908.3153    9.5671613   0.20876721 
   54400   -283.50971     16.66557   -266.84414    1204.9576   -5445.8082    9.3485441    0.2298568 
   54500   -285.02945    15.978595   -269.05086    1155.2877   -6100.0348    9.4028544   0.27077236 
   54600   -286.59966    15.281766   -271.31789    1104.9055   -9021.1437    9.4665582   0.19785238 
   54700   -288.04296    17.485691   -270.55727    1264.2541    11399.914    9.7366005    0.1806874 
   54800   -285.14042    18.751521    -266.3889    1355.7765    4933.4297    9.5423037   0.21889826 
   54900   -285.09093    16.593338   -268.49759     1199.735    5982.3254    9.5506488   0.20037168 
   55000   -286.72825    17.178599   -269.54966    1242.0507    -5829.563    9.4911346   0.16993009 
   55100   -283.52017    18.916625   -264.60355    1367.7138   -6570.0006     9.307316    0.2467148 
   55200     -282.141    16.304096    -265.8369    1178.8222   -7751.3384    9.2854212    0.2678972 
   55300   -285.05909    16.457409   -268.60168    1189.9071   -5356.3778    9.4475347   0.22559619 
   55400   -286.17058    16.199375   -269.97121    1171.2507    2720.9976    9.5824752   0.24421304 
   55500   -282.37535    17.548431   -264.82692    1268.7904   -3185.8523    9.3402286   0.23553575 
   55600   -284.88972    17.816299   -267.07342    1288.1578   -3033.8355    9.4380057   0.23598708 
   55700   -285.72579    16.275203   -269.45058    1176.7332    15288.925    9.6787164   0.19268531 
   55800    -288.3207     16.79764   -271.52306    1214.5065   -4541.6978    9.5765449   0.18311003 
   55900    -285.9917    14.736278   -271.25543    1065.4655   -718.94269     9.521093   0.21132134 
   56000   -284.52988    17.173148   -267.35673    1241.6566   -2619.1617    9.4276392   0.24196941 
   56100    -285.7696     17.48084   -268.28876    1263.9034   -6350.5352    9.4342912    0.2176731 
   56200   -285.79237    17.861389   -267.93098    1291.4179    13424.533    9.6797536   0.19976608 
   56300   -286.57696    19.903994   -266.67296    1439.1028   -7275.3875    9.4693937   0.18608994 
   56400   -282.65295    21.907905   -260.74505      1583.99    2721.8379    9.3502472   0.28836009 
   56500    -283.4306    19.026214   -264.40438    1375.6373   -4510.4835    9.3609996    0.2603625 
   56600   -283.34362    15.774329   -267.56929    1140.5189   -5220.8002    9.3860434   0.24791527 
   56700   -285.83572    16.415919    -269.4198    1186.9073    -8139.747    9.4336372   0.21326633 
   56800    -286.7802     17.67208   -269.10812    1277.7305     1162.813    9.5778513   0.18488558 
   56900   -284.21112    20.981129   -263.22999    1516.9821    5258.0687    9.5218718   0.19298741 
   57000   -285.88836    18.482099   -267.40626    1336.2966     19769.45    9.7421644   0.17904824 
   57100   -285.23388    15.337147   -269.89673    1108.9097    5800.7317    9.5480048   0.20061093 
   57200   -285.48723    17.467276   -268.01995    1262.9227   -8555.8919    9.4129554    0.2146311 
   57300   -281.65444    17.149207   -264.50524    1239.9256   -3341.1506    9.2968862   0.30249351 
   57400   -285.28339    17.698865   -267.58453    1279.6671   -5041.7591    9.4408907   0.18872581 
   57500   -287.06709    16.748723   -270.31836    1210.9697    -5546.944    9.5022401   0.19462374 
   57600   -286.37814    17.710196   -268.66794    1280.4864    9092.1731    9.6560567   0.18502035 
   57700   -285.47018    19.882001   -265.58818    1437.5126    9975.5498    9.5860453   0.21376919 
   57800   -282.93737     16.49143   -266.44594    1192.3669   -4756.9884     9.347724   0.23811674 
   57900   -285.32304    14.324712   -270.99832    1035.7084   -1611.8827    9.4802366   0.19730289 
   58000   -285.34713    16.538117   -268.80901    1195.7425    2017.7552    9.5025943    0.1950296 
   58100   -285.11768    18.412121   -266.70556    1331.2371   -6117.7961     9.422971    0.1979916 
   58200   -291.30266    20.039351   -271.26331    1448.8894   -843.46643    9.7207093   0.14140327 
   58300   -287.12684    17.615866   -269.51097    1273.6661    14746.908     9.752626   0.15498752 
   58400   -283.76547    16.836851   -266.92862    1217.3416    3345.6743    9.4773035   0.23954688 
   58500    -284.4406    18.428833   -266.01176    1332.4454   -2175.0568    9.4217507   0.23466904 
   58600   -287.48475    17.639791   -269.84496    1275.3959   -6755.6779    9.5090756   0.20045537 
   58700   -285.59505    17.383661   -268.21139    1256.8771    147.88456    9.5005476   0.21227319 
   58800   -283.03475     18.45039   -264.58436     1334.004    6171.9254     9.444603   0.24835652 
   58900    -286.9264    17.586463   -269.33994    1271.5401    401.37472    9.5610018   0.15347798 
   59000   -287.66123     17.44613   -270.21509    1261.3938    2337.1383     9.625085   0.18065454 
   59100   -283.10922    17.527423    -265.5818    1267.2714     15348.93    9.5596345    0.2069171 
   59200   -285.66033    17.610384   -268.04995    1273.2697    7925.6701    9.5800388    0.1890328 
   59300   -285.21111    15.262745   -269.94836    1103.5302   -9286.3578    9.4293415   0.22143031 
   59400   -282.02074    16.180296   -265.84044    1169.8712     3279.935    9.4231821   0.25404383 
   59500   -284.01541      17.4477   -266.56771    1261.5073    12004.279    9.5678341   0.20993202 
   59600   -287.38307    16.919644   -270.46343    1223.3277   -1014.8652    9.5793221   0.17886139 
   59700   -284.86125    16.596501   -268.26475    1199.9637    5676.7059    9.5422536   0.22240098 
   59800   -283.97619    17.490178   -266.48601    1264.5785     10487.01    9.5513367   0.22480324 
   59900   -286.97053     15.32138   -271.64915    1107.7696   -127.21271    9.5867758   0.18827232 
   60000   -285.12345    15.507552    -269.6159    1121.2303     -10247.9    9.3838283   0.20898943 
   60100   -283.49142    16.574652   -266.91677     1198.384   -3175.6079    9.3819037    0.2370887 
   60200   -285.63278    15.106608   -270.52617    1092.2412    -542.8789    9.5080087   0.21986704 
   60300   -287.81684    16.263866   -271.55297    1175.9135     4787.529     9.659787   0.16750241 
   60400   -284.48767    18.483438   -266.00423    1336.3935    973.74552    9.4751201   0.22310003 
   60500   -285.90687    17.530298   -268.37658    1267.4793    6720.8558    9.5801168   0.20701758 
   60600   -286.52523    15.614868   -270.91036    1128.9895   -18493.769     9.375581   0.19962166 
   60700   -284.49126    18.355209   -266.13605    1327.1222   -11912.114    9.3069447   0.20539038 
   60800   -287.67514     20.12592   -267.54922    1455.1485    10106.666    9.6845283   0.16544984 
   60900   -287.01994    16.886646    -270.1333    1220.9418    9740.0329    9.6736437   0.17643865 
   61000   -284.79367    18.029182   -266.76449    1303.5497    973.37577    9.4903116   0.22220435 
   61100   -281.41909    17.229095      -264.19    1245.7016    -10550.83    9.2005561   0.32737364 
   61200   -286.76362    17.006037   -269.75758    1229.5741   -998.69191    9.5556473   0.18155335 
   61300   -286.24969    16.121064   -270.12863    1165.5886    20237.889    9.7723352   0.18717156 
   61400   -285.18642    18.523676   -266.66274    1339.3027   -4711.1687    9.4400928   0.20632657 
   61500   -284.84621    17.894598   -266.95162     1293.819    7554.2027    9.5327107   0.22468802 
   61600   -286.84747    14.707887   -272.13958    1063.4128    1851.7008    9.6182137   0.18337364 
   61700   -286.15336    16.606126   -269.54724    1200.6596     -14994.3    9.3810984   0.24290827 
   61800   -284.58362    16.991908   -267.59172    1228.5526   -18011.901     9.267892    0.2354397 
   61900    -286.6854    16.445269   -270.24013    1189.0293   -62.962765    9.5734401   0.21569032 
   62000    -287.9441    15.328715   -272.61538       1108.3    5983.2862    9.6821878   0.19155491 
   62100   -284.14811    16.827886   -267.32023    1216.6934   -6113.0205    9.3836378   0.22685735 
   62200   -284.62328    15.750558   -268.87273    1138.8002    1454.1158     9.467075   0.21320182 
   62300   -286.25652    16.226091   -270.03043    1173.1823    1531.5243    9.5647565   0.17051965 
   62400   -285.55979    16.792611   -268.76718    1214.1429    7498.4977    9.6086871   0.18305737 
   62500   -284.93269    19.785544   -265.14715    1430.5386   -1298.6433    9.4728565   0.22113638 
   62600   -286.44657    18.286986   -268.15959    1322.1896    -7826.304    9.4632119   0.22286992 
   62700   -285.71413    15.413136     -270.301    1114.4038   -19592.232    9.3208006   0.24240111 
   62800   -285.09529    17.901485    -267.1938     1294.317   -3815.6548    9.4352548   0.20593797 
   62900    -283.1925    16.561305   -266.63119     1197.419    8182.9187    9.5143987    0.2204097 
   63000    -287.4063    16.457972   -270.94833    1189.9478     1288.607     9.597795    0.1731821 
   63100    -285.4937    15.763008   -269.73069    1139.7003    2916.9278    9.5373306    0.1965862 
   63200   -283.16045    16.964532   -266.19592    1226.5732    134.01273    9.3938848   0.22208493 
   63300    -285.5696    16.035225   -269.53437    1159.3822   -19.575276     9.528242   0.22207465 
   63400   -287.27108     16.27267   -270.99841      1176.55    449.83392    9.6182007   0.16375963 
   63500   -286.94581    20.400252   -266.54556    1474.9834   -3205.8869    9.5279138   0.16040346 
   63600   -287.10032    20.167359   -266.93297    1458.1446    11173.037    9.6821573   0.17978605 
   63700   -288.72628    19.433455   -269.29282    1405.0818    6788.4599    9.6905641   0.16315239 
   63800   -287.17498    18.767674    -268.4073    1356.9444   -7356.3172    9.5008014   0.19724813 
   63900   -283.76883    19.268783   -264.50005    1393.1757   -4015.9782    9.3870063   0.23170591 
   64000   -284.52701    16.980716   -267.54629    1227.7434   -216.99182    9.4561069   0.24039398 
   64100   -285.29313     15.02931   -270.26382    1086.6523   -2611.0135    9.4674193   0.20357345 
   64200   -286.79998    16.227192   -270.57279    1173.2618    500.59355    9.5719817    0.1704691 
   64300    -282.4415    17.400978   -265.04052    1258.1292    24147.363    9.6563277   0.22954193 
   64400   -286.06756    17.902068   -268.16549    1294.3591   -854.58392     9.507919   0.19701682 
   64500   -285.92223    14.607739   -271.31449    1056.1718   -11165.891    9.4234452   0.20318695 
   64600   -285.49542    17.630971   -267.86445    1274.7582   -13864.615    9.3583993    0.2368356 
   64700   -285.17354    18.538865   -266.63467    1340.4009    6454.9855    9.5918917   0.21121576 
   64800   -287.47185    18.036785   -269.43507    1304.0995    18106.934    9.7991946   0.15571951 
   64900   -285.94977    15.592764   -270.35701    1127.3913    5696.7887    9.5958999   0.18990475 
   65000   -283.40956    18.251892   -265.15766    1319.6521    -11474.51    9.2654176   0.24921566 
   65100   -284.82684    17.604439    -267.2224    1272.8399   -1873.1044    9.4531341   0.22127979 
   65200    -285.8046    16.335922   -269.46868    1181.1233    1168.0658    9.5269751   0.20493681 
   65300   -286.46359    15.794167   -270.66943    1141.9532   -12919.412    9.4154668   0.20616996 
   65400   -282.84173    17.683551   -265.15818    1278.5599   -5759.6787    9.3519696   0.25611422 
   65500    -285.7329    18.842293   -266.89061    1362.3395    6127.7528    9.5847145   0.19162733 
   65600   -289.05372    18.819867   -270.23385     1360.718    4424.0728    9.7022377   0.15240405 
   65700   -286.43195    17.325375   -269.10658    1252.6629    -2461.517    9.5284582   0.19840579 
   65800   -281.45298    16.081774   -265.37121    1162.7478   -8056.3041    9.2276859   0.30526724 
   65900   -285.36963    15.843482   -269.52614    1145.5188   -10569.757    9.3915173    0.2502505 
   66000   -285.78338    15.878053   -269.90533    1148.0183   -7499.1293     9.446155   0.25756988 
   66100   -282.12634    15.830682   -266.29566    1144.5933    6964.7319     9.496168   0.23529381 
   66200   -284.72691    15.022431   -269.70448     1086.155    4483.2156    9.5596605    0.1953934 
   66300   -286.87874    16.035101   -270.84364    1159.3733     -11993.4    9.4497772   0.20485678 
   66400   -284.16785    17.392762   -266.77509    1257.5352   -648.50829     9.456142   0.22363622 
   66500   -286.53609     17.94944   -268.58665    1297.7842   -4274.4208    9.5043845   0.19504034 
   66600   -289.24851    17.678548   -271.56997    1278.1981   -11175.402    9.5421487   0.17055311 
   66700     -286.238    19.184231   -267.05377    1387.0623    6952.5025    9.6015136   0.20214088 
   66800   -285.23408    19.382157   -265.85192    1401.3728    15330.131    9.6717324   0.25112291 
   66900   -286.48434    18.737801   -267.74654    1354.7844    8472.3487    9.6286451   0.19764013 
   67000   -286.39802    16.642612   -269.75541    1203.2977   -721.81721     9.557883   0.19993386 
   67100    -283.9621    18.347043   -265.61506    1326.5318   -18523.014    9.2424362   0.25550637 
   67200   -282.42209    15.660777   -266.76132    1132.3088    1674.3406    9.3882511   0.24293828 
   67300   -287.28054     17.86683   -269.41371    1291.8114    1653.4493    9.6023589   0.20462256 
   67400   -284.92369     16.78435   -268.13934    1213.5456    19187.017    9.7031382   0.21839995 
   67500   -284.09087    19.980941   -264.10992    1444.6663   -6140.3507    9.3740846   0.25411189 
   67600   -285.27697    17.421494   -267.85547    1259.6125   -7325.0066    9.4130437   0.21390578 
   67700    -286.6554    16.323071   -270.33233    1180.1942   -58.673531    9.5636592   0.20066906 
   67800   -285.14938    16.508793   -268.64059    1193.6222    992.79243    9.5324429   0.17900687 
   67900   -282.54525    19.166393   -263.37886    1385.7726    8877.6557     9.470824   0.23148672 
   68000   -283.68261    18.128856   -265.55375    1310.7564    13657.011    9.5692702   0.20604704 
   68100   -284.95689    16.893688   -268.06321     1221.451    25978.646    9.7924636    0.1467213 
   68200   -287.32748    18.173445   -269.15403    1313.9803   -4289.2403    9.5169751   0.16747096 
   68300   -283.22713    18.440355   -264.78678    1333.2785   -19868.659    9.1742337   0.22985036 
   68400   -283.18891    17.079161   -266.10975    1234.8611   -7327.6646    9.3336069   0.29296425 
   68500    -286.2355     16.90953   -269.32597    1222.5964    7586.7736    9.6339569   0.19282524 
   68600   -285.62636     15.02223   -270.60413    1086.1405    319.73942    9.5414732    0.2242574 
   68700   -285.33589    19.571181   -265.76471    1415.0397   -13976.966    9.3428346   0.22146521 
   68800   -284.10568    18.272311   -265.83337    1321.1285    15060.894    9.6167703   0.21125698 
   68900   -286.96388    17.173919   -269.78996    1241.7123    4103.8064    9.6272622   0.20151776 
   69000   -286.65961    16.046363   -270.61325    1160.1875   -7982.2277    9.4905641   0.19821824 
   69100   -282.92215    17.423867   -265.49828    1259.7841   -1726.0662    9.3882178   0.26504988 
   69200   -286.52125     20.15959   -266.36166     1457.583     4908.433    9.5792807   0.19718149 
   69300   -287.14639    17.438115   -269.70827    1260.8143   -9913.9436    9.4649984   0.21144412 
   69400   -285.47521    17.161463   -268.31375    1240.8118   -1688.0109    9.4908257   0.19869159 
   69500   -284.14321    18.724842   -265.41836    1353.8475   -7091.3281    9.3576408   0.21605695 
   69600    -282.0742    18.157779   -263.91642    1312.8476    8519.8344    9.4352262   0.26082224 
   69700   -286.01543    16.638127    -269.3773    1202.9734    13702.511    9.6991393   0.16146735 
   69800   -286.34124    17.487527   -268.85372    1264.3869    15941.046    9.7129698   0.16812079 
   69900   -287.90359    18.892046   -269.01154    1365.9367    -6237.704    9.5152428   0.18275152 
   70000   -286.72054    17.435486   -269.28506    1260.6242   -25104.827    9.2769811   0.20611243 
   70100   -282.65333     18.10587   -264.54746    1309.0945   -8901.2302     9.273891   0.31363272 
   70200   -284.84108    17.132445   -267.70863    1238.7137     19549.55    9.7078985   0.20617958 
   70300   -286.43305     17.12058   -269.31247    1237.8558    2895.9882    9.5825449   0.17198618 
   70400   -285.33376    16.517625   -268.81613    1194.2608   -3069.8402    9.4775314   0.20213867 
   70500   -279.39843    16.140173   -263.25826    1166.9702   -3671.4764    9.2042138   0.28002924 
   70600    -283.8333    16.982217   -266.85108    1227.8519    3608.2676    9.4708693   0.23552706 
   70700   -286.46547    18.099413   -268.36605    1308.6276   -930.04856    9.5178459   0.20347248 
   70800   -288.73429    19.690492    -269.0438    1423.6661   -7168.8776    9.5442066   0.15982772 
   70900   -285.26473     20.11096   -265.15377    1454.0669    17572.885    9.6769711   0.17968006 
   71000    -282.6937    16.511417   -266.18229     1193.812    6398.8835    9.4801373   0.23681559 
   71100   -286.04074     16.84629   -269.19445     1218.024   -12902.555    9.3898645   0.20383505 
   71200   -285.20072    14.507483   -270.69324    1048.9231    4681.9282    9.5484762   0.21237539 
   71300   -281.76615    16.146168   -265.61998    1167.4037    1564.9558    9.3720416   0.26370719 
   71400   -284.40289    17.963238   -266.43965    1298.7818   -10775.226    9.3292931   0.22899718 
   71500   -285.99477    16.742168   -269.25261    1210.4958    2391.2692    9.5762017   0.21542948 
   71600   -286.96711    18.645993   -268.32111    1348.1465   -539.86349    9.5518474   0.18128003 
   71700   -281.16905    18.232571   -262.93648    1318.2552   -5574.2504    9.2322205   0.25118929 
   71800   -284.66779    17.310832   -267.35696    1251.6114   -321.90636    9.4673541   0.19795778 
   71900   -285.79983    17.204998   -268.59483    1243.9594    3839.9058    9.5514221   0.19740228 
   72000   -285.80375    15.972793   -269.83096    1154.8683   -1.8447503    9.5136905    0.2192428 
   72100   -288.66143    14.948597   -273.71283    1080.8167    6053.9135    9.7320527   0.15131051 
   72200   -287.86245    17.730468   -270.13198    1281.9521    12431.745    9.7222348   0.14888527 
   72300   -284.56685    15.768351    -268.7985    1140.0867     5968.249     9.544319   0.19695851 
   72400   -285.09699    16.937253   -268.15974    1224.6009   -9067.8348    9.3812465   0.19652679 
   72500   -287.37321    16.030731   -271.34247    1159.0573   -10252.723    9.4742747   0.16856769 
   72600   -288.87053    16.666519   -272.20401    1205.0262    4327.0325    9.6942204   0.13646905 
   72700   -286.66677    18.439126   -268.22764    1333.1896    5613.8204    9.6166178   0.19234675 
   72800   -284.83718    18.058935   -266.77824    1305.7009    8061.8467    9.5883119   0.18724341 
   72900   -286.90051    15.358339   -271.54217    1110.4419   -5640.3101    9.5166392   0.16485709 
   73000   -284.72267    14.297018   -270.42565    1033.7061    15202.877    9.6562905   0.17314025 
   73100   -283.40611    16.506453   -266.89966    1193.4531    8951.0858    9.4916948   0.20388262 
   73200   -286.78833    17.808916   -268.97941     1287.624   -4429.7996    9.4990635   0.21448038 
   73300    -287.8151    15.557437   -272.25766    1124.8371   -7173.2581     9.532615   0.17051999 
   73400    -284.3657    16.971757   -267.39394    1227.0956    3952.2878    9.5028434   0.23476981 
   73500   -285.27796    17.148902   -268.12906    1239.9035    10704.429    9.6178193   0.19044783 
   73600   -286.50607    16.214166    -270.2919    1172.3201   -4130.2913    9.5228689    0.2138651 
   73700   -283.20581    16.888148   -266.31766    1221.0505   -17353.875    9.2287803    0.2745916 
   73800   -285.68866    19.256023   -266.43264    1392.2531    4447.2654    9.5735963   0.21437638 
   73900   -287.32689    17.983815   -269.34307    1300.2696    3233.3388     9.631152   0.17292093 
   74000   -287.23801    16.612284   -270.62573    1201.1049   -729.84548    9.5991573   0.18701607 
   74100   -284.58091    19.226512   -265.35439    1390.1194   -2256.8847    9.4335855   0.21305828 
   74200   -286.22815    18.884688   -267.34346    1365.4047   -9140.9557    9.4473762   0.18685071 
   74300   -287.64131    17.471782   -270.16953    1263.2485    630.00221    9.5963944   0.20332574 
   74400   -284.35155    18.012262   -266.33929    1302.3264   -1005.6455    9.4284624   0.25155979 
   74500   -281.50881    14.946928   -266.56188     1080.696   -16556.754    9.1865958   0.27971479 
   74600   -285.09894    14.316421   -270.78252    1035.1089   -11016.997    9.3884448   0.24390582 
   74700    -286.3817    17.959238   -268.42246    1298.4927    2130.8617    9.5568002   0.20428114 
   74800   -283.29294    18.630528   -264.66241    1347.0284    6742.7511    9.4901142   0.23148253 
   74900   -285.07469    16.245487    -268.8292    1174.5846    3383.4235    9.5186878   0.24558532 
   75000   -286.14129     16.45259    -269.6887    1189.5587   -8768.6664    9.4489205   0.20938807 
   75100   -285.45813    18.906151   -266.55198    1366.9566   -1723.5345    9.4892791   0.20634525 
   75200   -284.57649    18.701291   -265.87519    1352.1447    14548.054    9.6065036   0.19580458 
   75300   -286.85747    16.021069    -270.8364    1158.3587     121.5985    9.5683749   0.18868027 
   75400   -284.46777    16.272994   -268.19477    1176.5735    2433.6268    9.4981981   0.21278856 
   75500   -283.69598    16.344171   -267.35181    1181.7197    4678.8468    9.4748711   0.25756469 
   75600   -289.81425    17.312236   -272.50201    1251.7129   -1895.0249    9.6487908   0.14496169 
   75700   -287.74712    16.898319    -270.8488    1221.7859   -1318.7858    9.5870156   0.15601857 
   75800   -284.93289    16.840515   -268.09237    1217.6065    12292.775    9.6084686   0.20837783 
   75900   -283.66522     18.11717   -265.54805    1309.9115   -3282.4824    9.3852607   0.24462035 
   76000   -285.99821    15.928482   -270.06973    1151.6644   -7519.8949    9.4499272   0.15936221 
   76100   -288.28245    17.423389   -270.85906    1259.7496    18388.405    9.8354613   0.14982228 
   76200   -285.45338    18.579892   -266.87349    1343.3673    9756.8053    9.5916059   0.19171917 
   76300   -286.35513     17.75347   -268.60166    1283.6151   -7848.6705    9.4506796   0.17146415 
   76400    -288.9562    17.363604    -271.5926     1255.427    -11318.25    9.5228227   0.17865505 
   76500   -285.54308     18.28232   -267.26076    1321.8522    5612.4598    9.5632772   0.20639531 
   76600   -283.67594    16.699801   -266.97614    1207.4326    2797.1119    9.4879633   0.24865446 
   76700   -285.92684    14.971353   -270.95548    1082.4619    9528.5733    9.6365731   0.18650486 
   76800   -288.55533    17.606621   -270.94871    1272.9977   -572.79687    9.6318916    0.1670691 
   76900   -282.85546    16.056529   -266.79893    1160.9226    11525.685    9.5123944    0.2258384 
   77000   -285.03657    18.155459   -266.88111    1312.6798   -10358.208    9.3513635   0.22887198 
   77100   -288.75647    16.961066    -271.7954    1226.3226   -13118.576    9.5096444   0.16156517 
[...]
  481400   -286.88587    16.582603   -270.30327    1198.9589    4666.0238    9.5978024   0.20837068 
  481500   -285.88071    17.347554   -268.53315    1254.2665    354.68285    9.5179066   0.17463445 
  481600   -287.29042    17.501722    -269.7887    1265.4132   -20334.562    9.3425375   0.21279247 
  481700    -287.8423    15.167686   -272.67461    1096.6572   -1989.5425    9.6004846     0.172352 
  481800   -289.46025     15.31591   -274.14434    1107.3742    11198.808    9.8207297   0.13980156 
  481900   -288.49149    18.266957   -270.22453    1320.7414   -4714.6125     9.568108   0.15696744 
  482000   -285.99472    17.343817    -268.6509    1253.9963    -2479.668    9.5001194   0.20446151 
  482100   -285.08894    17.156199   -267.93274    1240.4311   -13815.958    9.3267717   0.24404377 
  482200   -282.54956    20.100389   -262.44917    1453.3026    688.36303    9.3810508    0.2124658 
  482300   -284.96336    19.751417   -265.21194    1428.0712    7416.5849    9.5552523   0.20120254 
  482400   -285.38646    16.757055   -268.62941    1211.5721   -1875.3477    9.4947073   0.20034488 
  482500   -287.19397    18.682091   -268.51188    1350.7565    -5032.703    9.4928726   0.17465289 
  482600   -285.91132    16.930936   -268.98038    1224.1441    4819.4139    9.5687953   0.22532272 
  482700    -280.0962    17.577553   -262.51865     1270.896    2759.8464    9.2854215   0.28665566 
  482800   -284.14441    18.708067   -265.43634    1352.6346   -9084.4756    9.3537353   0.25886567 
  482900   -285.61972    17.111282   -268.50844    1237.1835    757.28798     9.516956   0.20261529 
  483000   -286.99459    17.050813   -269.94378    1232.8115    10509.191    9.7194065   0.16254949 
  483100   -288.29535    16.504721   -271.79063    1193.3278    10116.642      9.74878   0.12770363 
  483200   -289.29302    15.826643   -273.46637    1144.3013    10528.276    9.8128746    0.1370768 
  483300   -287.23628    18.894221   -268.34206     1366.094    6679.5757    9.6494071   0.16506681 
  483400   -287.32289    18.350305   -268.97258    1326.7676    -6193.667    9.5056057   0.17633536 
  483500   -287.39832    18.567444   -268.83087    1342.4673   -10279.747    9.4612576   0.16399501 
  483600   -286.60604    17.735685   -268.87036    1282.3293    12485.284    9.7133585   0.17759197 
  483700   -284.33183    19.964554   -264.36728    1443.4814    13625.279    9.6177704   0.18449101 
  483800   -284.08944    16.778976   -267.31047    1213.1571    -11393.73    9.3308167    0.2492953 
  483900   -284.87019    15.876076   -268.99411    1147.8754    86.840829    9.4788478   0.21263509 
  484000   -285.09552    17.864519     -267.231    1291.6442    5118.7206    9.5721397   0.19666705 
  484100   -283.87433     22.01577   -261.85856    1591.7889   -261.04411    9.3836635   0.22566914 
  484200   -286.74315      19.4866   -267.25655    1408.9243    9437.5361    9.6538488   0.15883527 
  484300   -287.03981    18.316788   -268.72302    1324.3443    1236.5457    9.5512853   0.18730251 
  484400   -285.45063    17.136378   -268.31425     1238.998    -3638.678    9.4753532   0.20983811 
  484500   -285.21846    18.555717   -266.66274    1341.6194    12595.227    9.6283995   0.18482792 
  484600   -281.12478    17.798654   -263.32612    1286.8821    7849.8593    9.3993375   0.28449703 
  484700   -286.36069    17.776084   -268.58461    1285.2502    4237.3804    9.5880153   0.16138665 
  484800   -286.74203    16.574837    -270.1672    1198.3974    11784.058    9.6603923   0.16979811 
  484900   -284.38802    17.148972   -267.23905    1239.9086   -6265.7895    9.3825248   0.23694063 
  485000   -283.31904    18.843335    -264.4757    1362.4148   -13708.014    9.2547504   0.27948037 
  485100   -286.20067    16.848759   -269.35191    1218.2026    4158.3076    9.5866102   0.20358324 
  485200   -287.78594    18.027554   -269.75839     1303.432    624.31554    9.6029132   0.16692234 
  485300   -285.80473    17.953569   -267.85116    1298.0827    2352.0371    9.5490986   0.16964528 
  485400   -285.18514    20.624241    -264.5609    1491.1782   -3470.8081    9.4274165   0.20257965 
  485500   -286.63903    18.463566   -268.17546    1334.9567   -5157.9537    9.5006414   0.18650576 
  485600   -287.37849    17.430396    -269.9481    1260.2562    4159.0309    9.6326832   0.19096403 
  485700   -286.57303    19.502171   -267.07086    1410.0501    1269.6355    9.5639635   0.16394161 
  485800    -280.8284     15.96505   -264.86335    1154.3084   -3852.0485    9.2756983   0.32907272 
  485900   -286.78452    16.700677   -270.08385    1207.4959   -12739.732    9.4460178   0.17522759 
  486000   -286.62792    16.391575   -270.23634    1185.1471    12931.952    9.7097567   0.19542232 
  486100   -283.93793    16.966023   -266.97191     1226.681    16602.962    9.6501683   0.18649606 
  486200   -283.36008    16.512569   -266.84751    1193.8953    5846.2795    9.4951345   0.21266108 
  486300   -288.23105    15.701657    -272.5294    1135.2645   -189.70972    9.6230483   0.17101695 
  486400   -286.48641    15.999411     -270.487    1156.7928    7005.5957    9.6223069   0.16382817 
  486500   -286.92316    18.271418   -268.65174     1321.064    7748.4959    9.6367361   0.18088567 
  486600   -284.03497     17.87013   -266.16484    1292.0499   -3662.6639    9.4099028   0.22929674 
  486700   -281.90902    16.853677   -265.05535    1218.5581    -17172.62    9.1556534   0.26060101 
  486800    -287.3662    16.968557   -270.39764    1226.8642   -6462.7232    9.5275933   0.19295754 
  486900   -285.12489    16.183479   -268.94141    1170.1013   -3849.7879    9.4487982   0.21970149 
  487000   -285.47573    17.744353   -267.73138     1282.956    1198.7624    9.5124102   0.17549798 
  487100    -287.4566    16.516908   -270.93969     1194.209    22768.883    9.8406498   0.13923825 
  487200   -288.36048    15.924204   -272.43628    1151.3552    998.51923     9.640643   0.14188682 
  487300   -286.36756    18.362467   -268.00509     1327.647   -8134.7903    9.4484022   0.20586487 
  487400   -285.62396    16.706207   -268.91775    1207.8957    457.77605     9.542638    0.2206274 
  487500    -288.2261    16.143133   -272.08296    1167.1843    7840.0734    9.7168951   0.15032701 
  487600   -288.38016    14.958534   -273.42163    1081.5351    3229.2631    9.6771123   0.15893412 
  487700    -285.9441    16.988872   -268.95523     1228.333    2199.4807    9.5647559   0.19806364 
  487800   -287.34824    19.109763   -268.23848    1381.6782   -136.57656    9.5843445   0.17400451 
  487900   -287.26262    17.166122    -270.0965    1241.1486    3724.4948    9.6233916   0.16361549 
  488000   -289.29792    15.526407   -273.77151    1122.5936   -1343.5112    9.6657862   0.14653062 
  488100   -284.86156    16.051958    -268.8096     1160.592   -3733.0786    9.4638375   0.18124224 
  488200   -284.68933    15.672078   -269.01725    1133.1259    3616.9223     9.534578   0.21901567 
  488300   -285.80241     16.11657   -269.68584    1165.2637   -4486.5643    9.4732813   0.24587324 
  488400   -286.85059     13.96539    -272.8852    1009.7286   -10441.287    9.4770436   0.20021474 
  488500   -289.97815    17.043787   -272.93436    1232.3035    7976.6767    9.7819214   0.14431666 
  488600   -286.49764     17.03833   -269.45931    1231.9089    8988.4702    9.6692326   0.18593744 
  488700   -286.56885    18.095491   -268.47336    1308.3441   -4411.2621    9.4770644   0.19848893 
  488800   -285.52782     16.81336   -268.71446    1215.6431    -3698.799    9.4663329    0.1936963 
  488900   -288.61619    14.687655   -273.92853      1061.95    6358.7511    9.7247722   0.13920251 
  489000   -287.36788    16.777266   -270.59061    1213.0334   -7782.9583    9.4880628   0.18315634 
  489100   -286.43061    17.592293   -268.83832    1271.9617    2103.2659    9.5526365   0.19492137 
  489200   -287.07256    17.602843   -269.46972    1272.7245    2247.6803    9.5799448   0.20931972 
  489300   -288.66039    15.360187    -273.3002    1110.5755   -6091.4549    9.5878091   0.16293811 
  489400   -286.57059    16.149431   -270.42116    1167.6396    3116.4085    9.5829714   0.16952248 
  489500   -287.36635    19.095783   -268.27057    1380.6673    6672.9342    9.6556542   0.13927414 
  489600   -287.69185     19.63753   -268.05432    1419.8369    24420.742    9.8486746   0.12941868 
  489700     -287.942    20.095216   -267.84678    1452.9286   -150.27927    9.5853973   0.15190329 
  489800   -285.96321    16.860972   -269.10224    1219.0856   -9549.2717    9.4127916   0.19317681 
  489900   -287.62796    15.233164   -272.39479    1101.3915   -14898.764    9.4601621   0.16118885 
  490000    -287.5363    18.543045   -268.99326    1340.7031   -3501.0904     9.547637   0.17861275 
  490100   -285.61533    17.679686   -267.93564    1278.2804    3179.7972     9.550946    0.2147933 
  490200    -287.0041    16.811471   -270.19262    1215.5065   -3591.0797    9.5468824   0.19585793 
  490300   -287.70668    14.563121   -273.14356    1052.9458   -13172.909    9.4878896    0.1588092 
  490400   -286.04531    16.705416   -269.33989    1207.8385   -4823.0279    9.4889543    0.1812176 
  490500     -286.731    18.908548   -267.82245    1367.1298     1083.961    9.5595401   0.15314731 
  490600   -286.43635    16.479131   -269.95722    1191.4776    4140.8029    9.5995614   0.16666788 
  490700   -291.42901    17.294677   -274.13433    1250.4434    660.04809    9.7752147   0.12667622 
  490800   -285.40049    15.756968   -269.64352    1139.2636   -7504.0416    9.4248882   0.17700514 
  490900   -284.60332     15.80575   -268.79757    1142.7907   -12937.096    9.3125127   0.21417466 
  491000   -284.88431    15.770485   -269.11382     1140.241    514.90267    9.4907561   0.21432703 
  491100   -288.13786    14.700766   -273.43709    1062.8979    17167.411    9.8264612   0.16612111 
  491200   -287.37169    17.643105   -269.72859    1275.6355   -7151.3369    9.5042783   0.18122012 
  491300   -284.53297     15.76271   -268.77026    1139.6788   -4894.1718    9.4009681   0.20695647 
  491400   -287.53201    17.086167   -270.44585    1235.3677   -633.42677    9.5777528   0.16510569 
  491500   -288.66693    14.419612   -274.24732    1042.5698    14710.101    9.8107789   0.16629978 
  491600   -285.03395    15.223259   -269.81069    1100.6753    -4537.613    9.4448302   0.20427444 
  491700   -284.25972    15.802598   -268.45712    1142.5628   -9129.7043    9.3512108   0.22050872 
  491800   -285.43723     18.10514   -267.33209    1309.0417     7640.938    9.5600921   0.18707736 
  491900   -282.53468    19.690046   -262.84463    1423.6339    10865.647    9.5093219   0.28061522 
  492000   -285.90077     20.03508   -265.86569    1448.5806    10036.003    9.6206567   0.16683423 
  492100   -285.38431    17.342861   -268.04145    1253.9272    9075.3721    9.5974409   0.17278486 
  492200   -285.25298    16.828947   -268.42403    1216.7701    30.741931    9.4908294   0.18140261 
  492300   -288.12537    17.251688   -270.87369    1247.3352   -11401.906    9.4721418   0.15673324 
  492400   -288.47975    15.545871   -272.93388    1124.0009    873.14321    9.6291678   0.17560502 
  492500   -287.96264    20.206235   -267.75641    1460.9555    7096.6477    9.6530076   0.15240562 
  492600   -286.39956    17.213441   -269.18612    1244.5699    1987.6138     9.562626   0.18193561 
  492700   -284.89078    15.363997   -269.52678     1110.851    -10464.36    9.3594055   0.23400917 
  492800   -281.48759     17.68837   -263.79922    1278.9083   -10385.075    9.1769837   0.31754908 
  492900   -284.15675    18.135468   -266.02128    1311.2345   -671.87208     9.426187    0.2395288 
  493000   -285.00704    15.446599   -269.56044    1116.8233   -702.53955    9.5187382   0.21025723 
  493100   -285.62345     16.49021   -269.13324    1192.2787    10075.695    9.6248264   0.19372591 
  493200   -283.26448    19.154977    -264.1095    1384.9472    5166.8188    9.4640845   0.21656493 
  493300   -286.33897    18.337894   -268.00108    1325.8703    3795.1933    9.5991302   0.17721995 
  493400   -287.09006    17.285823   -269.80424    1249.8033    12654.874    9.7343582   0.18533788 
  493500   -286.35222    17.858686   -268.49354    1291.2225   -16999.431    9.3597527   0.21013347 
  493600   -279.90628    16.073627   -263.83265    1162.1588    939.98875    9.2988363   0.29166287 
  493700   -284.44168    18.090983    -266.3507    1308.0181    1958.7372    9.4720786     0.232145 
  493800   -287.92791    18.388479   -269.53943    1329.5277   -1231.7755    9.5929964   0.18075098 
  493900   -286.96095    18.851434   -268.10952    1363.0003    12135.943    9.6829276   0.17450565 
  494000   -282.35113    17.728407   -264.62272     1281.803   -4309.8509     9.337329   0.26361145 
  494100   -283.29889    15.684965   -267.61392    1134.0577   -12153.007    9.2554616    0.2455543 
  494200   -284.27548    14.270634   -270.00484    1031.7984   -6106.5984    9.4027412   0.23720082 
  494300   -285.67115    16.998063   -268.67308    1228.9976   -410.19202    9.5049965   0.24455929 
  494400   -285.17215    19.014541   -266.15761    1374.7934   -2157.9981    9.4474888   0.20355236 
  494500   -286.35743    15.923747   -270.43368    1151.3221    200.83112    9.5419972   0.18214497 
  494600   -286.86353    17.102747   -269.76078    1236.5665    839.09059    9.6069519   0.16393708 
  494700   -284.02031    19.593832   -264.42648    1416.6774    6012.6812    9.5105298   0.24561202 
  494800     -284.735    17.169818   -267.56519    1241.4159   -1623.5804    9.4648377   0.19737322 
  494900   -286.83754    16.883732   -269.95381    1220.7312     2413.342    9.5887124   0.16825822 
  495000   -287.05411    18.060236   -268.99387     1305.795   -1367.1793    9.5555373   0.16797133 
  495100   -283.61432    19.183739   -264.43058    1387.0267   -11755.046    9.3025405   0.26614461 
  495200   -286.77987    17.483483   -269.29639    1264.0945   -13946.444    9.4069384   0.20871084 
  495300   -285.81819    16.381182     -269.437    1184.3957   -10111.508    9.4220911   0.20851456 
  495400   -285.27682    19.357233   -265.91958    1399.5708    11751.664    9.6079579   0.21530097 
  495500   -285.42589    20.383321   -265.04257    1473.7592    10215.568    9.6077316   0.17339408 
  495600   -286.89094     17.78647   -269.10447    1286.0011     4331.744    9.6160065   0.16641412 
  495700   -285.17978    16.199722   -268.98005    1171.2757    553.09488    9.4987823   0.22684814 
  495800   -283.95615    16.258415   -267.69774    1175.5193   -11808.523    9.3120661   0.27595417 
  495900   -286.48215    16.719872   -269.76228    1208.8837    5524.8004    9.5977243   0.19394009 
  496000    -288.9409    15.887283   -273.05362    1148.6857    9321.3903    9.7578907   0.15535432 
  496100   -286.87111    17.918808    -268.9523    1295.5695   -40.985539    9.5764881   0.17648335 
  496200   -286.71093    18.369159   -268.34177    1328.1309    -3253.962     9.513523   0.18127986 
  496300    -285.0551    17.665528   -267.38957    1277.2568    6977.6595    9.5744818   0.18311218 
  496400   -282.70458    18.286106   -264.41847    1322.1259    11139.539    9.5193725   0.20993853 
  496500   -287.77853    18.413459   -269.36507    1331.3338   -3748.0221     9.559201    0.1664043 
  496600   -286.77979    17.306444   -269.47335    1251.2942   -7929.4379    9.4700982   0.21302262 
  496700   -282.49569    17.762799   -264.73289    1284.2897    6486.2698    9.4613822   0.22528189 
  496800   -285.10174    17.021103   -268.08064    1230.6634    7926.8876    9.5957487   0.22002986 
  496900    -287.5593     17.28352   -270.27578    1249.6367    13237.813     9.750727   0.14964943 
  497000   -285.12788    16.865517   -268.26236    1219.4142   -2563.4512    9.4729523   0.21873168 
  497100   -284.06528    18.192768   -265.87252    1315.3774   -15184.505    9.2959772   0.21486963 
  497200   -286.48183    17.343365   -269.13847    1253.9636    1215.9021    9.5477432   0.16940232 
  497300   -286.26022    15.163872   -271.09634    1096.3815    10450.647     9.661096   0.16516553 
  497400   -285.14436    18.886846   -266.25752    1365.5608   -1188.0353    9.4811701   0.19662671 
  497500   -284.90848    18.067511   -266.84097     1306.321    3956.1382    9.5221926   0.19415315 
  497600   -287.85909    17.080306   -270.77879    1234.9439    6778.3756    9.6855457   0.13913279 
  497700   -285.95827    16.910114   -269.04816    1222.6386    5793.3124    9.6106456   0.20180369 
  497800    -285.1758    18.677594    -266.4982    1350.4313   -14374.901    9.3055942   0.22009416 
  497900    -286.9025    16.238358   -270.66414    1174.0692   -5529.7787    9.4903648   0.18753122 
  498000   -288.79143    18.240273   -270.55115    1318.8121    9013.1394    9.7258434   0.13918578 
  498100   -284.87141     18.75146   -266.11995     1355.772    15651.201    9.6462559   0.19011858 
  498200   -284.21075    16.301458   -267.90929    1178.6315    13826.503    9.6086234   0.19568179 
  498300   -286.77406    15.496769   -271.27729    1120.4507   -9615.7407     9.471101   0.17679863 
  498400   -282.90259    15.553957   -267.34863    1124.5855    8370.4368    9.5187769    0.2245848 
  498500   -283.91413    16.886881   -267.02725    1220.9588    5241.1847    9.4849235   0.23102792 
  498600   -285.25365    15.642487   -269.61116    1130.9864    9292.1674    9.6065152   0.20502036 
  498700   -287.69266    18.050129   -269.64254    1305.0642   -8292.9357     9.514472   0.18150022 
  498800   -283.13056    18.782695   -264.34787    1358.0304   -3185.0925    9.3652249   0.24644057 
  498900   -285.45972     17.32503   -268.13469     1252.638    16489.699    9.6902753   0.19710274 
  499000    -286.8312    17.412441   -269.41876     1258.958    121.02903    9.5512627   0.20500047 
  499100   -284.88071    19.028296   -265.85242    1375.7879    -5961.277    9.4133191   0.19663304 
  499200   -286.01925    18.235286   -267.78397    1318.4515   -2812.8167    9.4902038   0.20929898 
  499300   -288.07873    17.513145   -270.56558    1266.2391    7484.4369    9.7152329   0.18025867 
  499400   -286.69328     18.66172   -268.03156    1349.2836    7850.8047    9.6320715   0.19185207 
  499500   -284.62067    18.884642   -265.73603    1365.4014   -15588.205    9.2987001    0.2791358 
  499600   -285.51715    15.825155     -269.692    1144.1937   -6407.4954    9.4493107   0.21937041 
  499700   -287.38329    16.472933   -270.91036    1191.0295   -1368.8824    9.5723855   0.16048117 
  499800   -285.96231    18.202805   -267.75951    1316.1031    1334.7415    9.5356184    0.1885957 
  499900   -282.57102    17.231398   -265.33962    1245.8682    7274.9865    9.5000215   0.21115485 
  500000   -286.54611    16.295574   -270.25054    1178.2061   -4472.6295    9.5046579   0.19610202 
Loop time of 149.818 on 1 procs for 500000 steps with 108 atoms

Performance: 1441.751 ns/day, 0.017 hours/ns, 3337.387 timesteps/s
100.0% CPU use with 1 MPI tasks x no OpenMP threads

MPI task timing breakdown:
Section |  min time  |  avg time  |  max time  |%varavg| %total
---------------------------------------------------------------
Pair    | 89.06      | 89.06      | 89.06      |   0.0 | 59.45
Neigh   | 5.2163     | 5.2163     | 5.2163     |   0.0 |  3.48
Comm    | 2.477      | 2.477      | 2.477      |   0.0 |  1.65
Output  | 0.11071    | 0.11071    | 0.11071    |   0.0 |  0.07
Modify  | 52.459     | 52.459     | 52.459     |   0.0 | 35.02
Other   |            | 0.4954     |            |       |  0.33

Nlocal:    108 ave 108 max 108 min
Histogram: 1 0 0 0 0 0 0 0 0 0
Nghost:    990 ave 990 max 990 min
Histogram: 1 0 0 0 0 0 0 0 0 0
Neighs:    4926 ave 4926 max 4926 min
Histogram: 1 0 0 0 0 0 0 0 0 0

Total # of neighbors = 4926
Ave neighs/atom = 45.6111
Neighbor list builds = 22787
Dangerous builds = 0
    
Total wall time: 0:02:29
