LAMMPS (3 Mar 2020)
Reading data file ...
  orthogonal box = (0 0 0) to (16.36 16.36 16.36)
  1 by 1 by 1 MPI processor grid
  reading atoms ...
  256 atoms
  read_data CPU = 0.000972238 secs
Reading potential file /usr/share/lammps-stable/potentials/Ag_u3.eam with DATE: 2007-06-11
Neighbor list info ...
  update every 1 steps, delay 10 steps, check yes
  max neighbors/atom: 2000, page size: 100000
  master list distance cutoff = 7.55
  ghost atom cutoff = 7.55
  binsize = 3.775, bins = 5 5 5
  2 neighbor lists, perpetual/occasional/extra = 1 1 0
  (1) pair eam, perpetual
      attributes: half, newton on
      pair build: half/bin/atomonly/newton
      stencil: half/bin/3d/newton
      bin: standard
  (2) compute rdf, occasional, copy from (1)
      attributes: half, newton on
      pair build: copy
      stencil: none
      bin: none
Setting up Verlet run ...
  Unit style    : metal
  Current step  : 0
  Time step     : 0.005
Per MPI rank memory allocation (min/avg/max) = 3.744 | 3.744 | 3.744 Mbytes
Step PotEng KinEng TotEng Temp Press Density c_msdall[4] 
       0       -729.6    75.151848   -654.44815         2280      18331.9    10.472245            0 
     100    -679.7654    49.214979   -630.55042    1493.1123    82458.004    10.472245    0.1158746 
     200   -659.56632    66.262347   -593.30397    2010.3052    114927.22    10.472245   0.20840858 
     300   -651.94102     86.85893   -565.08209    2635.1762    129748.04    10.472245   0.24442163 
     400   -651.23089    75.955699   -575.27519    2304.3877    125768.45    10.472245   0.21939761 
     500   -657.41973     72.05277   -585.36696    2185.9784    116983.58    10.472245   0.17850072 
     600   -654.95317    82.604217   -572.34895    2506.0942    124050.83    10.472245   0.20759235 
     700   -645.71893    71.789593   -573.92934     2177.994    133139.18    10.472245   0.29368728 
     800   -652.07724     71.26133   -580.81591    2161.9672    125024.44    10.472245   0.21436898 
     900   -654.15616    76.627023   -577.52913    2324.7547    123316.61    10.472245   0.21451634 
    1000   -654.68106    79.840205   -574.84085    2422.2381    123561.37    10.472245   0.20546279 
    1100   -660.50024    72.832324   -587.66792    2209.6289    114234.19    10.472245   0.18864915 
    1200   -650.78871    74.842506   -575.94621     2270.615    128525.54    10.472245   0.24764732 
    1300   -656.30146    82.580234   -573.72122    2505.3666    121935.24    10.472245   0.22790821 
    1400   -658.29846     77.22179   -581.07667    2342.7991    118286.66    10.472245   0.19428708 
    1500   -657.44835    76.557132   -580.89122    2322.6343     119787.5    10.472245    0.2235123 
    1600   -644.93363    74.323933    -570.6097    2254.8822    134778.97    10.472245   0.25216049 
    1700   -652.76142    70.799811   -581.96161    2147.9654    124346.26    10.472245   0.24064759 
    1800   -660.25728    80.801651   -579.45563     2451.407    116386.07    10.472245   0.19270339 
    1900   -652.55154    82.258344   -570.29319     2495.601    128274.86    10.472245   0.22104928 
    2000   -655.24526    73.246176   -581.99908    2222.1846    122075.92    10.472245   0.20129162 
    2100   -647.41444    74.902391   -572.51205    2272.4318    131696.97    10.472245   0.27582994 
    2200    -640.7228    69.721979   -571.00082    2115.2655    142270.32    10.472245   0.29247013 
    2300   -652.87913     72.71224   -580.16689    2205.9857    124475.92    10.472245   0.22242901 
    2400   -652.62225    74.386219   -578.23603    2256.7719    127226.67    10.472245    0.1942278 
    2500   -649.88499     79.24869    -570.6363    2404.2924    129006.98    10.472245   0.22222166 
    2600   -659.21665    76.631159    -582.5855    2324.8802    115823.51    10.472245   0.18283503 
    2700   -653.28272     78.57092    -574.7118    2383.7298    125503.16    10.472245   0.21614851 
    2800   -650.25217    78.643331   -571.60884    2385.9266    128541.72    10.472245   0.20002451 
    2900    -654.1829    73.529302    -580.6536    2230.7743    123898.65    10.472245   0.20120637 
    3000   -647.17657    74.621303   -572.55527     2263.904    132391.02    10.472245   0.24700912 
    3100   -652.11337    82.102237   -570.01114    2490.8649    126134.15    10.472245   0.21439628 
    3200   -653.20872    77.497727     -575.711    2351.1706    125178.32    10.472245   0.23222257 
    3300   -655.51827    75.527361   -579.99091    2291.3925    122956.61    10.472245   0.19796221 
    3400   -657.76458    77.022729   -580.74185    2336.7598    117937.62    10.472245   0.19697986 
    3500   -649.99532     79.32506   -570.67026    2406.6093    130477.44    10.472245   0.20223611 
    3600   -658.75336    74.061688   -584.69168    2246.9261    118498.68    10.472245   0.17838643 
    3700   -655.87042    78.951403   -576.91901    2395.2731    121165.56    10.472245   0.19946287 
    3800   -651.41627    74.796442   -576.61983    2269.2175    126233.27    10.472245   0.23220624 
    3900   -657.33054    76.748832   -580.58171    2328.4502    120653.08    10.472245   0.19211141 
    4000   -655.59552    72.283639   -583.31188    2192.9826    121120.66    10.472245    0.1905474 
    4100   -649.03488    76.827337   -572.20754    2330.8319    130201.35    10.472245   0.21927555 
    4200   -650.12338     70.42094   -579.70244     2136.471    127928.34    10.472245   0.23055284 
    4300   -651.64647    73.238835   -578.40763    2221.9619    126400.84    10.472245   0.24013333 
    4400   -648.90729    73.964396   -574.94289    2243.9744    128311.27    10.472245   0.24074571 
    4500   -654.06369    79.071823   -574.99187    2398.9265    125343.52    10.472245   0.18775394 
    4600   -655.94393    73.098191   -582.84573     2217.695    120709.44    10.472245    0.2300699 
    4700   -649.25218    79.536753   -569.71543    2413.0318    129853.09    10.472245   0.19556043 
    4800   -650.31802    74.955705   -575.36231    2274.0493    128639.89    10.472245   0.22998231 
    4900   -651.97525    71.294485   -580.68077    2162.9731    124472.09    10.472245   0.20801884 
    5000   -658.31734    71.022139    -587.2952    2154.7105    116293.42    10.472245   0.16650567 
    5100    -649.8566    74.798853   -575.05775    2269.2906    129741.12    10.472245   0.22202019 
    5200   -657.12777    79.091785   -578.03598    2399.5321    120418.98    10.472245   0.19292847 
    5300   -659.24175    73.808898   -585.43285    2239.2568    117219.66    10.472245   0.18858408 
    5400    -650.6444    72.482419   -578.16198    2199.0133    127918.67    10.472245   0.19701002 
    5500   -654.30192    80.468003   -573.83392    2441.2846    126830.19    10.472245   0.19774059 
    5600   -654.76572    79.663121    -575.1026    2416.8656    124277.97    10.472245    0.2214375 
    5700   -651.37071    69.904712     -581.466    2120.8093    124645.68    10.472245    0.2663464 
    5800   -649.00726    78.897724   -570.10954    2393.6445    130835.26    10.472245   0.23527957 
    5900   -658.57249    81.168801   -577.40368    2462.5458    118705.19    10.472245   0.17379225 
    6000    -658.3381    78.649308    -579.6888    2386.1079    118741.29    10.472245   0.16988467 
    6100   -654.41344    76.978525   -577.43492    2335.4188    122526.48    10.472245   0.24697055 
    6200   -647.82452    82.342816    -565.4817    2498.1637    133220.49    10.472245   0.26065398 
    6300   -657.67252     81.02141   -576.65111    2458.0741    119937.71    10.472245   0.20075553 
    6400    -652.1634     71.71917   -580.44423    2175.8574    124612.63    10.472245   0.26602371 
    6500   -645.03033    77.552795   -567.47754    2352.8413    137450.54    10.472245   0.34976185 
    6600   -650.90132    81.315577   -569.58575    2466.9987    128782.54    10.472245   0.24398433 
    6700   -651.77348    74.586328   -577.18715    2262.8429    127201.11    10.472245   0.25849081 
    6800   -653.38075    71.079825   -582.30093    2156.4606    120898.94    10.472245   0.25735224 
    6900   -655.38486    75.304514   -580.08034    2284.6317     120825.2    10.472245   0.18688078 
    7000   -648.36699    76.783037   -571.58396     2329.488    132476.63    10.472245   0.23054684 
    7100   -656.32963    70.283412   -586.04622    2132.2986    120098.54    10.472245   0.19969385 
    7200   -653.01391    74.676945   -578.33696    2265.5921     124694.5    10.472245   0.20718721 
    7300   -652.27975    78.049911   -574.22984    2367.9231    127240.78    10.472245   0.24846116 
    7400   -661.21817     79.02831   -582.18986    2397.6063    114433.51    10.472245   0.17772107 
    7500   -652.86375    70.634679   -582.22907    2142.9555    123972.34    10.472245   0.22682031 
    7600   -652.14489    78.801719   -573.34317    2390.7319    126684.64    10.472245   0.22366077 
    7700   -651.82769    73.357006   -578.47068     2225.547    125552.98    10.472245   0.27535698 
    7800   -648.45583    76.042066   -572.41377    2307.0079    131101.11    10.472245   0.19399288 
    7900   -655.14836    78.017947   -577.13041    2366.9534    121509.91    10.472245   0.20040381 
    8000   -655.81642     71.53561   -584.28081    2170.2885    120519.02    10.472245   0.22995966 
    8100   -650.49828     75.23978    -575.2585    2282.6677     128495.1    10.472245   0.24269876 
    8200   -656.40773    76.665545   -579.74219    2325.9234    121298.72    10.472245   0.24453322 
    8300   -647.81455    77.370806   -570.44374      2347.32    133041.16    10.472245   0.23906498 
    8400   -648.28464    78.058366   -570.22628    2368.1796    131235.33    10.472245   0.24476864 
    8500   -651.84592    74.049803   -577.79612    2246.5655    125728.06    10.472245   0.20476785 
    8600   -651.87399     74.03772   -577.83627    2246.1989    124889.79    10.472245   0.28077903 
    8700   -640.98482    73.721393   -567.26343     2236.602    140702.35    10.472245   0.26288338 
    8800   -651.20404    72.940587   -578.26345    2212.9135    126719.55    10.472245   0.21552372 
    8900   -653.43872    72.492112    -580.9466    2199.3074    124138.71    10.472245   0.18934051 
    9000   -650.86936    77.202513   -573.66685    2342.2142    127175.38    10.472245   0.23022227 
    9100   -648.35111    79.998625   -568.35249    2427.0443    133545.82    10.472245   0.26585025 
    9200   -653.39161     70.98548   -582.40613    2153.5983    124585.34    10.472245   0.22969396 
    9300   -655.94082    79.523983   -576.41683    2412.6443    121296.43    10.472245   0.22482228 
    9400   -641.88276    75.597289   -566.28547     2293.514     138210.5    10.472245   0.27293635 
    9500   -649.88697    73.920138   -575.96684    2242.6317    128735.83    10.472245   0.22958011 
    9600   -651.99881    72.679223   -579.31959    2204.9841    124327.32    10.472245   0.20602643 
    9700   -652.13687    75.889767    -576.2471    2302.3874    126140.49    10.472245   0.20937557 
    9800   -649.02453    76.593195   -572.43133    2323.7284    131970.26    10.472245   0.22099413 
    9900   -657.49678     73.46073   -584.03605    2228.6939    117741.28    10.472245   0.24078195 
   10000   -650.17079    74.796244   -575.37455    2269.2115    128044.78    10.472245   0.27760688 
   10100   -655.05934    82.664917   -572.39443    2507.9358    124000.17    10.472245    0.2550562 
   10200   -653.18715    73.556033   -579.63111    2231.5852    123525.13    10.472245   0.24117817 
   10300   -658.92014    69.497948   -589.42219    2108.4687    115381.69    10.472245   0.21417149 
   10400   -649.26663    74.444172   -574.82246    2258.5301    129289.41    10.472245   0.25825267 
   10500   -648.34462    74.363763   -573.98085    2256.0906    128769.98    10.472245   0.27504921 
   10600   -659.41551    75.511187   -583.90433    2290.9018    116922.03    10.472245   0.23725585 
   10700   -650.01195    78.991081   -571.02087    2396.4768    128478.17    10.472245   0.24513266 
   10800   -650.66362    76.525162   -574.13846    2321.6644    128684.68    10.472245   0.24737511 
   10900   -654.65235    73.054934   -581.59742    2216.3826    124854.19    10.472245   0.21362357 
   11000   -648.10009    78.407914   -569.69218    2378.7844    133931.32    10.472245   0.23201774 
   11100   -650.89296       76.252   -574.64096     2313.377    129274.01    10.472245   0.25985137 
   11200   -657.18621    75.820077   -581.36613    2300.2731    118797.47    10.472245   0.18650123 
   11300   -652.06249    74.475282   -577.58721     2259.474    127049.55    10.472245   0.22366129 
   11400   -644.88626    75.300754   -569.58551    2284.5176    135986.65    10.472245   0.28230093 
   11500   -660.96376    78.252111   -582.71165    2374.0575    114385.45    10.472245   0.23049524 
   11600   -651.26284    75.620022   -575.64282    2294.2037     126604.4    10.472245   0.27066514 
   11700   -651.07998    76.467047   -574.61294    2319.9013    127090.91    10.472245   0.21162749 
   11800   -656.44064    76.354421   -580.08622    2316.4843    120893.57    10.472245   0.19670103 
   11900   -651.90494    77.625968   -574.27898    2355.0613    125890.28    10.472245   0.24734695 
   12000   -648.38885     75.94656   -572.44229    2304.1104    131856.64    10.472245   0.26712117 
   12100   -652.00217    72.239621   -579.76255    2191.6472     123295.5    10.472245   0.21977503 
   12200    -642.7244    75.765737   -566.95866    2298.6245    139327.17    10.472245   0.25943885 
   12300   -641.73431    69.659056   -572.07526    2113.3565    138689.88    10.472245   0.27367417 
   12400   -649.17604    69.767517   -579.40853    2116.6471    128434.03    10.472245   0.23191288 
   12500    -654.5063    75.362063   -579.14424    2286.3776    122641.51    10.472245   0.25397467 
   12600   -648.99748    79.578949   -569.41853    2414.3119    130900.15    10.472245   0.23760407 
   12700   -659.52943    77.253794   -582.27564      2343.77    117693.96    10.472245   0.21623894 
   12800   -651.41878    72.660684    -578.7581    2204.4216    125398.78    10.472245   0.21797402 
   12900   -644.89401    81.057742   -563.83627    2459.1764    137679.17    10.472245   0.22006229 
   13000   -649.60937    76.627636   -572.98173    2324.7733    126516.76    10.472245   0.24231225 
   13100   -658.24525    77.096848    -581.1484    2339.0085    118828.57    10.472245   0.20489367 
   13200   -652.20301    81.420233   -570.78278    2470.1739    126660.05    10.472245   0.20653221 
   13300   -653.48644    79.814018   -573.67243    2421.4436    124901.97    10.472245   0.19337051 
   13400    -651.4629    70.246425   -581.21648    2131.1764    126030.19    10.472245   0.22658821 
   13500   -655.99854    79.831843   -576.16669    2421.9844    122616.06    10.472245    0.2147952 
   13600   -650.96931    86.709606    -564.2597    2630.6459    130128.94    10.472245   0.22121991 
   13700   -651.12309    76.881941   -574.24115    2332.4885    126959.03    10.472245   0.20154974 
   13800   -655.04592    74.428278   -580.61765    2258.0479    122830.86    10.472245   0.20193294 
   13900   -652.24429    80.562853   -571.68144    2444.1622     126993.2    10.472245   0.24294708 
   14000   -650.07061    71.970139   -578.10047    2183.4715    128095.92    10.472245   0.23187731 
   14100    -656.4868    72.817507    -583.6693    2209.1794    120280.41    10.472245   0.20969376 
   14200   -653.49525    80.471758   -573.02349    2441.3985     126086.8    10.472245   0.21346962 
   14300   -654.69147     76.37574   -578.31573    2317.1311    123294.35    10.472245   0.18172839 
   14400   -657.20917    70.502953   -586.70622    2138.9591    118212.75    10.472245    0.1901268 
   14500   -653.45028    75.314832   -578.13545    2284.9447    125230.57    10.472245   0.19198085 
   14600   -655.01825    78.996109   -576.02215    2396.6294    121391.72    10.472245   0.22617253 
   14700   -644.45535    77.920157   -566.53519    2363.9865    136200.45    10.472245   0.28566995 
   14800   -653.73962    74.102312   -579.63731    2248.1586    123625.38    10.472245   0.22534639 
   14900   -658.35466    78.843144   -579.51152    2391.9887    117630.42    10.472245   0.19675376 
   15000   -648.34644    82.131974   -566.21447    2491.7671    133217.36    10.472245   0.22174225 
   15100    -655.8403    75.106188   -580.73412    2278.6147    122689.83    10.472245   0.22956312 
   15200   -651.47641    70.828676   -580.64774    2148.8411    124657.98    10.472245   0.25040482 
   15300   -652.94653    83.421272   -569.52526    2530.8825    128082.14    10.472245   0.21198022 
   15400   -651.50718    72.851467   -578.65571    2210.2097    127532.11    10.472245    0.2349977 
   15500   -655.51687     77.03656   -578.48031    2337.1795    123505.81    10.472245   0.23550571 
   15600   -649.65107    78.693474    -570.9576    2387.4479    131114.99    10.472245   0.23924545 
   15700    -652.0948    75.879146   -576.21565    2302.0652    126323.93    10.472245    0.2768722 
   15800   -651.60785    72.081158   -579.52669    2186.8396    127282.04    10.472245   0.24376653 
   15900    -645.6947    80.777411   -564.91729    2450.6716    134879.81    10.472245   0.23721644 
   16000   -645.15592    78.324466   -566.83145    2376.2527    134182.78    10.472245   0.25147146 
   16100    -653.2034    73.856601    -579.3468     2240.704    124203.09    10.472245   0.22699466 
   16200   -657.86968     75.24545   -582.62423    2282.8397    117620.68    10.472245   0.23750571 
   16300   -647.99408      77.9391   -570.05498    2364.5612    131874.62    10.472245   0.25888182 
   16400   -654.28885    76.821542    -577.4673    2330.6561    124746.29    10.472245   0.24007596 
   16500   -653.46108    71.966428   -581.49465    2183.3589    124082.95    10.472245   0.22183307 
   16600   -654.94956    81.208674   -573.74089    2463.7555     123204.2    10.472245   0.22259935 
   16700   -646.58846    81.799191   -564.78927    2481.6709    135463.66    10.472245   0.24167448 
   16800   -653.43564     78.87223   -574.56341    2392.8711    124938.48    10.472245   0.19865589 
   16900   -657.39897    75.074571    -582.3244    2277.6555    119360.47    10.472245   0.21033915 
   17000   -650.54807    76.718718   -573.82935    2327.5366    128614.54    10.472245   0.29508829 
   17100   -648.02112    78.105672   -569.91545    2369.6148    131602.78    10.472245   0.23125967 
   17200   -657.69988    77.455124   -580.24476    2349.8781    119906.33    10.472245    0.2118672 
   17300   -649.51541    75.754696   -573.76072    2298.2895    130009.61    10.472245   0.27199965 
   17400   -645.06823    77.702845   -567.36539    2357.3936       135177    10.472245   0.30119844 
   17500   -653.50867    76.200489   -577.30819    2311.8143    124562.02    10.472245   0.23867773 
   17600   -648.00274    71.819556   -576.18319     2178.903    131366.76    10.472245   0.23609262 
   17700    -654.8951    76.892514   -578.00259    2332.8093     122222.8    10.472245   0.19233833 
   17800   -657.78633    73.643788   -584.14254    2234.2476    117039.76    10.472245   0.23951437 
   17900   -648.87748    76.666097   -572.21138    2325.9401     131212.2    10.472245   0.22048974 
   18000   -651.09564    71.435071   -579.66057    2167.2383    124746.91    10.472245   0.21506227 
   18100   -664.11044    71.239591   -592.87085    2161.3077    110452.14    10.472245   0.17641731 
   18200   -658.53214    76.996389   -581.53575    2335.9607    119046.76    10.472245   0.16823881 
   18300   -648.06842    74.220188   -573.84823    2251.7348     131097.3    10.472245   0.25109613 
   18400   -652.38351    78.606224   -573.77729    2384.8008    125952.82    10.472245   0.22033703 
   18500   -657.96492    74.017576   -583.94735    2245.5878    116608.39    10.472245   0.23260176 
   18600   -649.81477    74.849836   -574.96494    2270.8374     129058.4    10.472245    0.2392214 
   18700   -650.45601    78.209615    -572.2464    2372.7683    130097.96    10.472245   0.24900011 
   18800   -649.04951    80.476226   -568.57328     2441.534    130887.47    10.472245   0.28083554 
   18900   -651.33262    69.868851   -581.46377    2119.7214    125432.43    10.472245   0.24962736 
   19000   -647.84071    77.113242   -570.72747    2339.5059    131744.87    10.472245   0.24837075 
   19100   -646.98666    73.014556   -573.97211    2215.1576    130425.81    10.472245   0.20336742 
   19200   -653.84782    72.538994   -581.30883    2200.7297    125066.51    10.472245   0.21515438 
   19300   -652.13436    82.477328   -569.65703    2502.2446    126953.33    10.472245   0.19353446 
   19400   -649.76971     76.51318   -573.25653    2321.3009    127723.23    10.472245    0.2340275 
   19500   -655.88055    74.053723   -581.82683    2246.6844    120232.14    10.472245   0.19534944 
   19600   -655.37375    82.361465   -573.01229    2498.7295    123148.63    10.472245   0.18225397 
   19700   -654.19205    74.608188   -579.58386    2263.5061    124087.66    10.472245   0.19780598 
   19800   -660.41278    73.555814   -586.85697    2231.5786    115179.03    10.472245   0.17337417 
   19900   -652.28673    77.979419   -574.30731    2365.7845     126238.7    10.472245   0.25004746 
   20000   -648.45542    74.381652   -574.07377    2256.6333    130602.56    10.472245   0.21246995 
   20100   -654.99173    68.234966   -586.75676    2070.1517    122558.22    10.472245   0.18787831 
   20200   -653.40519      76.0639   -577.34129    2307.6704     125489.2    10.472245   0.24488997 
   20300   -648.91652    77.353959   -571.56256    2346.8089    129023.01    10.472245   0.21269681 
   20400   -649.32094    73.015558   -576.30539     2215.188    128240.87    10.472245   0.23289677 
   20500   -651.59969    74.526913   -577.07278    2261.0403     124857.2    10.472245   0.20794544 
   20600   -659.76779    74.063558   -585.70423    2246.9828    113510.02    10.472245   0.19948317 
   20700   -647.78006    74.567677   -573.21238    2262.2771    131204.66    10.472245      0.25228 
   20800   -651.58142    75.366824   -576.21459     2286.522    127905.43    10.472245   0.23217478 
   20900   -662.06682    71.462979   -590.60384     2168.085    112986.64    10.472245   0.17967917 
   21000   -655.24601    71.351672   -583.89434    2164.7081    123251.76    10.472245   0.21182892 
   21100   -655.28825    80.047533   -575.24072    2428.5281    123065.19    10.472245   0.21941094 
   21200   -652.76556    78.527824   -574.23774    2382.4223    127046.41    10.472245   0.20697525 
   21300   -659.24922    73.013949   -586.23527    2215.1392     116619.1    10.472245   0.22683704 
   21400   -648.71778    72.079632   -576.63815    2186.7933    129653.56    10.472245   0.23826672 
   21500   -652.49723     76.33892   -576.15831    2316.0141    125458.79    10.472245   0.20646038 
   21600   -659.05636    69.660455    -589.3959     2113.399    115245.34    10.472245   0.16897445 
   21700   -656.27477    79.307689   -576.96708    2406.0823    123057.37    10.472245   0.20289734 
   21800   -651.57108    77.002007   -574.56908    2336.1312    126302.02    10.472245   0.21663208 
   21900   -658.70124    72.576764   -586.12448    2201.8756    116556.68    10.472245   0.21521521 
   22000   -643.92836    71.826966    -572.1014    2179.1278    136652.06    10.472245   0.22495705 
   22100   -651.42686    73.064965   -578.36189    2216.6869    127430.82    10.472245    0.2140926 
   22200   -653.42577    70.513672   -582.91209    2139.2844    123326.77    10.472245   0.22697668 
   22300   -641.76595    73.104669   -568.66128    2217.8915    136303.77    10.472245   0.26846208 
   22400   -654.45457    73.901908   -580.55266    2242.0786     122525.6    10.472245   0.21177188 
   22500   -655.24821    77.013115   -578.23509    2336.4682    122438.93    10.472245   0.20543022 
   22600   -643.83403    78.716769   -565.11726    2388.1546    137802.21    10.472245   0.25973249 
   22700   -654.05771    76.437491   -577.62022    2319.0046    123285.87    10.472245   0.22228891 
   22800   -653.94192    69.309426    -584.6325    2102.7492       122352    10.472245   0.23211217 
   22900   -648.00066     75.74794   -572.25272    2298.0846    131372.36    10.472245   0.22520357 
   23000   -650.02314     71.89007   -578.13307    2181.0423    127244.82    10.472245   0.26150673 
   23100   -656.12732    75.445879   -580.68144    2288.9205    120823.02    10.472245   0.21863211 
   23200   -652.58918    74.430002   -578.15918    2258.1002    124636.29    10.472245   0.23756993 
   23300   -649.85475    79.971906   -569.88285    2426.2337    129101.55    10.472245   0.24348392 
   23400   -651.46309    69.456467   -582.00662    2107.2102     125905.3    10.472245   0.25211887 
   23500   -651.52752    71.222935   -580.30458    2160.8024    127468.96    10.472245   0.19353209 
   23600   -642.04608    76.040007   -566.00607    2306.9455    139380.44    10.472245   0.21005639 
   23700   -648.77108    74.230807   -574.54028    2252.0569     129769.3    10.472245   0.24449433 
   23800   -648.96772    69.767605   -579.20012    2116.6497    129554.12    10.472245   0.28337235 
   23900   -648.66355    78.771004   -569.89255       2389.8    130313.01    10.472245   0.25558052 
   24000   -650.62951    81.163713    -569.4658    2462.3914    130505.68    10.472245    0.2350011 
   24100   -656.34933    74.509194   -581.84013    2260.5028    120709.34    10.472245   0.20198757 
   24200   -652.46285    78.415826   -574.04703    2379.0244    127222.32    10.472245    0.2513353 
   24300   -644.98931    75.105584   -569.88372    2278.5964    135691.17    10.472245   0.25900455 
   24400   -650.24991     73.06243   -577.18748      2216.61    128117.64    10.472245   0.21073768 
   24500   -650.65213     70.02559   -580.62654    2124.4766    128644.03    10.472245   0.23406288 
   24600   -652.37877    86.374923   -566.00385    2620.4921    128085.47    10.472245   0.23344578 
   24700   -649.70227     73.46491   -576.23736    2228.8207     128906.2    10.472245   0.22595604 
   24800   -656.21426    75.586979   -580.62728    2293.2012    119487.74    10.472245   0.20466106 
   24900   -650.08228    71.038372    -579.0439     2155.203    126656.34    10.472245   0.21787393 
   25000   -648.72555     78.23709   -570.48846    2373.6018    130874.97    10.472245   0.23601739 
   25100   -653.55325    70.618524   -582.93472    2142.4654    122303.52    10.472245   0.23611197 
   25200   -649.42168    70.698658   -578.72302    2144.8966    127969.81    10.472245   0.21522101 
   25300   -650.77416    75.607416   -575.16674    2293.8213    128200.92    10.472245   0.24377177 
   25400   -654.04326    79.313413   -574.72985    2406.2559    125006.56    10.472245   0.22546336 
   25500   -657.04321     71.41098   -585.63223    2166.5074    119291.57    10.472245   0.20936905 
   25600   -650.53181    78.003953   -572.52785    2366.5288    128618.61    10.472245   0.24007608 
   25700   -646.26723    73.143288   -573.12394    2219.0631     131805.7    10.472245   0.21828229 
   25800   -652.46577    73.630796   -578.83497    2233.8535    124969.64    10.472245   0.24203197 
   25900   -650.24408    77.435465   -572.80861    2349.2817    129141.01    10.472245    0.3211429 
   26000   -645.65517    81.360591   -564.29458    2468.3644    135443.64    10.472245    0.2495742 
   26100   -648.72896    73.270493   -575.45846    2222.9224    130503.63    10.472245   0.21311579 
   26200   -655.92766    73.982105   -581.94556    2244.5117    122662.04    10.472245   0.18675154 
   26300   -650.39268    77.841452   -572.55123    2361.5987    129438.45    10.472245   0.23774547 
   26400   -649.19379    83.191175   -566.00261    2523.9017    132569.64    10.472245   0.25202904 
   26500   -654.73199    73.248274   -581.48372    2222.2483    121348.81    10.472245   0.23078299 
   26600   -652.24687    78.539487   -573.70739    2382.7761    127800.61    10.472245   0.21635648 
   26700   -650.47036    81.389115   -569.08124    2469.2298    130628.89    10.472245   0.23866716 
   26800   -650.89818    71.020105   -579.87808    2154.6488    126110.18    10.472245   0.26669935 
   26900   -656.91611    77.842263   -579.07385    2361.6233    119494.24    10.472245   0.23445483 
   27000    -650.3761    83.435278   -566.94083    2531.3074    130287.24    10.472245   0.24436545 
   27100   -653.25315    76.217056   -577.03609    2312.3169     125475.6    10.472245   0.23871262 
   27200   -653.23694    74.379639    -578.8573    2256.5723    124540.24    10.472245   0.21004442 
   27300   -657.32873    67.868269   -589.46046    2059.0266     117477.7    10.472245   0.19445277 
   27400   -654.05209    76.163811   -577.88827    2310.7015    123536.49    10.472245   0.19247368 
   27500   -654.20805    76.991426   -577.21662    2335.8102    124492.74    10.472245   0.19978145 
   27600   -656.40832    68.882199   -587.52612    2089.7878    117950.31    10.472245    0.1855757 
   27700   -654.22047    76.163501   -578.05697    2310.6921     122474.1    10.472245   0.22323611 
   27800   -649.98457    73.562418   -576.42215     2231.779    128070.39    10.472245   0.23240618 
   27900   -655.24716    70.225926   -585.02123    2130.5545    121051.73    10.472245   0.22470906 
   28000      -646.95    76.059723   -570.89028    2307.5436    132734.69    10.472245   0.25914348 
   28100   -655.39681    78.296586   -577.10022    2375.4069     121255.2    10.472245   0.19449103 
   28200    -660.6269     80.31755   -580.30935      2436.72    116187.84    10.472245   0.17674135 
   28300   -648.72913       78.369   -570.36013    2377.6038     131721.6    10.472245   0.25812683 
   28400   -641.38591     73.54564   -567.84027    2231.2699     138910.1    10.472245   0.29747036 
   28500   -655.80902    73.784869   -582.02415    2238.5278    121383.33    10.472245   0.20066694 
   28600   -656.56134    82.359483   -574.20186    2498.6694    122672.38    10.472245    0.1994775 
   28700    -655.3945    83.808102    -571.5864    2542.6184    123687.91    10.472245   0.20988515 
   28800   -663.93196    78.365643   -585.56631     2377.502    111515.05    10.472245     0.165611 
   28900   -649.66174      75.3752   -574.28654    2286.7762    130933.28    10.472245   0.22244907 
   29000   -651.09415    74.659575   -576.43457    2265.0651    125773.06    10.472245   0.26214035 
   29100   -658.23183    67.855757   -590.37607     2058.647    114739.18    10.472245   0.18236278 
   29200   -652.21827    73.341715   -578.87656    2225.0831     126322.2    10.472245   0.26888931 
   29300   -651.36042    78.593834   -572.76659    2384.4249    128386.23    10.472245   0.22348183 
   29400   -655.12559    69.719336   -585.40625    2115.1853    120437.24    10.472245   0.21053148 
   29500   -656.13635    74.459456   -581.67689    2258.9938    121569.41    10.472245   0.20637222 
   29600   -652.62327    75.848527   -576.77475    2301.1362    126130.65    10.472245     0.265838 
   29700   -651.64409    75.797657   -575.84643    2299.5929     127494.7    10.472245   0.22982891 
   29800   -656.72074      70.3028   -586.41794    2132.8868    119233.26    10.472245   0.17136276 
   29900    -646.0579    74.166763   -571.89114    2250.1139     133525.2    10.472245    0.2408359 
   30000   -649.37038    74.305756   -575.06463    2254.3308    128527.79    10.472245   0.25069738 
   30100    -656.8208    70.740883   -586.07991    2146.1776    118882.97    10.472245   0.21723805 
   30200   -656.17328    70.396275   -585.77701    2135.7227    117835.02    10.472245   0.21601827 
   30300   -645.00861    73.825072   -571.18354    2239.7475    134644.07    10.472245   0.25900772 
   30400   -651.23835    70.819308   -580.41904    2148.5569     125819.4    10.472245   0.25772264 
   30500    -655.5881     75.42936   -580.15874    2288.4193    119763.99    10.472245   0.21606837 
   30600   -653.58933    75.540281   -578.04905    2291.7845    123648.03    10.472245   0.18849473 
   30700   -647.87899    70.980005   -576.89898    2153.4322    132388.48    10.472245   0.23146888 
   30800   -645.05205    78.388788   -566.66326    2378.2041    135694.92    10.472245   0.23038443 
   30900   -653.98717     72.93896    -581.0482    2212.8641     121118.4    10.472245   0.21918264 
   31000   -648.72624    74.622675   -574.10357    2263.9456    130458.87    10.472245   0.30518546 
   31100   -650.64322    79.044429   -571.59879    2398.0954    128551.76    10.472245   0.23768259 
   31200   -653.63586     69.53227   -584.10359      2109.51    123220.07    10.472245   0.23206417 
   31300   -655.10605    74.626727   -580.47932    2264.0686    122475.55    10.472245   0.22940091 
   31400   -650.11733    74.841386   -575.27595     2270.581    129012.32    10.472245    0.2199394 
   31500   -654.80882    68.714801   -586.09402    2084.7091    120487.21    10.472245   0.20326457 
   31600    -650.5363    72.739988   -577.79631    2206.8276    127445.38    10.472245   0.25010654 
   31700   -644.42201    70.584678   -573.83733    2141.4386    133859.89    10.472245   0.21555506 
   31800   -651.81289    68.897873   -582.91502    2090.2633    126093.62    10.472245   0.20071618 
   31900   -651.61495    82.313659   -569.30129    2497.2791    128212.96    10.472245   0.21629518 
   32000   -652.78255    77.584249    -575.1983    2353.7956    126019.65    10.472245   0.24541196 
   32100   -656.20985    73.554694   -582.65516    2231.5446    121340.97    10.472245    0.1878391 
   32200   -651.77989    73.341449   -578.43844    2225.0751    126804.18    10.472245    0.2200597 
   32300   -652.70582    82.755416    -569.9504    2510.6814    129574.08    10.472245   0.22138884 
   32400   -656.36094    72.179992   -584.18095    2189.8381    119578.19    10.472245    0.1803922 
   32500   -651.29557    71.412631   -579.88294    2166.5575    125354.23    10.472245    0.2217112 
   32600   -655.02319    78.879895   -576.14329    2393.1036    124040.89    10.472245   0.20120518 
   32700   -652.56949    74.822338   -577.74715    2270.0031    126026.77    10.472245   0.20555595 
   32800   -653.75097    76.723056   -577.02791    2327.6682    123003.23    10.472245     0.202856 
   32900   -659.18077    80.509415   -578.67136    2442.5409    117099.39    10.472245    0.1732148 
   33000   -660.12442    69.258321    -590.8661    2101.1988    114740.53    10.472245   0.20721928 
   33100   -651.83935    73.218129   -578.62122    2221.3337    126544.08    10.472245   0.24947606 
   33200    -651.9389    78.059621   -573.87928    2368.2177    126075.07    10.472245   0.21386637 
   33300   -654.32205    71.767209   -582.55484    2177.3149    122321.92    10.472245    0.2336536 
   33400   -650.21913    69.669005   -580.55012    2113.6584     127427.4    10.472245   0.24111306 
   33500   -650.27097    77.934968     -572.336    2364.4359    129625.05    10.472245   0.26212831 
   33600   -650.00506    70.515075   -579.48999    2139.3269     126995.1    10.472245   0.27021388 
   33700   -656.97371    72.562855   -584.41085    2201.4536    117630.36    10.472245   0.17862589 
   33800   -646.44708    74.875997   -571.57108    2271.6311     134008.5    10.472245   0.24270252 
   33900   -650.26916    72.832526   -577.43663    2209.6351    128715.06    10.472245   0.22126506 
   34000   -659.46305    73.932344   -585.53071     2243.002     116770.4    10.472245   0.19093073 
   34100   -651.51881    74.087375   -577.43143    2247.7054    125562.97    10.472245   0.20134477 
   34200   -653.62652    79.577569   -574.04895    2414.2701    124921.49    10.472245   0.21508329 
   34300   -655.64068      68.1408   -587.49988    2067.2948    120365.01    10.472245   0.20703474 
   34400   -652.00751    74.800907    -577.2066    2269.3529    125601.89    10.472245   0.22586885 
   34500   -645.12302    70.472277   -574.65074    2138.0285    132389.63    10.472245   0.28226388 
   34600   -643.41801    76.192277   -567.22574    2311.5651    138143.49    10.472245   0.28428515 
   34700    -647.8259    71.133935   -576.69196    2158.1022    130212.18    10.472245   0.25778157 
   34800   -657.86441    78.860077   -579.00434    2392.5024     119395.3    10.472245    0.2075623 
   34900   -644.75143    78.474407   -566.27702    2380.8017     135677.4    10.472245   0.24855463 
   35000   -653.88755     74.14222   -579.74533    2249.3693     123299.6    10.472245   0.20129619 
   35100   -657.68622    78.368368   -579.31785    2377.5846    118716.92    10.472245   0.24631687 
   35200   -649.30252    79.890783   -569.41174    2423.7725    130725.31    10.472245   0.24206821 
   35300   -655.55882    71.942052   -583.61677    2182.6194    121528.57    10.472245    0.1851189 
   35400   -657.44782    79.062897   -578.38492    2398.6557    120205.72    10.472245    0.1878837 
   35500   -652.79719    80.233223   -572.56396    2434.1617    126587.64    10.472245   0.23463286 
   35600   -652.56733    67.362717   -585.20462    2043.6889    122875.99    10.472245   0.18736491 
   35700   -653.22763    75.490008   -577.73762    2290.2593    124356.92    10.472245   0.18733081 
   35800   -651.56909    76.757526   -574.81156     2328.714    127644.29    10.472245   0.20420521 
   35900   -652.46199    72.562999   -579.89899     2201.458    124071.22    10.472245   0.21565535 
   36000   -643.41397    76.023516   -567.39046    2306.4452    136222.85    10.472245    0.2407589 
   36100   -652.06864    78.965571   -573.10306    2395.7029    126739.04    10.472245    0.1996194 
   36200   -657.15264    76.563479   -580.58916    2322.8269    119116.62    10.472245   0.18585573 
   36300   -652.20543    75.428786   -576.77665    2288.4019    124643.03    10.472245   0.28534156 
   36400   -646.05601     78.89747   -567.15854    2393.6368    135509.57    10.472245   0.23824093 
   36500   -651.21529    73.913676   -577.30162    2242.4356    126460.82    10.472245   0.22513445 
   36600   -653.65413    71.723091   -581.93104    2175.9764    121937.09    10.472245   0.20569853 
   36700   -658.75317    77.709861   -581.04331    2357.6065    117991.52    10.472245   0.18597082 
   36800   -644.13773    73.163773   -570.97396    2219.6846    135068.13    10.472245   0.30080255 
   36900   -652.99239    74.497423   -578.49497    2260.1457    125223.45    10.472245   0.23066391 
   37000    -650.8012    71.007093   -579.79411     2154.254    125509.11    10.472245   0.24141808 
   37100    -646.0631    75.494859   -570.56824    2290.4065    134973.31    10.472245   0.24243348 
   37200   -657.32066     70.96617   -586.35449    2153.0125    117898.95    10.472245   0.21005173 
   37300    -653.9622    75.455274   -578.50693    2289.2055    123363.93    10.472245   0.19688259 
   37400   -650.78864    77.211226   -573.57741    2342.4786    129777.58    10.472245   0.22517654 
   37500   -650.80069    64.637874   -586.16281     1961.021    125003.89    10.472245   0.22212196 
   37600   -653.48799    78.849577   -574.63841    2392.1838    125456.83    10.472245   0.29158518 
   37700   -649.46688    76.701609   -572.76527    2327.0175    129958.96    10.472245   0.18806284 
   37800   -657.87509    76.193319   -581.68177    2311.5967    118994.91    10.472245   0.20473822 
   37900   -646.88381     73.45383   -573.42998    2228.4845    131675.91    10.472245   0.29574224 
   38000   -647.94541    72.902161   -575.04325    2211.7477    131594.29    10.472245   0.27248276 
   38100    -659.7547     78.52387   -581.23083    2382.3023    117349.01    10.472245   0.19612603 
   38200   -654.37917    80.922857   -573.45631    2455.0842    123877.65    10.472245   0.20134968 
   38300   -650.03002    75.799375   -574.23064     2299.645     128207.5    10.472245   0.23356049 
   38400   -659.55929    74.644122   -584.91517    2264.5963    115608.28    10.472245   0.19705822 
   38500   -656.47376    78.718769     -577.755    2388.2153    121731.41    10.472245   0.19925075 
   38600   -652.95927    78.515099   -574.44417    2382.0362    125264.36    10.472245   0.20682951 
   38700   -653.27758    76.430472    -576.8471    2318.7916    125501.44    10.472245   0.24778808 
   38800   -654.22868    74.900491   -579.32819    2272.3742    123451.58    10.472245   0.22809876 
   38900   -649.46382    74.827012   -574.63681    2270.1449    129456.34    10.472245   0.22666871 
   39000   -647.09721    75.297061   -571.80015    2284.4055    131797.53    10.472245   0.29673794 
   39100   -653.36951     72.96107   -580.40844    2213.5349    123053.34    10.472245   0.23152204 
   39200   -648.62079    70.334037   -578.28675    2133.8345    131413.08    10.472245   0.22358881 
   39300   -649.09565    79.844005   -569.25164    2422.3534    130597.78    10.472245     0.221256 
   39400   -656.55623     78.82342   -577.73281    2391.3903    121987.27    10.472245   0.20229463 
   39500   -653.57563    74.578342   -578.99728    2262.6006    122916.47    10.472245   0.20709279 
   39600   -647.03073    74.666854   -572.36387     2265.286    136685.17    10.472245   0.24951152 
   39700   -648.12904    79.116629   -569.01241    2400.2858    132124.64    10.472245   0.22061584 
   39800   -655.60827    75.935603   -579.67267     2303.778     122198.6    10.472245   0.22931287 
   39900   -653.14092    81.910671   -571.23025     2485.053    125504.78    10.472245   0.24786893 
   40000    -647.5833    79.374675   -568.20863    2408.1145    131216.68    10.472245   0.25820693 
   40100   -647.99032    69.953342   -578.03698    2122.2847    129606.62    10.472245   0.26473834 
   40200   -652.58287    76.867591   -575.71528    2332.0532    126133.41    10.472245   0.24215286 
   40300    -645.2029    79.573281   -565.62962      2414.14     134874.5    10.472245   0.27875188 
   40400   -651.31195    72.638567   -578.67338    2203.7506    126595.64    10.472245   0.25466788 
   40500   -651.29519    73.486701   -577.80849    2229.4818    127669.09    10.472245   0.22381934 
   40600   -649.83708    83.874097   -565.96298    2544.6206     131577.2    10.472245   0.20585845 
   40700   -645.57161    67.282649   -578.28896    2041.2597    133336.64    10.472245   0.27844297 
   40800   -656.35523    79.204634    -577.1506    2402.9557    122769.91    10.472245    0.2426151 
   40900   -645.78187     76.94641   -568.83546    2334.4444    134519.36    10.472245   0.25225872 
   41000   -656.38581    77.662397   -578.72341    2356.1665    120741.93    10.472245   0.24190108 
   41100   -651.84751     70.48918   -581.35833    2138.5413    125317.78    10.472245   0.21951905 
   41200   -641.71378    76.651774     -565.062    2325.5056    139462.82    10.472245   0.26393168 
   41300   -651.02116    78.121628   -572.89953    2370.0989    129631.23    10.472245   0.20507591 
   41400   -651.33513    72.281565   -579.05357    2192.9197    126736.84    10.472245   0.21066098 
   41500   -654.56317    75.157008   -579.40616    2280.1565     121588.6    10.472245   0.22027715 
   41600   -640.03555     66.56122   -573.47433    2019.3726    138265.91    10.472245   0.25841702 
   41700   -655.73128    79.977434   -575.75384    2426.4014    122965.89    10.472245   0.19554053 
   41800   -657.91718    72.234913   -585.68227    2191.5043    118293.52    10.472245   0.20154335 
   41900    -644.4825    68.588317   -575.89418    2080.8718    134486.85    10.472245   0.25279512 
   42000   -652.61189    77.099579   -575.51232    2339.0914    126057.31    10.472245   0.23585849 
   42100   -658.17654    71.265364   -586.91118    2162.0896    118634.42    10.472245   0.18717374 
   42200   -658.53302    77.117816   -581.41521    2339.6447     117804.1    10.472245   0.19843046 
   42300   -647.30338    73.124826   -574.17855     2218.503    132046.85    10.472245   0.28646885 
   42400   -653.34981    80.280157   -573.06966    2435.5856    127512.14    10.472245   0.24619802 
   42500   -653.86362    68.770922    -585.0927    2086.4118     121885.3    10.472245   0.23126174 
   42600   -646.92692    71.004611   -575.92231    2154.1787    130965.27    10.472245   0.27371427 
   42700   -653.52764    78.105747   -575.42189    2369.6171    124814.09    10.472245    0.2292604 
   42800   -665.62793    74.180189   -591.44774    2250.5212    108336.49    10.472245   0.19222892 
   42900   -654.34486    76.171511   -578.17335    2310.9351    124127.24    10.472245   0.23073081 
   43000   -649.05585    76.344474   -572.71137    2316.1826    130512.96    10.472245   0.25870134 
   43100   -655.73783     68.86576   -586.87207     2089.289    120882.06    10.472245   0.20153407 
   43200   -658.83668    78.285268   -580.55141    2375.0635     117102.8    10.472245   0.19045698 
   43300   -655.24045    79.318389   -575.92206    2406.4069    122940.71    10.472245   0.21467911 
   43400   -655.79953    77.646782   -578.15275    2355.6927    120487.72    10.472245   0.22133556 
   43500   -654.56456    70.390943   -584.17362    2135.5609    121929.13    10.472245   0.17666413 
   43600   -648.95954    71.647483   -577.31206    2173.6826    129394.42    10.472245   0.20409015 
   43700   -651.64345    78.519269   -573.12419    2382.1627    126318.45    10.472245   0.22080033 
   43800   -658.50376    74.048036   -584.45573    2246.5119     116073.2    10.472245   0.18252294 
   43900   -666.84949    68.857457   -597.99203    2089.0371    105423.67    10.472245   0.18470685 
   44000    -653.3593    70.631783   -582.72752    2142.8676    123545.03    10.472245   0.22786027 
   44100   -646.72097    73.007678   -573.71329    2214.9489    132746.04    10.472245    0.2816478 
   44200   -648.20234    72.161266   -576.04107      2189.27    129699.48    10.472245   0.29277212 
   44300   -656.37189    70.593921   -585.77797     2141.719    120660.59    10.472245   0.21380365 
   44400   -647.63012    75.535375   -572.09475    2291.6357    132415.32    10.472245   0.24268715 
   44500   -647.08694    71.780272   -575.30667    2177.7112    132779.28    10.472245   0.25519512 
   44600   -655.70436    70.164884   -585.53948    2128.7026    120743.28    10.472245    0.2472573 
   44700   -655.67942    68.189032   -587.49039    2068.7581    120247.09    10.472245   0.20592312 
   44800   -648.15406     73.11163   -575.04243    2218.1027    131977.72    10.472245    0.2371708 
   44900   -651.18174    77.447443    -573.7343    2349.6451    126422.84    10.472245   0.21389282 
   45000   -654.70261    70.694706   -584.00791    2144.7767     122300.1    10.472245   0.20262358 
   45100     -651.254     76.87516   -574.37884    2332.2828    128330.08    10.472245   0.21417658 
   45200   -649.87377    76.472848   -573.40092    2320.0773    129546.24    10.472245   0.24097452 
   45300   -655.69442     73.62601   -582.06841    2233.7082    122022.79    10.472245   0.20678309 
   45400    -654.3885    77.267945   -577.12055    2344.1993    122489.48    10.472245    0.1908408 
   45500   -648.53456    78.313558   -570.22101    2375.9218     131025.2    10.472245   0.22566621 
   45600   -660.97316    78.915144   -582.05801     2394.173    116808.62    10.472245   0.20459773 
   45700    -651.1533    72.695272   -578.45803     2205.471    127156.29    10.472245   0.20783947 
   45800   -646.21951    82.194264   -564.02524    2493.6569    136086.67    10.472245   0.23373019 
   45900    -650.0847    77.008385   -573.07632    2336.3247    128422.38    10.472245   0.26310626 
   46000   -646.93722    69.901694   -577.03553    2120.7178    132629.91    10.472245   0.25739478 
   46100   -653.39488    70.717778    -582.6771    2145.4766    121960.77    10.472245    0.2026382 
   46200    -650.4749    71.803968   -578.67093    2178.4301    127639.14    10.472245   0.25035436 
   46300   -647.44122    76.991943   -570.44928    2335.8259    132662.93    10.472245   0.25883725 
   46400   -656.92269    73.657415   -583.26527     2234.661     120266.5    10.472245   0.22253368 
   46500   -654.99894    77.570586   -577.42836    2353.3811    122073.45    10.472245   0.20848742 
   46600     -652.938    83.770784   -569.16721    2541.4862    126906.19    10.472245   0.20314783 
   46700   -656.88174    76.643474   -580.23826    2325.2538     119429.2    10.472245   0.19396008 
   46800   -659.75435    77.114056    -582.6403    2339.5306    116787.21    10.472245   0.19432039 
   46900   -648.91516    78.842266    -570.0729     2391.962    130772.21    10.472245    0.2405013 
   47000   -656.77071    80.970804   -575.79991    2456.5388    121486.02    10.472245   0.20106262 
   47100   -654.09101    74.155465   -579.93554    2249.7711    123034.92    10.472245    0.2321688 
   47200    -651.8603    75.885396    -575.9749    2302.2548    126244.29    10.472245   0.22495934 
   47300   -645.89505    76.653229   -569.24182    2325.5498    133440.73    10.472245   0.29475792 
   47400   -641.58846    70.664907   -570.92355    2143.8726    137342.29    10.472245    0.2919513 
   47500   -655.47094    76.621716   -578.84923    2324.5937    122563.41    10.472245   0.22144621 
   47600   -654.42284    76.742529   -577.68032     2328.259    123959.77    10.472245   0.20041803 
   47700   -649.37385    84.288695   -565.08516    2557.1989    132067.69    10.472245   0.23863413 
   47800   -650.84576    73.103884   -577.74187    2217.8677    126814.02    10.472245    0.2306003 
   47900   -650.81176    73.723079   -577.08868    2236.6532       127364    10.472245   0.23510079 
   48000   -639.94456    74.801372   -565.14319     2269.367    141234.67    10.472245   0.26012588 
   48100   -653.31208    74.202443   -579.10964    2251.1964     122715.1    10.472245   0.24516915 
   48200   -653.14147    74.188289   -578.95318     2250.767    124118.67    10.472245   0.21901795 
   48300   -647.40079    76.343351   -571.05744    2316.1485    131826.52    10.472245   0.24668575 
   48400    -651.2362    80.074072   -571.16212    2429.3333    128521.05    10.472245   0.28770147 
   48500   -655.41582    75.350057   -580.06577    2286.0134    120505.72    10.472245   0.20513469 
   48600   -642.78172    70.825245   -571.95647     2148.737     136669.1    10.472245    0.3308928 
   48700   -652.45579     83.93768   -568.51811    2546.5496    125507.48    10.472245   0.22889216 
   48800   -656.89667    77.893136   -579.00353    2363.1667    121059.75    10.472245   0.25904544 
   48900    -650.9922    79.999901    -570.9923     2427.083    128989.68    10.472245   0.23922887 
   49000   -650.19844     78.78587   -571.41257     2390.251    129030.26    10.472245   0.22995993 
   49100   -653.21628    73.463424   -579.75286    2228.7756    124676.03    10.472245   0.25171677 
   49200   -650.17047    79.103191   -571.06728    2399.8781    128153.21    10.472245   0.22759169 
   49300   -652.48012     69.00639   -583.47373    2093.5556    123758.14    10.472245   0.21829055 
   49400   -655.80772    74.075871   -581.73185    2247.3564     121045.6    10.472245   0.19473282 
   49500     -646.154    70.695884   -575.45812    2144.8124    130716.01    10.472245   0.26078121 
   49600   -653.67462    75.515348   -578.15927    2291.0281    124515.06    10.472245   0.22556289 
   49700   -657.66949    80.031306   -577.63819    2428.0358     120594.8    10.472245   0.17744221 
   49800    -649.6689      78.7983    -570.8706    2390.6281    131010.81    10.472245   0.23116282 
   49900    -653.2766    68.506971   -584.76963    2078.4039    122371.91    10.472245    0.2287984 
   50000   -656.27508    80.267562   -576.00752    2435.2035    122434.91    10.472245   0.17882518 
   50100   -656.04381    79.521346   -576.52247    2412.5643    121947.27    10.472245   0.22039844 
   50200   -656.32846    77.271264    -579.0572       2344.3    120587.95    10.472245   0.23216331 
   50300   -653.07529    70.850431   -582.22486    2149.5011    123785.33    10.472245   0.24461075 
   50400    -652.9726    83.225686   -569.74692    2524.9487    126986.99    10.472245   0.25077227 
   50500   -654.17018    73.105018   -581.06516    2217.9021    122717.14    10.472245     0.258958 
   50600   -654.84065    76.548578   -578.29208    2322.3748    122143.56    10.472245   0.22800534 
   50700   -650.94142    81.746559   -569.19486    2480.0741    130179.67    10.472245   0.24771769 
   50800   -649.64277    86.417475    -563.2253    2621.7831    132644.29    10.472245   0.25405031 
   50900   -657.13262    78.008106   -579.12451    2366.6548    120709.03    10.472245   0.19961444 
   51000   -655.23054    76.541669   -578.68887    2322.1652    122123.28    10.472245     0.192842 
   51100   -652.56726    83.991513   -568.57575    2548.1828    128505.96    10.472245   0.25183014 
   51200   -650.82905    67.464293   -583.36476    2046.7705    126463.58    10.472245   0.24385034 
   51300   -647.41779    68.598094   -578.81969    2081.1684    129732.04    10.472245   0.23650614 
   51400   -648.66873    79.542098   -569.12663    2413.1939    131819.26    10.472245   0.24635655 
   51500   -650.85863    76.943636   -573.91499    2334.3603    126324.54    10.472245   0.26036725 
   51600   -646.33684    69.221898   -577.11494    2100.0937     130785.9    10.472245   0.26790696 
   51700   -656.40241    72.587806    -583.8146    2202.2106    121060.34    10.472245    0.1948271 
   51800   -654.23316    78.206302   -576.02686    2372.6678    125910.02    10.472245   0.19090302 
   51900    -648.5499    73.055384   -575.49452    2216.3963    129838.23    10.472245   0.25108056 
   52000   -653.94701    65.175631   -588.77138    1977.3358    121900.57    10.472245    0.2449145 
   52100   -654.27191    71.320254   -582.95166    2163.7549    121466.05    10.472245   0.20936993 
   52200   -649.25897    73.436901   -575.82207    2227.9709    128560.23    10.472245   0.20154612 
   52300   -658.25478    76.863878    -581.3909    2331.9406    119799.07    10.472245   0.20653302 
   52400   -651.45565    68.130828   -583.32482    2066.9922    126418.83    10.472245   0.19374732 
   52500   -652.49351    78.230707    -574.2628    2373.4082    128064.34    10.472245    0.1966193 
   52600   -660.28195    81.093033   -579.18892    2460.2471    115564.94    10.472245    0.1951611 
   52700   -652.76578    79.217477    -573.5483    2403.3454    125565.06    10.472245   0.21623649 
   52800    -645.9294    79.395588   -566.53381     2408.749    132398.24    10.472245   0.23752789 
   52900   -651.04198    73.182769   -577.85921    2220.2609    127993.35    10.472245   0.26692139 
   53000   -651.73045    77.846879   -573.88357    2361.7634    126453.33    10.472245   0.25307279 
   53100   -644.37081    76.512081   -567.85873    2321.2675    135477.27    10.472245   0.26917329 
   53200    -653.7412    71.838646   -581.90256    2179.4822    121295.92    10.472245     0.195763 
   53300   -653.95862     75.46092    -578.4977    2289.3768    124364.62    10.472245   0.19591395 
   53400   -647.10551    80.627196   -566.47831    2446.1143    133707.54    10.472245   0.26772968 
   53500   -646.55772    83.861374   -562.69635    2544.2346    133761.94    10.472245   0.27220033 
   53600   -649.67925    69.769173   -579.91008    2116.6973    126696.22    10.472245   0.23099725 
   53700   -650.52708     72.99654   -577.53054     2214.611     127145.5    10.472245   0.24803122 
   53800   -651.51638    80.829624   -570.68676    2452.2556    128143.26    10.472245   0.27572007 
   53900   -657.46927    71.911611   -585.55766    2181.6958    117437.14    10.472245   0.21586522 
   54000   -653.48544    75.156126   -578.32931    2280.1298    124540.59    10.472245   0.19529503 
   54100   -650.52065    78.268522   -572.25212    2374.5554    127156.85    10.472245    0.2052833 
   54200   -658.96134    71.330903   -587.63044     2164.078    115730.67    10.472245   0.23137862 
   54300   -653.42125     78.54359   -574.87766    2382.9006    125346.21    10.472245   0.22805986 
   54400   -647.28581     76.23039   -571.05542    2312.7214    131244.45    10.472245    0.2684198 
   54500   -648.90649    66.118012   -582.78848    2005.9263    128939.82    10.472245   0.25692925 
   54600   -655.76375    78.291626   -577.47212    2375.2564    122081.84    10.472245   0.18046419 
   54700   -649.16787     81.05203   -568.11584    2459.0031    130161.64    10.472245   0.21277193 
   54800   -651.49487    79.745827   -571.74904    2419.3748    126181.87    10.472245   0.27872978 
   54900   -654.03385     79.55456   -574.47929     2413.572    123605.34    10.472245   0.23200016 
   55000   -656.20271    72.633028   -583.56968    2203.5826    120549.53    10.472245   0.21558014 
   55100   -657.33807    78.046968    -579.2911    2367.8338    119702.43    10.472245   0.18746066 
   55200   -652.45113    77.817629    -574.6335     2360.876     125765.6    10.472245   0.21831592 
   55300   -657.45519    76.137087   -581.31811    2309.8907     119005.6    10.472245   0.22016111 
   55400   -648.24475    78.369085   -569.87566    2377.6064    131096.88    10.472245   0.30702716 
   55500   -643.27254    71.784952   -571.48758    2177.8532    136184.57    10.472245   0.27803878 
   55600   -655.92286    75.017312   -580.90555    2275.9184    121709.65    10.472245   0.22969912 
   55700   -650.01022    75.719754   -574.29047    2297.2295    129625.63    10.472245   0.23051733 
   55800   -650.98425    78.399413   -572.58483    2378.5265    128207.38    10.472245   0.23030199 
   55900   -657.78899    72.758395    -585.0306     2207.386    118658.03    10.472245   0.17488328 
   56000   -652.04053    77.209738   -574.83079    2342.4334    127771.91    10.472245   0.20539497 
   56100   -646.93569    71.286452   -575.64924    2162.7294    131702.38    10.472245   0.22043695 
   56200   -651.18968    72.112861   -579.07682    2187.8015    127086.21    10.472245   0.20726769 
   56300   -651.00434    76.989475   -574.01487     2335.751    129213.79    10.472245   0.19811717 
   56400   -650.42572    75.045819    -575.3799    2276.7832    127815.78    10.472245   0.22376699 
   56500     -651.881    68.719938   -583.16106     2084.865    122941.02    10.472245   0.20046577 
   56600   -648.74808    76.242273    -572.5058    2313.0819    129244.43    10.472245    0.2065287 
   56700    -651.2822    77.554714   -573.72749    2352.8995    127292.53    10.472245   0.23362225 
   56800   -656.13203     72.13019   -584.00184    2188.3272     120949.4    10.472245   0.20805307 
   56900   -653.45674     76.92318   -576.53356    2333.7397    126552.16    10.472245   0.20125069 
   57000   -651.99253     70.39987   -581.59266    2135.8317    124785.46    10.472245    0.2238947 
   57100   -653.10685    65.720083   -587.38677    1993.8537    122440.15    10.472245   0.19605854 
   57200   -648.15018     73.37511   -574.77507    2226.0963    131520.24    10.472245   0.26945516 
   57300   -646.98484    75.326302   -571.65854    2285.2927       132066    10.472245   0.29269941 
   57400   -652.40922    68.506503   -583.90272    2078.3897    124423.73    10.472245   0.25334735 
   57500    -652.1699    75.765151   -576.40475    2298.6067    123993.44    10.472245   0.25376029 
   57600   -647.01885    74.310707   -572.70815     2254.481    132077.26    10.472245   0.22709449 
   57700   -653.29884    74.690204   -578.60863    2265.9944    125144.45    10.472245    0.2327343 
   57800   -652.74741    74.751446   -577.99596    2267.8524    124209.44    10.472245   0.22197702 
   57900   -651.88197    75.447891   -576.43408    2288.9815    126537.42    10.472245   0.25058076 
   58000   -646.31931    79.669809    -566.6495    2417.0685     134380.7    10.472245   0.26097395 
   58100   -649.96569    74.033915   -575.93177    2246.0835    128690.25    10.472245   0.23897631 
   58200   -650.57166    71.736654   -578.83501    2176.3879    128341.97    10.472245   0.26776071 
   58300   -643.54811    72.359362   -571.18875      2195.28    137383.42    10.472245     0.238253 
   58400   -650.00201    73.808173   -576.19384    2239.2348    130044.43    10.472245   0.24002354 
   58500   -654.12417      70.6872   -583.43697    2144.5489    121937.96    10.472245   0.25780759 
   58600   -648.86042     73.00073   -575.85969    2214.7381    129148.33    10.472245   0.23867019 
   58700   -652.69027    73.768546   -578.92172    2238.0326    125396.57    10.472245   0.23931484 
   58800   -652.64382    67.661843   -584.98198    2052.7639    124289.89    10.472245   0.22523595 
   58900   -644.59239    73.078241   -571.51415    2217.0897    133827.18    10.472245   0.27503343 
   59000   -654.80366    78.278643   -576.52502    2374.8625    123126.54    10.472245   0.20027388 
   59100   -652.23634    71.720114   -580.51622    2175.8861    125835.88    10.472245   0.19227439 
   59200   -652.44785    80.555733   -571.89211    2443.9462    128408.37    10.472245   0.23306155 
   59300   -648.79413    77.477625    -571.3165    2350.5608    130044.69    10.472245   0.26635518 
   59400   -654.68868    74.884087   -579.80459    2271.8765    123161.21    10.472245   0.21044972 
   59500   -652.13152    73.132203   -578.99932    2218.7268    126487.23    10.472245    0.2065187 
   59600   -646.15684    76.398844   -569.75799    2317.8321    133900.97    10.472245   0.22718428 
   59700   -647.26768    66.378495   -580.88918     2013.829    129798.87    10.472245   0.26276203 
   59800   -654.91023    79.442512   -575.46772    2410.1726    121173.76    10.472245   0.23266578 
   59900   -644.41291    81.293569   -563.11934    2466.3311    136876.02    10.472245   0.26386358 
   60000   -652.11179    81.201766   -570.91003    2463.5459    127261.14    10.472245   0.22342631 
   60100   -656.87214    77.195815   -579.67633     2342.011    122262.91    10.472245   0.18957078 
   60200   -647.99089    74.297357   -573.69353    2254.0759    132035.45    10.472245   0.20587898 
   60300   -648.06427    77.690786   -570.37349    2357.0277    132573.62    10.472245   0.28356574 
   60400   -658.22074    74.108582   -584.11216    2248.3488       117298    10.472245   0.21384005 
   60500   -648.28541    73.886309   -574.39911    2241.6053    129845.58    10.472245   0.24295641 
   60600    -651.9691    76.556606   -575.41249    2322.6184    126474.63    10.472245   0.22081799 
   60700   -651.85237    73.930167    -577.9222    2242.9359    127167.26    10.472245   0.20873468 
   60800   -651.44694    74.882821   -576.56412    2271.8381    126057.89    10.472245   0.25286225 
   60900   -645.91139     80.36876   -565.54263    2438.2737    133377.66    10.472245   0.25957212 
   61000   -649.21303    69.018746   -580.19428    2093.9304     128897.4    10.472245   0.26615958 
   61100   -644.99741     70.49978   -574.49763    2138.8629     133705.7    10.472245   0.25194414 
   61200   -649.47878    79.398817   -570.07996     2408.847    131427.74    10.472245   0.26069806 
   61300   -653.26928    72.886841   -580.38244    2211.2829    124411.18    10.472245   0.23647528 
   61400   -648.98341    68.583933   -580.39948    2080.7388    128474.07    10.472245   0.21253104 
   61500   -643.35371    74.550664   -568.80305    2261.7609    136470.13    10.472245   0.27720128 
   61600   -653.27665    71.060538   -582.21611    2155.8755    123292.25    10.472245   0.25046086 
   61700   -650.59086    68.871192   -581.71967    2089.4538    126777.01    10.472245   0.26519188 
   61800   -648.15701    75.811665   -572.34535    2300.0179    131768.68    10.472245   0.25163169 
   61900   -653.03966    77.075146   -575.96452    2338.3501    125567.32    10.472245   0.23563574 
   62000   -658.39327    67.622965   -590.77031    2051.5844    116752.75    10.472245   0.19423297 
   62100   -657.48836    77.208055    -580.2803    2342.3824    119558.19    10.472245   0.20260012 
   62200   -648.33671    74.488222   -573.84848    2259.8665    131649.19    10.472245   0.24272009 
   62300   -651.02592    74.765955   -576.25997    2268.2926    126334.82    10.472245   0.30185165 
   62400   -654.59161    78.835426   -575.75618    2391.7545    125018.67    10.472245   0.21188514 
   62500   -654.78486     75.61689   -579.16797    2294.1087    122611.69    10.472245   0.22161065 
   62600   -652.90911    75.942583   -576.96653    2303.9898     123380.8    10.472245    0.2634223 
   62700   -650.51697    81.604736   -568.91223    2475.7714     127141.4    10.472245   0.28066055 
   62800   -657.85863    73.376117   -584.48251    2226.1268    117937.18    10.472245   0.21414205 
   62900    -654.1015     74.68378   -579.41772    2265.7995    123122.43    10.472245   0.20620808 
   63000   -653.11833    79.848614   -573.26972    2422.4932    125650.58    10.472245   0.22955727 
   63100   -642.84879    79.136569   -563.71222    2400.8907     137702.2    10.472245   0.27064619 
   63200   -656.10242    77.929067   -578.17336    2364.2569    120802.43    10.472245   0.20733921 
   63300   -650.36248    74.364384    -575.9981    2256.1094    126907.47    10.472245   0.24826536 
   63400   -643.12734    75.215297   -567.91205    2281.9249    135582.21    10.472245   0.25238703 
   63500   -653.48382    69.233497   -584.25032    2100.4457    120843.56    10.472245   0.22242692 
   63600   -648.72126    76.131076   -572.59019    2309.7084     130312.5    10.472245   0.25605018 
   63700   -655.71782    78.816502   -576.90132    2391.1804    122884.52    10.472245   0.18572647 
   63800   -661.78822    80.523276   -581.26494    2442.9615    114309.06    10.472245   0.18542936 
   63900   -647.60574    74.293872   -573.31187    2253.9702    132115.29    10.472245   0.20602048 
   64000   -662.99454    74.522099   -588.47244    2260.8943    113017.78    10.472245   0.17499413 
   64100   -655.51071    73.703344   -581.80737    2236.0544    121644.42    10.472245   0.19247125 
   64200   -645.67637    73.315749   -572.36062    2224.2954     132342.3    10.472245   0.24296632 
   64300   -656.55797    75.870681   -580.68729    2301.8084    120949.81    10.472245   0.23541657 
   64400   -657.30289     70.55936   -586.74353    2140.6705    118187.54    10.472245   0.20957624 
   64500   -649.89849     72.11436   -577.78413    2187.8469    127685.77    10.472245   0.22533956 
   64600   -647.66643    76.224059   -571.44237    2312.5294    132882.23    10.472245   0.26929248 
   64700   -641.22499    80.161621   -561.06337    2431.9894    140636.84    10.472245   0.33790803 
   64800   -650.12181    77.928621   -572.19319    2364.2433    128108.41    10.472245   0.25510841 
   64900     -650.783    72.158926   -578.62408     2189.199    125938.38    10.472245   0.24434167 
   65000   -652.75062    74.164744   -578.58588    2250.0527    126517.51    10.472245   0.23412628 
   65100   -650.48702    82.124395   -568.36263    2491.5371    130835.44    10.472245   0.22371326 
   65200   -653.12252    72.976709   -580.14581    2214.0094    125535.96    10.472245   0.22971295 
   65300   -656.03979    75.885067   -580.15472    2302.2448    121078.22    10.472245   0.18962261 
   65400   -652.33053    75.389352   -576.94118    2287.2055    125146.03    10.472245   0.25987018 
   65500     -642.253    81.124434   -561.12857    2461.1997    139801.08    10.472245   0.28381375 
   65600   -652.05085     80.29887   -571.75198    2436.1533    127270.12    10.472245    0.2371243 
   65700   -651.84456    72.578435   -579.26613    2201.9263    124962.54    10.472245   0.22719008 
   65800   -653.85228     78.17574   -575.67654    2371.7406    125273.69    10.472245   0.24241318 
   65900   -649.60602     79.94246   -569.66356    2425.3403    129477.68    10.472245   0.27082415 
   66000    -653.4453     73.99438   -579.45091    2244.8841    124086.87    10.472245   0.24257488 
   66100   -652.31921    76.029446   -576.28977    2306.6251    126984.76    10.472245   0.20940565 
   66200   -645.84238    80.223427   -565.61895    2433.8645     136309.2    10.472245   0.26789911 
   66300   -646.25932     71.30109   -574.95823    2163.1735    133502.71    10.472245   0.26862677 
   66400   -658.96752    77.196081   -581.77144    2342.0191     117761.3    10.472245   0.20070726 
   66500   -653.16702    83.507413   -569.65961    2533.4959    127294.17    10.472245   0.20766824 
   66600   -655.07611     82.52463   -572.55148    2503.6797    123811.81    10.472245   0.22904585 
   66700   -650.60789    71.320332   -579.28756    2163.7573    125383.36    10.472245   0.23445344 
   66800    -648.6375    73.407451   -575.23005    2227.0775    128465.43    10.472245   0.24325711 
   66900   -643.42701    78.679268   -564.74775    2387.0169    139235.14    10.472245   0.24787905 
   67000   -653.54995    75.122803   -578.42715    2279.1188    123998.11    10.472245    0.2400849 
   67100    -652.6402    75.349693   -577.29051    2286.0023    124788.73    10.472245   0.26121752 
   67200   -650.07767    83.870329   -566.20734    2544.5063    129939.97    10.472245   0.23018599 
   67300    -656.0802    74.835479   -581.24472    2270.4018    120387.49    10.472245   0.21514433 
   67400   -647.76436    71.353984   -576.41038    2164.7782    130029.98    10.472245   0.26385998 
   67500   -644.60913    72.318608   -572.29052    2194.0435    133488.21    10.472245   0.24863366 
   67600   -652.81227    75.585438   -577.22683    2293.1545    126468.78    10.472245   0.20958849 
   67700   -651.48454    73.778198   -577.70634    2238.3254    126135.54    10.472245   0.19340694 
   67800   -654.65541    71.202309    -583.4531    2160.1766    123295.18    10.472245   0.23769011 
   67900   -647.89304    73.682736    -574.2103    2235.4292    130232.78    10.472245   0.26816826 
   68000    -644.8433    73.531414   -571.31189    2230.8383    137093.17    10.472245   0.28435045 
   68100   -655.97974    67.338615   -588.64113    2042.9576     118756.2    10.472245   0.19099197 
   68200   -653.23562    76.242326   -576.99329    2313.0836    125242.14    10.472245   0.21566819 
   68300   -646.49003    76.341373   -570.14865    2316.0885    134794.11    10.472245   0.25871864 
   68400   -657.97912    74.296446   -583.68267    2254.0483    116788.95    10.472245   0.19581611 
   68500   -651.97238    72.688601   -579.28378    2205.2686    127046.67    10.472245   0.19614013 
   68600   -651.01573    78.957506   -572.05822    2395.4582    127469.91    10.472245   0.23565306 
   68700   -651.40634    74.896354   -576.50999    2272.2487    126520.06    10.472245    0.2275693 
   68800   -657.53706    80.607417   -576.92965    2445.5142    121117.97    10.472245   0.19757389 
   68900   -659.37575    76.231977   -583.14378    2312.7696    117167.63    10.472245    0.1627538 
   69000   -653.99232     71.83197   -582.16035    2179.2796    122581.38    10.472245   0.21008834 
   69100   -652.80965    80.764413   -572.04524    2450.2772    127566.43    10.472245   0.22246261 
   69200   -655.18919    71.599061   -583.59013    2172.2135     119965.8    10.472245   0.20031116 
   69300   -660.96446    77.107647   -583.85681    2339.3361    114573.69    10.472245   0.17108638 
   69400   -658.14515    84.452926   -573.69222    2562.1814    120331.93    10.472245   0.20151435 
   69500   -654.96108    74.934085   -580.02699    2273.3934    121880.14    10.472245   0.21628506 
   69600   -655.42672    68.287706   -587.13901    2071.7517    121155.78    10.472245   0.18604842 
   69700   -651.12141    75.573283   -575.54813    2292.7857    127600.99    10.472245   0.23465631 
   69800   -648.33405    73.369072   -574.96498    2225.9131    129292.45    10.472245   0.24886166 
   69900   -659.62895    70.513454    -589.1155    2139.2777    115493.14    10.472245   0.16734378 
   70000   -655.68922    73.837346   -581.85188    2240.1199    121400.07    10.472245   0.21659643 
   70100   -657.24317    81.593613   -575.64956     2475.434    122815.87    10.472245   0.19415978 
   70200   -652.69164      73.7932   -578.89844    2238.7805    124234.93    10.472245   0.20662331 
   70300   -658.00267    73.175621   -584.82705    2220.0441    118029.13    10.472245   0.20175581 
   70400    -653.0589    79.674741   -573.38416    2417.2181    126164.77    10.472245   0.23841254 
   70500   -650.90443    72.683512   -578.22092    2205.1142    126905.68    10.472245   0.23103276 
   70600   -660.76976    68.803939   -591.96582    2087.4135    113344.62    10.472245   0.16508701 
   70700   -657.24594    71.530348   -585.71559    2170.1288     119380.6    10.472245   0.17533149 
   70800   -654.66589    79.168967   -575.49692    2401.8737    125288.34    10.472245   0.20410354 
   70900   -649.88047    74.835484   -575.04499     2270.402    129068.53    10.472245   0.23584107 
   71000   -656.34197    70.170972     -586.171    2128.8873    117994.69    10.472245   0.19664714 
   71100   -651.63739    77.015823   -574.62157    2336.5503    126879.79    10.472245   0.24391265 
   71200    -649.3556    71.974075   -577.38152    2183.5909    128635.69    10.472245   0.22528572 
   71300   -650.86888    72.293015   -578.57586    2193.2671    126602.93    10.472245   0.22761266 
   71400   -652.62038    82.455038   -570.16534    2501.5684    126052.95    10.472245   0.19229124 
   71500   -651.34669    69.043415   -582.30328    2094.6789    127009.78    10.472245   0.24201138 
   71600   -650.87873    74.408152   -576.47058    2257.4373    128183.57    10.472245   0.20744087 
   71700   -642.84482    71.370456   -571.47436    2165.2779    136711.92    10.472245   0.28363766 
   71800   -651.20919    70.300821   -580.90837    2132.8268    127841.33    10.472245   0.22166574 
   71900   -651.68771    73.475231   -578.21247    2229.1338    124858.97    10.472245   0.19723144 
   72000   -650.04369    79.415238   -570.62845    2409.3452    129754.26    10.472245   0.19718801 
   72100   -653.41292    70.304837   -583.10808    2132.9486    124594.21    10.472245   0.23314716 
   72200    -649.9662    73.159963   -576.80623     2219.569    129691.47    10.472245   0.22718613 
   72300   -648.86093    73.664993   -575.19594    2234.8909    130411.04    10.472245   0.23232061 
   72400   -653.88733     64.36312   -589.52421    1952.6854    121341.26    10.472245   0.21222316 
   72500   -652.09751    75.820716   -576.27679    2300.2925    126025.02    10.472245   0.21182179 
   72600   -654.67054    79.146835    -575.5237    2401.2022    123652.61    10.472245   0.19307653 
   72700   -658.65914    73.593955   -585.06518    2232.7357     116928.6    10.472245   0.20285522 
   72800   -649.82404    72.054388   -577.76966    2186.0275    129382.45    10.472245   0.21965347 
   72900   -648.74609    73.124906   -575.62118    2218.5055    129842.25    10.472245   0.22267553 
   73000   -657.51946    71.545839   -585.97362    2170.5988    117605.37    10.472245   0.17301061 
   73100   -649.87233    72.177703   -577.69463    2189.7687    129388.13    10.472245   0.23987697 
   73200   -653.26607    81.020313   -572.24575    2458.0409    125932.77    10.472245   0.25303986 
   73300   -660.38829    75.201618   -585.18667      2281.51     114487.5    10.472245   0.19968505 
   73400   -651.76333    68.600579   -583.16275    2081.2438    123925.97    10.472245   0.21587593 
   73500   -648.71112    72.897064   -575.81406    2211.5931    129990.45    10.472245   0.20314671 
   73600   -654.02819    68.378828   -585.64937    2074.5162    120222.94    10.472245   0.22091655 
   73700   -654.56344    67.906093   -586.65734    2060.1741    120144.02    10.472245   0.22246351 
   73800    -648.3261    70.610233   -577.71587    2142.2139    129612.98    10.472245   0.24700977 
   73900   -650.99198    79.647228   -571.34475    2416.3834    127614.44    10.472245   0.20703662 
   74000    -657.2054    73.796989   -583.40841    2238.8955    119146.85    10.472245   0.21452591 
   74100    -650.9691    73.540895    -577.4282     2231.126    126953.55    10.472245   0.23162759 
   74200   -648.06763    72.760244   -575.30738    2207.4421    131709.79    10.472245   0.22142118 
   74300   -652.84096    73.842096   -578.99886     2240.264    124697.29    10.472245   0.21265506 
   74400   -643.60495     66.05751   -577.54744    2004.0907    133908.56    10.472245   0.22338756 
   74500   -644.01686    78.903015   -565.11385    2393.8051    137811.89    10.472245   0.27785785 
   74600   -657.76515     78.95688   -578.80827    2395.4392    118785.39    10.472245   0.21396443 
   74700   -651.69785    73.591773   -578.10607    2232.6695    125099.93    10.472245   0.24516448 
   74800   -638.98116    75.055491   -563.92567    2277.0766    143023.19    10.472245   0.39093694 
   74900   -625.53909    79.743446   -545.79564    2419.3025       160110    10.472245   0.50499446 
   75000   -632.31654    75.356592   -556.95995    2286.2116    151509.49    10.472245    0.5750156 
   75100    -629.6995    69.944325   -559.75518    2122.0111    156149.69    10.472245   0.88571435 
   75200   -638.70446    86.766257    -551.9382    2632.3646    146537.61    10.472245   0.89459981 
   75300   -635.95256    74.112546   -561.84002     2248.469    149074.43    10.472245    1.1912074 
   75400   -634.75966     69.44825   -565.31141     2106.961     149309.3    10.472245    1.2332017 
   75500    -652.1277    74.692134   -577.43556    2266.0529    126850.09    10.472245    1.2964526 
   75600   -644.11525    74.972833   -569.14241    2274.5689     136066.2    10.472245    1.3225501 
   75700   -639.65134    78.327166   -561.32418    2376.3346    142683.27    10.472245    1.5384151 
   75800   -655.09769     82.61196   -572.48573    2506.3292    125787.16    10.472245    1.5160241 
   75900   -652.97611    71.262841   -581.71327    2162.0131     122686.2    10.472245    1.6787167 
   76000   -655.86955    68.729022   -587.14053    2085.1406    120791.54    10.472245    1.5189589 
   76100    -650.8209    73.049527   -577.77137    2216.2186    127573.38    10.472245    1.6492955 
   76200   -650.43756    80.759559     -569.678    2450.1299    128898.58    10.472245    1.6783843 
   76300   -652.44621    79.590269   -572.85594    2414.6554    126470.81    10.472245    1.6294718 
   76400   -655.16914    73.553172   -581.61597    2231.4985     122141.2    10.472245    1.6470221 
   76500   -645.88459    75.936057   -569.94853    2303.7918    132795.14    10.472245    1.8308985 
   76600   -639.09162    70.408745   -568.68288     2136.101    142514.76    10.472245    1.6955294 
   76700   -650.45242    73.120365   -577.33206    2218.3677    126593.79    10.472245    1.6195971 
   76800   -651.00803    71.448132    -579.5599    2167.6345    127564.18    10.472245    1.8298014 
   76900   -651.88826    84.008139   -567.88013    2548.6872    128830.95    10.472245    1.6183784 
   77000   -652.22709    75.179036   -577.04806    2280.8248     125470.9    10.472245    1.6476954 
   77100    -651.0284    71.790647   -579.23775    2178.0259    125823.81    10.472245    1.6312041 
   77200   -646.17314    75.298775   -570.87437    2284.4575     135953.9    10.472245    1.6450515 
   77300   -650.85217    82.615789   -568.23638    2506.4453    129931.25    10.472245    1.6160922 
   77400   -651.32031     71.00321    -580.3171    2154.1362    125565.74    10.472245    1.7486114 
   77500    -649.7653    78.787846   -570.97745     2390.311    127988.38    10.472245    1.7017275 
   77600   -652.14258    76.661393   -575.48119    2325.7974    126616.23    10.472245    1.7060194 
   77700    -660.9348    83.816918   -577.11789    2542.8859       115919    10.472245    1.6249432 
   77800   -643.43058    71.233152   -572.19742    2161.1123    136105.95    10.472245    1.7047559 
   77900   -652.35042    75.077086   -577.27334    2277.7318    126292.15    10.472245    1.6916933 
   78000   -653.14508    73.083945   -580.06114    2217.2628     123731.1    10.472245    1.7197628 
[...]
  481400    -650.2867    77.287578   -572.99912     2344.795    127404.54    10.472245    2.4361518 
  481500   -645.76397    69.865176   -575.89879    2119.6099    132219.04    10.472245    2.5426335 
  481600   -650.19104    73.031287   -577.15975    2215.6652    128361.17    10.472245    2.5208278 
  481700   -657.73832    70.589732   -587.14859    2141.5919    118258.79    10.472245    2.5056139 
  481800   -651.46562    74.556683   -576.90893    2261.9435    126856.98    10.472245    2.5013293 
  481900   -648.84484     70.45908   -578.38576    2137.6281    130109.01    10.472245    2.4791509 
  482000   -652.81209    67.141069   -585.67102    2036.9644    123858.75    10.472245    2.5367865 
  482100   -654.27728    78.861974    -575.4153    2392.5599    124398.69    10.472245    2.3925589 
  482200   -650.65586    75.081185   -575.57468    2277.8562    127208.38    10.472245    2.6109545 
  482300   -659.61441    73.162063   -586.45235    2219.6328    116238.94    10.472245    2.3913236 
  482400   -651.50557    69.448755   -582.05681    2106.9763    125862.52    10.472245    2.3503192 
  482500   -651.99982    76.790995   -575.20883    2329.7294    125598.67    10.472245    2.3660054 
  482600   -652.52342    75.797466   -576.72595    2299.5871    125114.19    10.472245    2.5795881 
  482700   -656.76281    70.518558   -586.24425    2139.4326     119223.3    10.472245    2.3996305 
  482800   -650.20084     75.97547   -574.22537    2304.9875    130511.19    10.472245    2.3781332 
  482900   -656.19327    78.830129   -577.36314    2391.5938    121252.88    10.472245    2.5114146 
  483000   -658.47231    68.767776   -589.70454    2086.3163    115487.51    10.472245    2.4774497 
  483100   -656.91862     81.63815   -575.28047    2476.7851    121412.29    10.472245    2.3681235 
  483200   -650.68067    77.240408   -573.44026    2343.3639    128516.26    10.472245    2.5202033 
  483300   -657.05337    72.638159   -584.41521    2203.7383    119645.16    10.472245    2.5028889 
  483400   -644.49583    74.226097   -570.26974     2251.914    136635.07    10.472245     2.540218 
  483500   -649.75839    73.130476   -576.62791    2218.6744    129416.37    10.472245    2.4953539 
  483600   -653.28745    72.577491   -580.70995    2201.8977     125167.1    10.472245    2.4577069 
  483700   -641.92727    75.352332   -566.57493    2286.0824    141280.58    10.472245     2.428596 
  483800    -652.2742    72.292949   -579.98125    2193.2651    127037.54    10.472245    2.4968349 
  483900   -655.01001    75.431739   -579.57828    2288.4915    123759.58    10.472245    2.3142305 
  484000   -653.63467    84.954516   -568.68016     2577.399    127407.82    10.472245    2.4730803 
  484100    -653.7722    70.558749   -583.21345    2140.6519    123207.22    10.472245    2.5417554 
  484200   -655.27762    76.224332   -579.05329    2312.5376    122692.91    10.472245    2.4232317 
  484300   -647.50031    78.223992   -569.27632    2373.2045    134689.77    10.472245    2.4699856 
  484400   -647.64413     77.22531   -570.41882    2342.9059    134388.24    10.472245     2.350682 
  484500    -653.4293    70.884834   -582.54446    2150.5449    125012.93    10.472245    2.5207846 
  484600   -654.48453    80.966567   -573.51797    2456.4103       123652    10.472245    2.5181839 
  484700   -653.32508    78.798377   -574.52671    2390.6305    126049.78    10.472245     2.380638 
  484800   -653.89388    69.622707   -584.27117    2112.2537    122873.09    10.472245    2.5344123 
  484900   -650.03584    75.541994   -574.49385    2291.8365       129277    10.472245    2.4745154 
  485000   -656.29854    76.693826   -579.60472    2326.7814    119026.92    10.472245    2.4116561 
  485100     -657.008    67.251306    -589.7567    2040.3088    118894.48    10.472245    2.5317941 
  485200   -656.49899    78.318817   -578.18017    2376.0813    120004.22    10.472245    2.5676286 
  485300   -648.91055    77.832953    -571.0776    2361.3409     131648.5    10.472245    2.3687159 
  485400   -653.42716    80.747445   -572.67971    2449.7624    124788.67    10.472245    2.4760332 
  485500   -654.76165    73.859377   -580.90227    2240.7883    121827.35    10.472245    2.4623892 
  485600   -644.09071    73.512579   -570.57814    2230.2669    136289.15    10.472245    2.5810689 
  485700   -646.69332    81.624062   -565.06926    2476.3577    133736.28    10.472245    2.4575008 
  485800   -653.42119    74.052617   -579.36857    2246.6509    123830.79    10.472245    2.3939675 
  485900   -652.91785    72.765703   -580.15215    2207.6078    124245.56    10.472245    2.5528301 
  486000   -653.89776    83.739592   -570.15817    2540.5399    124800.62    10.472245    2.4254125 
  486100   -654.90148     75.99685   -578.90463    2305.6362    121923.43    10.472245    2.5167356 
  486200   -653.37915    74.214161   -579.16498    2251.5519    124174.11    10.472245    2.5151548 
  486300    -654.7036    78.470456   -576.23314    2380.6818    123766.49    10.472245    2.4935571 
  486400   -656.42743    81.673438   -574.75399    2477.8557    122214.19    10.472245    2.4779147 
  486500    -651.7777    75.686727   -576.09098    2296.2275    127958.07    10.472245    2.4746927 
  486600   -658.14599    73.535759   -584.61023    2230.9702     118620.7    10.472245    2.4965704 
  486700   -650.56757    81.212025   -569.35555    2463.8571     129275.8    10.472245    2.4167488 
  486800   -648.08681    74.233105    -573.8537    2252.1266    130702.97    10.472245    2.4819581 
  486900   -657.82561    72.772069   -585.05354    2207.8009    116404.94    10.472245     2.492406 
  487000   -654.22802    74.240691   -579.98733    2252.3568    123370.57    10.472245    2.5200997 
  487100   -654.52191    79.354068   -575.16784    2407.4893    123535.63    10.472245    2.3841453 
  487200   -648.41294    77.694607   -570.71833    2357.1437    131270.11    10.472245    2.6646235 
  487300   -650.66948      72.6662   -578.00328     2204.589    125688.02    10.472245    2.4822722 
  487400   -653.83999    69.207351   -584.63264    2099.6524    124164.35    10.472245    2.3875733 
  487500   -652.07645    81.897737   -570.17871    2484.6607    126628.71    10.472245    2.6137831 
  487600   -653.62678    72.754381    -580.8724    2207.2643    124198.59    10.472245    2.4712523 
  487700   -650.46207    69.517848   -580.94422    2109.0724    126847.62    10.472245    2.4743923 
  487800   -653.11034     75.63807   -577.47227    2294.7513    124185.91    10.472245    2.4673384 
  487900   -650.09862    74.039575   -576.05904    2246.2552    129989.92    10.472245    2.5365424 
  488000   -642.77064    70.798631   -571.97201    2147.9296    138072.26    10.472245    2.4868087 
  488100   -657.21376    74.566419   -582.64735    2262.2389    119795.35    10.472245    2.4689462 
  488200   -648.91175    70.448313   -578.46343    2137.3014    130326.98    10.472245    2.5326162 
  488300    -642.2627    79.601885   -562.66081    2415.0078    140311.66    10.472245    2.5949048 
  488400   -648.17504    82.429021   -565.74602     2500.779    132685.61    10.472245    2.4593134 
  488500   -659.80316    80.142865    -579.6603    2431.4203    117302.02    10.472245    2.5561707 
  488600   -655.15773    76.609459   -578.54827    2324.2218    123850.51    10.472245     2.495108 
  488700   -645.82975    75.869195   -569.96056    2301.7633    134666.72    10.472245    2.5345641 
  488800   -655.25548    79.462753   -575.79273    2410.7867    122436.27    10.472245    2.4057374 
  488900   -655.88985    78.690857   -577.19899    2387.3685    121187.35    10.472245    2.4874838 
  489000   -664.03917    74.812108   -589.22706    2269.6928    110063.48    10.472245    2.4108085 
  489100   -649.60649    73.267161   -576.33933    2222.8213    127538.88    10.472245    2.4428396 
  489200   -652.58812    78.098708   -574.48941    2369.4035    125848.02    10.472245    2.4545492 
  489300   -652.81776    67.823828   -584.99394    2057.6783    122365.57    10.472245    2.5333263 
  489400   -650.09712     78.52777   -571.56935    2382.4207    129395.34    10.472245    2.4528747 
  489500   -656.54852    82.548588   -573.99993    2504.4065    121057.32    10.472245    2.4540077 
  489600   -660.81712    79.744333   -581.07278    2419.3294    115392.47    10.472245    2.4000742 
  489700   -646.68153    73.420846   -573.26069    2227.4839    133763.53    10.472245    2.4816861 
  489800   -652.35204    84.063897   -568.28815    2550.3788     125881.1    10.472245    2.4782446 
  489900   -652.78855    72.813414   -579.97513    2209.0552    123606.95    10.472245    2.5285011 
  490000   -651.64743     75.22661   -576.42082    2282.2682    126526.83    10.472245    2.4948641 
  490100   -647.49482    77.192722    -570.3021    2341.9172    131949.49    10.472245    2.5106517 
  490200   -656.52959    73.598485   -582.93111    2232.8732    118370.42    10.472245    2.4993368 
  490300   -662.64086     69.73542   -592.90544    2115.6733    110125.24    10.472245    2.5120072 
  490400   -648.07466    68.979137   -579.09552    2092.7287    128138.89    10.472245    2.5294061 
  490500   -652.54364    82.402138    -570.1415    2499.9634    127102.49    10.472245    2.4005063 
  490600   -659.22404    75.611779   -583.61226    2293.9536    117705.84    10.472245    2.5263524 
  490700   -652.38066    71.434456    -580.9462    2167.2196    124837.52    10.472245     2.526595 
  490800   -650.95773      79.9469   -571.01083     2425.475    129565.77    10.472245    2.4467272 
  490900   -656.93469    76.486007   -580.44868    2320.4765    119139.39    10.472245    2.4985757 
  491000   -653.89159    73.551701   -580.33989    2231.4538    123342.74    10.472245    2.3778858 
  491100   -652.37846    75.205985   -577.17247    2281.6424    126002.45    10.472245    2.3896948 
  491200   -655.47032    81.101286   -574.36903    2460.4975    123228.42    10.472245    2.5761602 
  491300   -656.05592    75.852352   -580.20357    2301.2523    120734.47    10.472245    2.4179757 
  491400   -657.47027    81.665996   -575.80427      2477.63    119401.42    10.472245     2.469182 
  491500   -651.14839    81.262607   -569.88579    2465.3917    128678.24    10.472245     2.489147 
  491600   -657.30294    72.694772   -584.60817    2205.4558    118468.85    10.472245    2.4999978 
  491700    -661.7321     69.75606   -591.97604    2116.2995    111641.44    10.472245    2.4172501 
  491800   -648.94954    72.862952   -576.08659    2210.5582    127610.29    10.472245    2.6034248 
  491900   -643.95399    70.748088   -573.20591    2146.3962     135282.5    10.472245    2.4242499 
  492000   -655.40042    71.460585   -583.93983    2168.0123    120720.84    10.472245    2.4412698 
  492100   -648.38833    71.421444   -576.96689    2166.8248    129208.56    10.472245    2.4900112 
  492200   -645.96291    76.215945   -569.74697    2312.2832    133933.74    10.472245    2.5355503 
  492300    -656.1175     73.76581   -582.35169    2237.9496    120518.83    10.472245     2.562818 
  492400   -648.22785    67.497945    -580.7299    2047.7915    128848.47    10.472245    2.4222037 
  492500   -652.16649    74.896037   -577.27046    2272.2391    125558.12    10.472245    2.4578577 
  492600   -648.42434    71.997411   -576.42693    2184.2989    129862.56    10.472245     2.382551 
  492700   -652.19112    77.483315    -574.7078    2350.7334    126250.62    10.472245      2.53969 
  492800   -650.58386    71.040914   -579.54294    2155.2801    126461.32    10.472245    2.4680938 
  492900   -655.81621    67.805012    -588.0112    2057.1074    118333.69    10.472245    2.5142712 
  493000   -655.62359    81.406861   -574.21673    2469.7682    121593.63    10.472245    2.3638687 
  493100   -653.32755    74.192166   -579.13538    2250.8846    124688.16    10.472245    2.4924674 
  493200   -655.84197    67.230071    -588.6119    2039.6646    120541.11    10.472245    2.4441432 
  493300   -651.96462    77.277993   -574.68663    2344.5042    126778.45    10.472245    2.3928911 
  493400    -649.7525    75.083384   -574.66911    2277.9229     128990.2    10.472245    2.5141208 
  493500   -655.46988    68.675009   -586.79487    2083.5019    120782.25    10.472245    2.4833751 
  493600    -646.6002    72.939613   -573.66058    2212.8839    131299.51    10.472245    2.5224354 
  493700     -655.261    78.743668   -576.51733    2388.9707    122844.68    10.472245    2.5182121 
  493800   -662.61352    75.761645   -586.85188    2298.5004     113771.7    10.472245    2.3687253 
  493900   -652.71387    68.980384   -583.73349    2092.7666    123632.38    10.472245     2.410181 
  494000   -655.38259    82.752888    -572.6297    2510.6047    122874.95    10.472245    2.4200017 
  494100   -651.51836    70.493226   -581.02513     2138.664    126609.69    10.472245    2.4577247 
  494200   -660.35477    73.385109   -586.96966    2226.3997    112885.52    10.472245    2.4769027 
  494300     -648.704    77.760775   -570.94323    2359.1511     131287.9    10.472245    2.5115476 
  494400   -651.50798    71.117766   -580.39021    2157.6117    125120.67    10.472245    2.3679164 
  494500   -650.69907    69.549516   -581.14955    2110.0332     125769.3    10.472245    2.5626418 
  494600   -649.26721    80.252482   -569.01473     2434.746    129738.07    10.472245    2.4259798 
  494700    -654.1345     72.63182   -581.50269    2203.5459    123697.82    10.472245    2.4655005 
  494800   -656.40179    78.048574   -578.35322    2367.8825    120410.65    10.472245    2.4500267 
  494900   -649.17874    76.678639    -572.5001    2326.3206    130665.41    10.472245    2.5178994 
  495000   -657.25238    70.519531   -586.73285    2139.4621    118169.04    10.472245    2.3636357 
  495100   -648.43448    71.267793   -577.16669    2162.1633    129712.22    10.472245     2.454715 
  495200   -653.36518    80.013874   -573.35131    2427.5069    125053.75    10.472245    2.5021845 
  495300   -656.96058    73.825174   -583.13541    2239.7506    118092.65    10.472245    2.3057825 
  495400   -652.22554    74.854289   -577.37125    2270.9725    125970.59    10.472245    2.5174366 
  495500   -651.98499    78.348009   -573.63698     2376.967    126870.48    10.472245    2.4854549 
  495600   -644.17226    81.812515   -562.35974    2482.0751    139938.43    10.472245    2.4740129 
  495700   -653.20076    75.873027   -577.32774    2301.8795    123614.76    10.472245    2.3494234 
  495800   -652.86845     75.35507   -577.51338    2286.1655     125774.9    10.472245    2.4148657 
  495900   -643.61618    76.610102   -567.00608    2324.2413     137677.1    10.472245    2.4475234 
  496000   -652.22731    70.162864   -582.06444    2128.6413    124906.89    10.472245    2.4438166 
  496100   -652.22463    74.897068   -577.32756    2272.2703    125839.75    10.472245    2.4323254 
  496200   -649.10882    78.774672   -570.33415    2389.9113    130367.05    10.472245    2.4693959 
  496300   -649.94557    74.127907   -575.81766    2248.9351    129400.35    10.472245    2.5358102 
  496400   -655.58186    72.084013   -583.49785    2186.9263    120970.02    10.472245    2.4702276 
  496500   -654.91268    75.152394   -579.76029    2280.0165    121941.89    10.472245    2.4290437 
  496600    -646.9185    75.502858   -571.41564    2290.6491    133348.92    10.472245    2.5282113 
  496700    -654.2176     70.35305   -583.86455    2134.4113    123319.93    10.472245    2.3616851 
  496800   -653.27347    70.657315   -582.61615    2143.6423    123797.04    10.472245    2.5072854 
  496900   -656.32968    80.398879    -575.9308    2439.1874    120880.95    10.472245    2.4428895 
  497000   -656.67237    77.021454   -579.65091    2336.7212    121833.66    10.472245    2.4381628 
  497100   -656.59146     67.43405   -589.15741     2045.853    118401.65    10.472245    2.4597029 
  497200   -648.31585     70.59762   -577.71823    2141.8312    130163.89    10.472245    2.5471019 
  497300   -653.50144    80.047053   -573.45439    2428.5135    123940.22    10.472245     2.425894 
  497400   -649.51529    67.285666   -582.22962    2041.3512    127005.53    10.472245      2.65312 
  497500   -652.05005    70.379203   -581.67084    2135.2048    125212.21    10.472245    2.4828986 
  497600   -647.30482    76.583945   -570.72088    2323.4478    132047.38    10.472245    2.4661838 
  497700   -658.37516    75.992907   -582.38226    2305.5165    117995.76    10.472245    2.3802219 
  497800   -655.51694    71.326246   -584.19069    2163.9367    122133.86    10.472245    2.5250768 
  497900   -652.63133    75.551792   -577.07954    2292.1337    125191.23    10.472245    2.4280139 
  498000   -646.97811    77.927402   -569.05071    2364.2064    134187.03    10.472245     2.459997 
  498100   -640.36206    73.549312   -566.81275    2231.3813    142615.39    10.472245    2.6130997 
  498200   -653.56617    73.783853   -579.78231     2238.497    124599.07    10.472245    2.5433984 
  498300   -652.38289    74.684714   -577.69818    2265.8278    125983.85    10.472245    2.5279306 
  498400    -647.1884    80.288295    -566.9001    2435.8325    134022.74    10.472245    2.4334229 
  498500   -660.15919     82.86148   -577.29771    2513.8992     116970.8    10.472245    2.4385678 
  498600   -652.69077    71.431831   -581.25894      2167.14    123555.86    10.472245     2.582151 
  498700   -644.63812    79.905928   -564.73219     2424.232    137468.49    10.472245    2.4646477 
  498800   -647.18686    73.442327   -573.74453    2228.1356    132223.84    10.472245    2.4436188 
  498900   -647.67226    72.892787   -574.77947    2211.4633    131987.58    10.472245    2.5603794 
  499000    -656.1191     73.27961   -582.83949     2223.199    120158.21    10.472245    2.5179558 
  499100   -656.65023    74.109723   -582.54051    2248.3834    119433.05    10.472245    2.3691081 
  499200   -645.77725    74.595575   -571.18167    2263.1235    133911.39    10.472245    2.5203966 
  499300   -655.29998    75.150603   -580.14937    2279.9622    122114.33    10.472245     2.406205 
  499400   -650.06604    68.828763   -581.23728    2088.1666    129535.14    10.472245    2.6241794 
  499500   -654.81497    78.011124   -576.80384    2366.7463    122574.84    10.472245    2.4075829 
  499600    -655.0342    73.723478   -581.31073    2236.6653    122204.78    10.472245    2.4570059 
  499700   -656.57226    68.159972   -588.41229    2067.8764    119126.85    10.472245    2.4238133 
  499800   -650.70056    75.110279   -575.59029    2278.7388    129206.04    10.472245    2.5716622 
  499900   -651.40032    72.597541   -578.80278     2202.506    125588.38    10.472245    2.4231512 
  500000   -656.08787    68.175654   -587.91221    2068.3522    119278.17    10.472245    2.5561925 
Loop time of 374.875 on 1 procs for 500000 steps with 256 atoms

Performance: 576.191 ns/day, 0.042 hours/ns, 1333.776 timesteps/s
100.0% CPU use with 1 MPI tasks x no OpenMP threads

MPI task timing breakdown:
Section |  min time  |  avg time  |  max time  |%varavg| %total
---------------------------------------------------------------
Pair    | 223.38     | 223.38     | 223.38     |   0.0 | 59.59
Neigh   | 18.277     | 18.277     | 18.277     |   0.0 |  4.88
Comm    | 4.0494     | 4.0494     | 4.0494     |   0.0 |  1.08
Output  | 0.12995    | 0.12995    | 0.12995    |   0.0 |  0.03
Modify  | 128.33     | 128.33     | 128.33     |   0.0 | 34.23
Other   |            | 0.7142     |            |       |  0.19

Nlocal:    256 ave 256 max 256 min
Histogram: 1 0 0 0 0 0 0 0 0 0
Nghost:    1449 ave 1449 max 1449 min
Histogram: 1 0 0 0 0 0 0 0 0 0
Neighs:    13227 ave 13227 max 13227 min
Histogram: 1 0 0 0 0 0 0 0 0 0

Total # of neighbors = 13227
Ave neighs/atom = 51.668
Neighbor list builds = 32899
Dangerous builds = 64
Total wall time: 0:06:14
