LAMMPS (3 Mar 2020)

    # ---------- Initialize simulation ---------------------
    units metal
    atom_style atomic
    dimension  3
    boundary   p p p
    read_data /home/modeler/RemLabs/Lab4/Problem2A_size_7/temp_200/lammps.data
  orthogonal box = (0 0 0) to (28.63 28.63 28.63)
  1 by 1 by 1 MPI processor grid
  reading atoms ...
  1372 atoms
  read_data CPU = 0.00193879 secs

    pair_style eam
    pair_coeff * * /usr/share/lammps-stable/potentials/Ag_u3.eam
Reading potential file /usr/share/lammps-stable/potentials/Ag_u3.eam with DATE: 2007-06-11

    velocity  all create 200 87287 dist gaussian

    # ---------- Describe computed properties------------------
    compute msdall all msd
    thermo_style custom step pe ke etotal temp press density c_msdall[4]
    thermo 100

    # ---------- Specify ensemble  ---------------------
    #fix  1 all nve
    fix  1 all nvt temp 200 200 0.05

    # --------- Compute RDF ---------------
    compute rdfall all rdf 100 1 1
    fix 2 all ave/time 1 2500 2500 c_rdfall[*] file /home/modeler/RemLabs/Lab4/Problem2A_size_7/temp_200/lammps.rdf mode vector

    # --------- Run -------------
    timestep 0.001
    run 10000
Neighbor list info ...
  update every 1 steps, delay 10 steps, check yes
  max neighbors/atom: 2000, page size: 100000
  master list distance cutoff = 7.55
  ghost atom cutoff = 7.55
  binsize = 3.775, bins = 8 8 8
  2 neighbor lists, perpetual/occasional/extra = 1 1 0
  (1) pair eam, perpetual
      attributes: half, newton on
      pair build: half/bin/atomonly/newton
      stencil: half/bin/3d/newton
      bin: standard
  (2) compute rdf, occasional, copy from (1)
      attributes: half, newton on
      pair build: copy
      stencil: none
      bin: none
Per MPI rank memory allocation (min/avg/max) = 3.83 | 3.83 | 3.83 Mbytes
Step PotEng KinEng TotEng Temp Press Density c_msdall[4] 
       0      -3910.2    35.443132   -3874.7569          200    1613.1379    10.472245            0 
     100   -3888.6678     19.01246   -3869.6553    107.28431    6565.2046    10.472245  0.011018642 
     200   -3887.5853    31.520038   -3856.0653     177.8626    7691.0301    10.472245  0.011390581 
     300   -3879.5838     37.42942   -3842.1544    211.20831     10112.34    10.472245  0.015508485 
     400   -3875.6649    40.834019   -3834.8309    230.41992    11417.296    10.472245  0.017018598 
     500    -3876.293    38.328926   -3837.9641    216.28408    11078.727    10.472245  0.017041516 
     600   -3878.0727    37.370337   -3840.7024    210.87491    10613.187    10.472245  0.015048111 
     700   -3876.6091      37.4309   -3839.1782    211.21666    11058.749    10.472245  0.014076221 
     800   -3875.8808    37.159551   -3838.7212    209.68548    11285.617    10.472245  0.013922621 
     900   -3875.4387    33.362643   -3842.0761    188.26013    11100.334    10.472245  0.016082906 
    1000   -3875.6804     39.84666   -3835.8337    224.84842    11585.157    10.472245  0.014805463 
    1100   -3873.7129     31.76114   -3841.9518     179.2231    11554.955    10.472245  0.017623367 
    1200    -3875.372    37.536767   -3837.8352    211.81405    11450.255    10.472245  0.017131668 
    1300   -3873.6644    34.855563   -3838.8088    196.68444    11710.976    10.472245  0.017674247 
    1400   -3874.6514    35.935485    -3838.716    202.77827     11596.83    10.472245  0.015040859 
    1500   -3876.8056    34.663907   -3842.1417    195.60295    10925.056    10.472245  0.014045723 
    1600   -3875.5734    36.651173   -3838.9222    206.81679     11406.35    10.472245  0.014131782 
    1700   -3872.4221    32.805935   -3839.6162    185.11871     12066.31    10.472245  0.016215889 
    1800   -3874.9901    35.675479   -3839.3146     201.3111    11480.012    10.472245  0.015650688 
    1900   -3875.9003    36.124978   -3839.7753    203.84755     11162.16    10.472245  0.016429789 
    2000   -3874.2541    36.828648   -3837.4255    207.81825    11739.471    10.472245  0.016411555 
    2100   -3873.6465    33.378701   -3840.2678    188.35074    11689.542    10.472245  0.016812706 
    2200   -3875.4388    35.836363   -3839.6025    202.21894    11364.278    10.472245  0.015861354 
    2300   -3874.8816    36.151103   -3838.7305    203.99497    11474.781    10.472245  0.015442664 
    2400   -3875.3817    35.999738   -3839.3819    203.14084    11387.398    10.472245  0.014452443 
    2500   -3876.9348    37.525824    -3839.409    211.75231    11000.284    10.472245  0.013814138 
    2600   -3874.7293    34.271181   -3840.4581    193.38687    11459.013    10.472245  0.016321994 
    2700   -3873.6626    34.987142   -3838.6754    197.42692    11772.292    10.472245  0.017628927 
    2800   -3874.4284     35.85431   -3838.5741    202.32021    11590.746    10.472245  0.017750926 
    2900   -3874.8738     35.76126   -3839.1125    201.79515    11459.167    10.472245  0.017223187 
    3000   -3873.3961    34.273081    -3839.123    193.39759    11796.238    10.472245   0.01589114 
    3100   -3876.4655    37.842769   -3838.6228    213.54077    11165.654    10.472245  0.013097016 
    3200   -3874.6562    35.241861   -3839.4143    198.86426    11496.353    10.472245  0.015001812 
    3300   -3874.4604    35.079674   -3839.3807    197.94907    11541.222    10.472245  0.015960713 
    3400   -3875.6348    36.922708   -3838.7121    208.34902    11339.497    10.472245  0.015728427 
    3500    -3875.448      34.9521   -3840.4959    197.22919    11298.656    10.472245  0.016483394 
    3600   -3874.2909    35.761918    -3838.529    201.79886    11663.844    10.472245  0.016757017 
    3700   -3873.4492    35.164842   -3838.2843    198.42965    11875.094    10.472245  0.016503413 
    3800   -3876.4909    35.150947     -3841.34    198.35125    11053.825    10.472245  0.014150506 
    3900   -3876.0135    35.578418   -3840.4351     200.7634    11216.858    10.472245  0.013345877 
    4000   -3874.5077    34.492532   -3840.0152    194.63591     11576.13    10.472245  0.014947459 
    4100    -3873.916    36.227842   -3837.6882      204.428    11822.983    10.472245  0.016332615 
    4200   -3874.2086    35.203983   -3839.0046    198.65052    11666.902    10.472245  0.017134213 
    4300   -3875.6725     34.15803   -3841.5145    192.74838    11196.637    10.472245  0.016686835 
    4400   -3875.4669    35.686725   -3839.7802    201.37456    11375.792    10.472245  0.015589569 
    4500   -3874.1898    34.957988   -3839.2318    197.26241    11703.832    10.472245  0.014978644 
    4600   -3873.5872    33.539553   -3840.0477     189.2584    11782.315    10.472245  0.015406611 
    4700    -3875.415    35.810676   -3839.6043    202.07399    11431.761    10.472245   0.01500047 
    4800   -3874.4868    34.393609   -3840.0932    194.07771     11524.89    10.472245  0.016212276 
    4900   -3874.1785    36.463944   -3837.7146    205.76028    11743.848    10.472245  0.016139363 
    5000   -3875.2518    34.971893   -3840.2799    197.34088    11347.478    10.472245  0.016094683 
    5100   -3874.9735     35.70664   -3839.2668    201.48693    11496.421    10.472245  0.016277299 
    5200   -3872.6951    35.268652   -3837.4265    199.01544    12045.775    10.472245  0.017337603 
    5300   -3874.4774    36.548933   -3837.9285    206.23986    11670.479    10.472245  0.015486219 
    5400   -3876.6812    35.946851   -3840.7343    202.84241    11023.542    10.472245  0.014238305 
    5500   -3875.2201     35.09668   -3840.1235    198.04503    11392.559    10.472245  0.015023255 
    5600   -3874.7293    35.624876   -3839.1044    201.02555     11519.24    10.472245  0.015250436 
    5700   -3875.7248    35.543909   -3840.1809    200.56867    11274.544    10.472245  0.015460829 
    5800   -3875.0865    34.361597   -3840.7249    193.89707     11353.32    10.472245  0.016233043 
    5900   -3875.3717    36.316204   -3839.0555    204.92661    11381.501    10.472245    0.0159741 
    6000   -3875.0236    36.024184   -3838.9994    203.27878    11481.175    10.472245  0.015444205 
    6100   -3874.5676    34.335042   -3840.2325    193.74723    11555.641    10.472245  0.014697255 
    6200   -3876.0564     34.74728   -3841.3091    196.07342    11124.885    10.472245  0.014281218 
    6300   -3875.1674    36.301376    -3838.866    204.84293    11472.441    10.472245  0.014864409 
    6400   -3874.6253    34.852702   -3839.7726     196.6683    11516.064    10.472245   0.01563558 
    6500   -3874.3771    34.918866   -3839.4582    197.04165    11635.877    10.472245  0.016141126 
    6600   -3875.0883    35.060155   -3840.0282    197.83892    11406.194    10.472245  0.016234668 
    6700   -3874.1076    35.462703   -3838.6449    200.11044     11715.61    10.472245  0.016379229 
    6800   -3873.7072    34.623558   -3839.0837    195.37528    11795.625    10.472245  0.015902825 
    6900   -3874.4546    33.902956   -3840.5517    191.30903    11518.322    10.472245  0.014847673 
    7000   -3875.0231    35.782206   -3839.2409    201.91334    11526.629    10.472245  0.014055975 
    7100   -3876.2909     35.11077   -3841.1801    198.12453    11093.963    10.472245  0.014474828 
    7200    -3875.032    34.091953   -3840.9401    192.37551    11411.961    10.472245  0.015840731 
    7300   -3874.4465    35.298221   -3839.1483    199.18229    11630.544    10.472245  0.016130156 
    7400   -3873.5452    35.350817   -3838.1944    199.47908    11882.215    10.472245  0.015932462 
    7500   -3874.3153     34.29951   -3840.0158    193.54672    11663.099    10.472245  0.015214585 
    7600   -3875.0132    35.740863   -3839.2724    201.68005    11506.966    10.472245  0.014314106 
    7700   -3874.8351    34.307379   -3840.5277    193.59113    11494.751    10.472245  0.014529655 
    7800    -3874.754    33.573438   -3841.1806    189.44961    11497.898    10.472245  0.015045152 
    7900     -3873.86    34.796521   -3839.0635    196.35128    11782.272    10.472245  0.015854164 
    8000   -3874.0141    35.791221   -3838.2229    201.96422    11795.687    10.472245  0.016121866 
    8100   -3875.6977    34.987107   -3840.7106    197.42673    11221.505    10.472245  0.015596431 
    8200   -3876.1202    37.065523   -3839.0547     209.1549    11233.685    10.472245  0.014943747 
    8300   -3874.4327    35.626998   -3838.8057    201.03753    11630.797    10.472245  0.015743211 
    8400   -3875.0914    36.553691   -3838.5377    206.26671    11484.983    10.472245  0.014584681 
    8500   -3877.0948    36.011614   -3841.0831    203.20785    10884.632    10.472245  0.013871954 
    8600   -3876.4576    36.367533   -3840.0901    205.21625    11094.107    10.472245  0.014684395 
    8700   -3874.2587    35.637038   -3838.6216    201.09418    11639.676    10.472245  0.015821667 
    8800   -3874.1917    35.275913   -3838.9158    199.05641    11693.421    10.472245  0.015680892 
    8900   -3875.0952    35.224341   -3839.8708     198.7654    11405.775    10.472245  0.015261612 
    9000   -3875.2603      35.3275   -3839.9328    199.34751    11381.139    10.472245  0.015372768 
    9100   -3874.9475    36.199746   -3838.7478    204.26945    11535.749    10.472245  0.015241939 
    9200   -3875.4701    35.998414   -3839.4717    203.13337    11355.133    10.472245  0.014656036 
    9300   -3876.6173     36.41744   -3840.1998    205.49787     11090.76    10.472245  0.014323123 
    9400   -3873.2166    36.145843   -3837.0707    203.96529    11995.066    10.472245  0.015769187 
    9500   -3875.1419    35.778231   -3839.3637    201.89091     11474.87    10.472245  0.014995999 
    9600   -3875.4455     34.63006   -3840.8154    195.41197    11325.469    10.472245   0.01528402 
    9700   -3873.2334    34.924623   -3838.3088    197.07413    11926.843    10.472245   0.01663476 
    9800   -3872.9497    35.003163   -3837.9466    197.51733    12021.548    10.472245  0.016187551 
    9900   -3875.1896    34.930808   -3840.2588    197.10904    11427.509    10.472245  0.014214555 
   10000   -3874.9213    34.590226   -3840.3311    195.18719    11489.424    10.472245   0.01402846 
Loop time of 23.5155 on 1 procs for 10000 steps with 1372 atoms

Performance: 36.742 ns/day, 0.653 hours/ns, 425.251 timesteps/s
100.0% CPU use with 1 MPI tasks x no OpenMP threads

MPI task timing breakdown:
Section |  min time  |  avg time  |  max time  |%varavg| %total
---------------------------------------------------------------
Pair    | 16.095     | 16.095     | 16.095     |   0.0 | 68.44
Neigh   | 0          | 0          | 0          |   0.0 |  0.00
Comm    | 0.16297    | 0.16297    | 0.16297    |   0.0 |  0.69
Output  | 0.0050052  | 0.0050052  | 0.0050052  |   0.0 |  0.02
Modify  | 7.1817     | 7.1817     | 7.1817     |   0.0 | 30.54
Other   |            | 0.07085    |            |       |  0.30

Nlocal:    1372 ave 1372 max 1372 min
Histogram: 1 0 0 0 0 0 0 0 0 0
Nghost:    3258 ave 3258 max 3258 min
Histogram: 1 0 0 0 0 0 0 0 0 0
Neighs:    58996 ave 58996 max 58996 min
Histogram: 1 0 0 0 0 0 0 0 0 0

Total # of neighbors = 58996
Ave neighs/atom = 43
Neighbor list builds = 0
Dangerous builds = 0
    
Total wall time: 0:00:23
