LAMMPS (3 Mar 2020)
Reading data file ...
  orthogonal box = (0 0 0) to (17.469 17.469 17.469)
  1 by 1 by 1 MPI processor grid
  reading atoms ...
  217 atoms
  read_data CPU = 0.000998507 secs
Reading potential file library.meam with DATE: 2012-06-29
Reading potential file LiSi.meam with DATE: 2020-11-07
1 atoms in group Li
Neighbor list info ...
  update every 1 steps, delay 10 steps, check yes
  max neighbors/atom: 2000, page size: 100000
  master list distance cutoff = 6
  ghost atom cutoff = 6
  binsize = 3, bins = 6 6 6
  2 neighbor lists, perpetual/occasional/extra = 2 0 0
  (1) pair meam/c, perpetual
      attributes: full, newton on
      pair build: full/bin/atomonly
      stencil: full/bin/3d
      bin: standard
  (2) pair meam/c, perpetual, half/full from (1)
      attributes: half, newton on
      pair build: halffull/newton
      stencil: none
      bin: none
Setting up Verlet run ...
  Unit style    : metal
  Current step  : 0
  Time step     : 0.00307924
Per MPI rank memory allocation (min/avg/max) = 9.27 | 9.27 | 9.27 Mbytes
Step PotEng KinEng TotEng Temp Press Density c_msdli[4] 
       0   -951.06911    50.256344   -900.81276         1800    -114182.3    1.8918427            0 
     100   -952.24253     36.23434   -916.00819    1297.7827    13142.362    2.2208479   0.50016522 
     200   -953.24716    44.056564    -909.1906    1577.9464    26842.432    2.2526537    0.3051622 
     300   -946.49869     41.79271   -904.70598    1496.8633   -17658.682    2.1296698   0.51161657 
     400   -950.39166    49.597618   -900.79405    1776.4068   -16919.778    2.1349828   0.48298596 
     500   -946.89045    51.150585   -895.73987    1832.0285    21685.642    2.2230264  0.065527515 
     600    -940.1999    48.542899     -891.657    1738.6306    3547.3454    2.1666699  0.015692134 
     700   -939.02455    48.710567   -890.31398    1744.6359   -18658.929    2.1085607   0.30681525 
     800   -939.55346    53.769139   -885.78432    1925.8156    2842.2163    2.1643763  0.091886997 
     900   -945.39506    49.833309   -895.56175    1784.8484     15470.67    2.2114668   0.42395916 
    1000   -938.90502    45.499804   -893.40521     1629.638   -11550.165    2.1335067   0.20963501 
    1100   -940.14306    50.761348   -889.38171    1818.0874   -8822.5578    2.1348438   0.30253853 
    1200   -939.04743    50.394561   -888.65287    1804.9504    17267.441    2.1986377   0.41499087 
    1300   -944.67949    47.355855   -897.32364     1696.115     3208.615     2.178706   0.41934351 
    1400   -940.04475    52.511308   -887.53345    1880.7646   -17092.421    2.1143035  0.078362487 
    1500   -937.96279    50.155526   -887.80726     1796.389    6890.7492    2.1712962  0.046964852 
    1600   -943.73365    52.524666   -891.20899     1881.243    9150.7759    2.1878309   0.44119702 
    1700   -939.61013    47.323708   -892.28642    1694.9636   -10006.695     2.134803   0.10608488 
    1800   -933.58399    51.631652   -881.95234    1849.2585   -9734.8776    2.1204714  0.092656304 
    1900   -940.43578    51.739247   -888.69653    1853.1122    17041.317    2.2001052   0.27885662 
    2000   -937.91328    46.105982    -891.8073    1651.3491    2207.8326    2.1637604    0.1537457 
    2100   -935.56998    47.861495   -887.70848    1714.2252    -12038.98    2.1171744   0.52748527 
    2200   -933.24983    53.032851   -880.21697    1899.4444    5842.5527    2.1560557   0.24903502 
    2300   -945.66089    54.835614   -890.82527    1964.0128    12995.818    2.1998817  0.082691751 
    2400   -940.79911    49.483885   -891.31522    1772.3333   -10297.038     2.129352  0.026057652 
    2500   -935.22177    48.765656   -886.45611    1746.6089    -5063.143    2.1334398   0.31878759 
    2600   -948.38813    52.432169   -895.95596    1877.9301    11793.556     2.206134   0.28109069 
    2700   -938.46613    44.586061   -893.88007     1596.911    3334.4094    2.1680413   0.69232307 
    2800   -939.66193    50.337965   -889.32396    1802.9234   -12732.085    2.1288146   0.28368593 
    2900   -939.29815    51.359221   -887.93893     1839.501    4694.1173    2.1680953    0.1003887 
    3000   -944.24394    47.209299   -897.03464    1690.8659    12670.808    2.2017397    0.4194996 
    3100   -941.94336     53.58892   -888.35444    1919.3608   -12029.088    2.1289084    1.7062176 
    3200    -937.4871    49.606757   -887.88034    1776.7341    -3878.889    2.1417461    0.5520476 
    3300   -939.91253    49.904212   -890.00832    1787.3879     10513.75    2.1871474    7.7291091 
    3400   -943.87341      45.7532   -898.12021    1638.7137   -2916.2417    2.1665273    5.9582098 
    3500   -939.03007    51.004544   -888.02553    1826.7978    -11360.88    2.1252008    6.7090181 
    3600   -938.96305    51.711595   -887.25145    1852.1218    8500.3327     2.176164    7.9436624 
    3700   -942.59618    50.322838   -892.27334    1802.3816    8953.7919    2.1864108    5.7385175 
    3800   -937.85023    47.641129   -890.20911    1706.3325   -9363.4583    2.1296918    3.2427031 
    3900   -937.22269    53.457974   -883.76471    1914.6708   -7008.7498    2.1341224   0.96448111 
    4000   -939.47828    51.301481    -888.1768     1837.433    10655.932    2.1830675     1.617178 
    4100   -940.69887    49.528299   -891.17057    1773.9241      4101.24    2.1720248   0.47572419 
    4200   -933.91026    52.821028   -881.08924    1891.8577   -13331.713    2.1159302    6.3615999 
    4300   -940.83559    53.871879   -886.96371    1929.4953   -1029.2326    2.1599839    5.6080673 
    4400   -939.87286    49.841767   -890.03109    1785.1513    9099.2728    2.1823559   0.20554785 
    4500   -942.95803    51.786759   -891.17127    1854.8139   -6611.3413    2.1483552   0.17602555 
    4600   -935.89344     54.19561   -881.69783    1941.0902   -4823.6635    2.1329545   0.30895406 
    4700   -941.23935    56.414216   -884.82514    2020.5526    5553.2567    2.1713016   0.40111805 
    4800   -940.20728    49.808568   -890.39871    1783.9623   -1213.5197     2.159562   0.73029237 
    4872   -934.39592    44.032653   -890.36327    1577.0899    3645.3015     2.160173   0.03521525 
Loop time of 3.42812 on 1 procs for 4872 steps with 217 atoms

Performance: 378.102 ns/day, 0.063 hours/ns, 1421.189 timesteps/s
100.1% CPU use with 1 MPI tasks x no OpenMP threads

MPI task timing breakdown:
Section |  min time  |  avg time  |  max time  |%varavg| %total
---------------------------------------------------------------
Pair    | 3.2472     | 3.2472     | 3.2472     |   0.0 | 94.72
Neigh   | 0.10462    | 0.10462    | 0.10462    |   0.0 |  3.05
Comm    | 0.023446   | 0.023446   | 0.023446   |   0.0 |  0.68
Output  | 0.0013465  | 0.0013465  | 0.0013465  |   0.0 |  0.04
Modify  | 0.044335   | 0.044335   | 0.044335   |   0.0 |  1.29
Other   |            | 0.007211   |            |       |  0.21

Nlocal:    217 ave 217 max 217 min
Histogram: 1 0 0 0 0 0 0 0 0 0
Nghost:    955 ave 955 max 955 min
Histogram: 1 0 0 0 0 0 0 0 0 0
Neighs:    4170 ave 4170 max 4170 min
Histogram: 1 0 0 0 0 0 0 0 0 0
FullNghs:  8340 ave 8340 max 8340 min
Histogram: 1 0 0 0 0 0 0 0 0 0

Total # of neighbors = 8340
Ave neighs/atom = 38.4332
Neighbor list builds = 179
Dangerous builds = 3
Total wall time: 0:00:03
