LAMMPS (3 Mar 2020)

    # ---------- Initialize simulation ---------------------
    units metal
    atom_style atomic
    dimension  3
    boundary   p p p
    read_data /home/modeler/RemLabs/Lab4/Problem2A_v1_size_5/temp_2320/lammps.data
  orthogonal box = (0 0 0) to (20.45 20.45 20.45)
  1 by 1 by 1 MPI processor grid
  reading atoms ...
  500 atoms
  read_data CPU = 0.00113515 secs

    pair_style eam
    pair_coeff * * /usr/share/lammps-stable/potentials/Ag_u3.eam
Reading potential file /usr/share/lammps-stable/potentials/Ag_u3.eam with DATE: 2007-06-11

    velocity  all create 2320 87287 dist gaussian

    # ---------- Describe computed properties------------------
    compute msdall all msd
    thermo_style custom step pe ke etotal temp press density c_msdall[4]
    thermo 100

    # ---------- Specify ensemble  ---------------------
    #fix  1 all nve
    fix  1 all nvt temp 2320 2320 0.25

    # --------- Compute RDF ---------------
    compute rdfall all rdf 100 1 1
    fix 2 all ave/time 1 125000 125000 c_rdfall[*] file /home/modeler/RemLabs/Lab4/Problem2A_v1_size_5/temp_2320/lammps.rdf mode vector

    # --------- Run -------------
    timestep 0.005
    run 500000
Neighbor list info ...
  update every 1 steps, delay 10 steps, check yes
  max neighbors/atom: 2000, page size: 100000
  master list distance cutoff = 7.55
  ghost atom cutoff = 7.55
  binsize = 3.775, bins = 6 6 6
  2 neighbor lists, perpetual/occasional/extra = 1 1 0
  (1) pair eam, perpetual
      attributes: half, newton on
      pair build: half/bin/atomonly/newton
      stencil: half/bin/3d/newton
      bin: standard
  (2) compute rdf, occasional, copy from (1)
      attributes: half, newton on
      pair build: copy
      stencil: none
      bin: none
Per MPI rank memory allocation (min/avg/max) = 3.769 | 3.769 | 3.769 Mbytes
Step PotEng KinEng TotEng Temp Press Density c_msdall[4] 
       0        -1425    149.64188   -1275.3581         2320    18689.212    10.472245            0 
     100   -1327.0792    93.753944   -1233.3252    1453.5312    83654.307    10.472245   0.12743696 
     200   -1298.4575    131.58881   -1166.8687    2040.1108    108125.12    10.472245   0.19054616 
     300   -1269.1908    158.59293   -1110.5979    2458.7742    130843.17    10.472245   0.24487671 
     400   -1263.8062    155.14361   -1108.6626    2405.2969    133106.64    10.472245   0.25583462 
     500   -1281.2487    145.66137   -1135.5873    2258.2874    121795.07    10.472245   0.22702391 
     600    -1274.003    155.27804    -1118.725    2407.3812    126665.71    10.472245   0.23307838 
     700   -1265.4713    157.12275   -1108.3485     2435.981    131671.71    10.472245   0.27670391 
     800   -1266.9136    140.10442   -1126.8092    2172.1342    130327.13    10.472245   0.26227655 
     900     -1274.61    150.36882   -1124.2412    2331.2701    125734.47    10.472245   0.25394486 
    1000   -1265.3801    151.81656   -1113.5636    2353.7155     132024.5    10.472245    0.2733498 
    1100   -1269.7863    151.36452   -1118.4218    2346.7072    129750.63    10.472245   0.23388294 
    1200   -1277.9025    147.83182   -1130.0707    2291.9374     123010.4    10.472245   0.22390863 
    1300   -1269.9078    149.33182    -1120.576    2315.1929    129343.87    10.472245    0.2343878 
    1400   -1269.0936    159.63993   -1109.4537    2475.0065    129989.73    10.472245    0.2468921 
    1500   -1274.6394    149.22472   -1125.4147    2313.5325    126287.27    10.472245   0.21347671 
    1600   -1273.8165    150.36184   -1123.4546     2331.162     125424.4    10.472245     0.225159 
    1700   -1268.1792    147.10352   -1121.0757    2280.6461    129363.77    10.472245   0.26089809 
    1800   -1260.2424    148.96636   -1111.2761    2309.5269    136143.47    10.472245   0.32232331 
    1900   -1261.3429    151.77866   -1109.5642    2353.1279    134297.43    10.472245   0.25684027 
    2000   -1269.5104    142.78927   -1126.7211    2213.7593    127957.79    10.472245   0.24144157 
    2100    -1269.007    155.69752   -1113.3095    2413.8847    129479.41    10.472245   0.25172667 
    2200   -1267.9791    159.88544   -1108.0937    2478.8128    131734.94    10.472245   0.24305783 
    2300   -1274.3262    152.88446   -1121.4418    2370.2719    125965.35    10.472245   0.21641633 
    2400   -1274.3702    152.78424   -1121.5859    2368.7181    126311.18    10.472245   0.22914977 
    2500   -1259.8103    150.01909   -1109.7912    2325.8481    135382.11    10.472245   0.26275804 
    2600   -1270.5597    149.72247   -1120.8372    2321.2494    128114.02    10.472245   0.25791437 
    2700   -1275.4356    149.66048   -1125.7752    2320.2882    126171.02    10.472245   0.21983168 
    2800   -1262.8075    155.14401   -1107.6634    2405.3032    134779.69    10.472245   0.28133279 
    2900   -1267.1514    154.05997   -1113.0914    2388.4966    132034.13    10.472245   0.24406339 
    3000   -1274.6091    153.60557   -1121.0036    2381.4517     125797.2    10.472245   0.22432637 
    3100   -1271.9932    144.83385   -1127.1594    2245.4577    124932.06    10.472245   0.26344287 
    3200   -1274.1518    150.61571   -1123.5361    2335.0979    126820.13    10.472245   0.24655758 
    3300   -1263.2558     155.8932   -1107.3626    2416.9184    133455.75    10.472245   0.29674311 
    3400   -1268.4125    144.60532   -1123.8072    2241.9147    126939.88    10.472245   0.32112492 
    3500   -1269.6374    149.53564   -1120.1018    2318.3528    128303.94    10.472245   0.25227449 
    3600   -1263.1559    150.54881   -1112.6071    2334.0607    132783.11    10.472245   0.27690603 
    3700   -1276.4158    158.14372   -1118.2721    2451.8097    126099.48    10.472245   0.26021994 
    3800    -1276.453    145.71017   -1130.7428     2259.044     123976.4    10.472245   0.23636449 
    3900   -1268.2168    157.64184    -1110.575    2444.0287    130446.48    10.472245   0.22554975 
    4000   -1278.9348    156.04765   -1122.8871    2419.3129    124985.14    10.472245    0.2249248 
    4100   -1274.9021    146.04944   -1128.8526    2264.3038    124438.11    10.472245   0.23058488 
    4200   -1255.4238     147.8946   -1107.5292    2292.9106    138563.93    10.472245   0.30833474 
    4300   -1269.6573    153.09677   -1116.5606    2373.5634     129281.5    10.472245   0.26783473 
    4400   -1274.2065    147.79042   -1126.4161    2291.2955    125589.48    10.472245   0.25028742 
    4500    -1271.762    153.66162   -1118.1004    2382.3207    128260.81    10.472245   0.22470155 
    4600    -1266.574    150.41323   -1116.1607    2331.9587    131116.47    10.472245   0.25061738 
    4700   -1272.1631    146.25292   -1125.9101    2267.4585    126861.57    10.472245   0.21825688 
    4800   -1283.7718    155.46216   -1128.3096    2410.2357    120634.64    10.472245   0.19486792 
    4900   -1264.4071    153.46641   -1110.9407    2379.2942    133220.74    10.472245    0.2437747 
    5000   -1273.4895    145.20513   -1128.2844     2251.214    126712.98    10.472245    0.2457024 
    5100   -1274.7824    150.09229   -1124.6901     2326.983    125414.28    10.472245   0.23951425 
    5200    -1270.706    160.50012   -1110.2059    2488.3426    128066.05    10.472245    0.2667402 
    5300   -1262.8574    160.34275   -1102.5146    2485.9027    135223.14    10.472245   0.28954837 
    5400   -1274.8562    149.87004   -1124.9862    2323.5372    125109.96    10.472245   0.26393907 
    5500   -1262.3798     145.0432   -1117.3366    2248.7035    133016.08    10.472245   0.29704912 
    5600   -1260.4103    152.51724    -1107.893    2364.5786    136881.14    10.472245   0.28443583 
    5700    -1268.528    150.09829   -1118.4297     2327.076    129744.01    10.472245   0.23525703 
    5800   -1274.7999    154.68531   -1120.1146    2398.1917    126505.49    10.472245   0.21952196 
    5900   -1268.0635    148.61158   -1119.4519    2304.0265    130485.39    10.472245   0.22980754 
    6000   -1260.9455    150.06232   -1110.8832    2326.5183    136238.88    10.472245   0.25171114 
    6100   -1280.4438    153.60208   -1126.8417    2381.3977     122457.6    10.472245   0.20453101 
    6200   -1271.9456    144.82418   -1127.1214    2245.3079    127475.08    10.472245   0.21210901 
    6300   -1267.6382    151.37808   -1116.2601    2346.9175    130866.22    10.472245   0.24858739 
    6400   -1270.3774    147.48137   -1122.8961    2286.5041    129421.89    10.472245   0.23607608 
    6500    -1281.162    152.16053   -1129.0014    2359.0483    120955.22    10.472245   0.23702873 
    6600   -1265.2731     150.5179   -1114.7552    2333.5814    131217.03    10.472245   0.27120103 
    6700   -1269.6991    153.54455   -1116.1546    2380.5056    129744.37    10.472245   0.24165519 
    6800   -1279.1269    149.09009   -1130.0368    2311.4451    123150.16    10.472245   0.22252612 
    6900   -1268.6685    151.78131   -1116.8872     2353.169    130290.96    10.472245   0.25253393 
    7000   -1265.2445    147.84615   -1117.3984    2292.1595    131881.91    10.472245   0.25403213 
    7100   -1276.0312    143.94674   -1132.0844    2231.7043    125119.67    10.472245   0.22379497 
    7200   -1266.2489    150.83969   -1115.4092    2338.5704    131856.12    10.472245   0.21849338 
    7300   -1268.6913    147.05829   -1121.6331    2279.9448    130338.27    10.472245   0.22367418 
    7400    -1279.805    137.01862   -1142.7864     2124.293     120126.2    10.472245   0.19391395 
    7500   -1278.1047      150.324   -1127.7807    2330.5752    123615.54    10.472245   0.25325806 
    7600   -1269.2846    154.60053   -1114.6841    2396.8773    129040.49    10.472245   0.23044425 
    7700   -1273.4342    144.50698   -1128.9273      2240.39    125575.77    10.472245   0.23646074 
    7800   -1271.1191    147.52218   -1123.5969    2287.1367    128238.55    10.472245   0.25511403 
    7900    -1262.081    145.84858   -1116.2324    2261.1898     134773.6    10.472245   0.26850244 
    8000   -1277.0809    146.13002   -1130.9509    2265.5531    124196.24    10.472245   0.18686268 
    8100   -1270.3578    147.15906   -1123.1988    2281.5071    128193.03    10.472245   0.24889365 
    8200   -1269.5941    153.88842   -1115.7057    2385.8369    130399.04    10.472245   0.23039636 
    8300   -1271.9911    142.34104   -1129.6501    2206.8101    125691.12    10.472245    0.2599978 
    8400   -1261.9794    154.05563   -1107.9238    2388.4293    135336.67    10.472245   0.25590819 
    8500   -1265.6291    145.17006    -1120.459    2250.6702    130379.16    10.472245    0.2485644 
    8600   -1280.2757    152.01467    -1128.261    2356.7868    123013.96    10.472245   0.23722142 
    8700   -1269.5315    161.65569   -1107.8758    2506.2583    130505.18    10.472245    0.2834824 
    8800   -1267.7558    146.63384    -1121.122    2273.3642    129812.33    10.472245   0.26373916 
    8900   -1275.3535    150.79061   -1124.5629    2337.8095    125685.21    10.472245   0.22337848 
    9000   -1258.3864    156.35069   -1102.0357    2424.0112    137176.05    10.472245   0.28916946 
    9100   -1264.3959    150.79373   -1113.6022    2337.8578    134050.37    10.472245   0.25301369 
    9200   -1279.0802     154.8669   -1124.2134    2401.0069    122976.41    10.472245   0.20385095 
    9300   -1274.0399    144.49111   -1129.5488     2240.144     125201.6    10.472245   0.22755337 
    9400    -1263.274    151.18171   -1112.0923     2343.873    133643.09    10.472245   0.21370259 
    9500   -1270.9412    144.64234   -1126.2988    2242.4887    126058.72    10.472245   0.23564525 
    9600   -1283.8748    134.21224   -1149.6626    2080.7836    117317.19    10.472245   0.20399634 
    9700   -1277.7953    143.41011   -1134.3852    2223.3845    122523.07    10.472245    0.2132058 
    9800   -1267.0507    148.36865   -1118.6821    2300.2602    130793.08    10.472245   0.20781378 
    9900   -1265.4175     146.0914   -1119.3261    2264.9544    132672.38    10.472245   0.24472383 
   10000   -1281.2057    144.74059   -1136.4651    2244.0119    120518.31    10.472245   0.21982034 
   10100   -1274.4386    154.41643   -1120.0222    2394.0231    127185.91    10.472245   0.21193441 
   10200   -1275.0557     152.3159   -1122.7398     2361.457    125667.36    10.472245    0.2257054 
   10300   -1278.6332     148.1871   -1130.4461    2297.4455    123613.18    10.472245   0.20997491 
   10400   -1261.7317    141.73081   -1120.0008    2197.3493    132635.03    10.472245   0.26357772 
   10500   -1266.1639    151.63164   -1114.5322    2350.8486     130583.9    10.472245   0.25302869 
   10600   -1277.2022    146.59813   -1130.6041    2272.8106    124874.15    10.472245   0.22449263 
   10700   -1276.9064    154.33198   -1122.5744    2392.7137     124814.8    10.472245   0.22405224 
   10800   -1263.9654    150.27207   -1113.6933    2329.7703    132452.38    10.472245   0.25671423 
   10900   -1260.9507    152.48815   -1108.4625    2364.1276    135707.86    10.472245   0.27421432 
   11000    -1272.273    145.02213   -1127.2509    2248.3767    126803.85    10.472245   0.22752291 
   11100   -1273.0427    151.10722   -1121.9355    2342.7181    126942.98    10.472245   0.23381302 
   11200   -1257.7162    153.19128    -1104.525    2375.0287    136501.52    10.472245   0.30260197 
   11300   -1276.5418    155.29359   -1121.2483    2407.6223    125318.07    10.472245   0.22592435 
   11400   -1269.8947    145.50367   -1124.3911    2255.8424    129223.46    10.472245   0.24903521 
   11500    -1271.913    151.19003    -1120.723     2344.002       127291    10.472245   0.21475896 
   11600   -1262.1181     141.2702   -1120.8479    2190.2081    134928.69    10.472245   0.27022437 
   11700   -1270.3437    145.53016   -1124.8135    2256.2531    128568.05    10.472245   0.23792806 
   11800   -1273.4753    144.76357   -1128.7117    2244.3681    125439.99    10.472245   0.22292259 
   11900   -1268.9974    154.11385   -1114.8836    2389.3319    129075.14    10.472245   0.24982058 
   12000   -1277.4194    147.04902   -1130.3704     2279.801    122846.69    10.472245   0.22379377 
   12100   -1277.2723    149.22521   -1128.0471      2313.54     123468.4    10.472245   0.21050053 
   12200   -1266.2159    145.63484   -1120.5811     2257.876    130003.14    10.472245   0.25635993 
   12300   -1268.6966    147.14003   -1121.5566    2281.2121    129401.96    10.472245   0.21650981 
   12400   -1277.9406    139.62764   -1138.3129    2164.7424    122974.21    10.472245   0.19307887 
   12500    -1279.439    159.16194   -1120.2771    2467.5959    124070.63    10.472245   0.22134413 
   12600   -1265.4223    146.05196   -1119.3703    2264.3429    131180.67    10.472245   0.24018679 
   12700   -1275.6189    143.65273   -1131.9662     2227.146     123870.3    10.472245   0.22376154 
   12800   -1277.1711    153.51432   -1123.6568     2380.037    124010.54    10.472245   0.20973864 
   12900   -1265.3541    154.05172   -1111.3024    2388.3686    133479.93    10.472245   0.24424886 
   13000   -1273.8365    153.13593   -1120.7005    2374.1706    129223.79    10.472245   0.23211952 
   13100   -1273.2436    152.99217   -1120.2515    2371.9417    125872.19    10.472245   0.23747049 
   13200   -1257.7849    156.67375   -1101.1112    2429.0198    138439.72    10.472245   0.27686852 
   13300   -1269.6249    148.69029   -1120.9346    2305.2468    127889.61    10.472245   0.23647558 
   13400   -1272.0311    151.99973   -1120.0314    2356.5553     127872.4    10.472245   0.23423477 
   13500   -1269.5087    154.15585   -1115.3528    2389.9831    129787.34    10.472245   0.23204511 
   13600   -1269.5585    142.97937   -1126.5792    2216.7065    128538.04    10.472245   0.27317519 
   13700   -1266.4035    152.27061   -1114.1329    2360.7549    131313.99    10.472245    0.2312171 
   13800   -1264.9801    143.88181   -1121.0983    2230.6976    131388.56    10.472245     0.293763 
   13900   -1272.7729     144.0164   -1128.7565    2232.7843       125513    10.472245    0.2317396 
   14000   -1261.4584     144.6071   -1116.8513    2241.9424    133298.06    10.472245   0.24748378 
   14100    -1278.865    152.88096   -1125.9841    2370.2176    123384.96    10.472245   0.22135239 
   14200   -1278.7258    147.28416   -1131.4416    2283.4466    122364.18    10.472245   0.24183106 
   14300   -1270.0044    153.38383   -1116.6206    2378.0139     128535.8    10.472245   0.25150053 
   14400   -1273.3466    148.27206   -1125.0745    2298.7627    126351.26    10.472245    0.2925325 
   14500   -1278.2953    140.64792   -1137.6474    2180.5604    122429.87    10.472245   0.23305397 
   14600   -1266.5327    150.62147   -1115.9112    2335.1871    132107.73    10.472245   0.28465646 
   14700   -1267.5026     155.4583   -1112.0443    2410.1759    130707.79    10.472245    0.2994601 
   14800   -1276.0188    148.35511   -1127.6637    2300.0502     124053.7    10.472245   0.24413587 
   14900   -1279.0827    147.82052   -1131.2622    2291.7622    122259.37    10.472245   0.26915876 
   15000   -1257.8307    147.15978   -1110.6709    2281.5183    137270.13    10.472245   0.26065568 
   15100   -1267.4543    144.53058   -1122.9237     2240.756    129491.67    10.472245   0.27796864 
   15200   -1272.5384    148.94491   -1123.5935    2309.1943    126965.06    10.472245   0.25660066 
   15300   -1254.5946    148.42207   -1106.1726    2301.0884    138734.71    10.472245   0.27007996 
   15400   -1272.0437    146.68109   -1125.3626    2274.0968    126875.17    10.472245   0.23327152 
   15500    -1263.569     143.2471   -1120.3219    2220.8574    133304.54    10.472245   0.27499238 
   15600   -1269.7977    159.16508   -1110.6326    2467.6447    130457.45    10.472245   0.23737019 
   15700   -1274.4543     156.1197   -1118.3346      2420.43    125234.57    10.472245   0.23358331 
   15800   -1273.0518    144.61044   -1128.4414    2241.9941    125438.66    10.472245   0.22506135 
   15900   -1269.5554    155.76374   -1113.7916    2414.9113    130310.65    10.472245   0.22956886 
   16000   -1271.4837    151.32718   -1120.1565    2346.1283     127775.1    10.472245   0.22046681 
   16100     -1269.53    145.40896    -1124.121    2254.3741    128389.15    10.472245   0.25574676 
   16200   -1268.0964    152.11544   -1115.9809    2358.3492    131098.75    10.472245   0.24901988 
   16300   -1267.5966    145.58365   -1122.0129    2257.0825    129267.25    10.472245   0.24837704 
   16400   -1275.4898    156.32034   -1119.1695    2423.5406    125632.95    10.472245    0.2381761 
   16500   -1263.6591    149.51052   -1114.1486    2317.9634    135557.32    10.472245   0.29386112 
   16600   -1264.8949    153.42793    -1111.467    2378.6976     132986.8    10.472245   0.24653379 
   16700   -1272.6116    143.85516   -1128.7564    2230.2845    127364.22    10.472245   0.22419155 
   16800   -1263.0412    148.22359   -1114.8176    2298.0111    133896.87    10.472245   0.23745074 
   16900   -1272.7071    144.40891   -1128.2982    2238.8696    126124.12    10.472245   0.23509337 
   17000   -1276.6067    146.20576   -1130.4009    2266.7275    124561.53    10.472245   0.24660545 
   17100   -1265.4242    148.56868   -1116.8555    2303.3613    131629.45    10.472245   0.25338846 
   17200   -1274.3052    146.52905   -1127.7761    2271.7397    125301.82    10.472245   0.23916828 
   17300   -1277.7739    142.97172   -1134.8022     2216.588    122797.25    10.472245   0.22272836 
   17400   -1265.7797    144.94134   -1120.8383    2247.1242    131450.67    10.472245   0.24863291 
   17500   -1268.0015    146.74394   -1121.2575    2275.0711    130565.05    10.472245   0.24170626 
   17600   -1265.9242    136.15199   -1129.7722     2110.857     129262.3    10.472245   0.28363662 
   17700   -1265.5509    150.97316   -1114.5778    2340.6397    131893.74    10.472245   0.27324375 
   17800   -1267.6432    156.36417    -1111.279    2424.2202    131046.08    10.472245   0.28963286 
   17900   -1264.8872    147.24832   -1117.6388     2282.891    131480.08    10.472245   0.25765543 
   18000   -1265.3419    142.21246   -1123.1294    2204.8166    131850.96    10.472245   0.28639671 
   18100    -1262.065    157.71108    -1104.354    2445.1022    134513.79    10.472245   0.29704137 
   18200    -1263.623    153.23558   -1110.3875    2375.7154     134211.8    10.472245   0.30935905 
   18300   -1271.9717    150.75855   -1121.2132    2337.3123    128296.65    10.472245   0.27106698 
   18400   -1263.7122    146.95713   -1116.7551    2278.3764    133071.39    10.472245   0.28061915 
   18500   -1265.6136    145.28626   -1120.3273    2252.4717    131213.41    10.472245   0.28059367 
   18600   -1272.4884    155.99956   -1116.4888    2418.5674    127642.93    10.472245   0.24985803 
   18700   -1268.0318    151.61014   -1116.4217    2350.5152    131080.72    10.472245   0.23100961 
   18800   -1276.7938    148.67446   -1128.1194    2305.0013     123406.8    10.472245   0.26689811 
   18900   -1257.9263    151.20329    -1106.723    2344.2076    136319.23    10.472245   0.26170748 
   19000   -1267.9946    154.52425   -1113.4703    2395.6946    131012.22    10.472245   0.24641152 
   19100   -1270.1952    144.85631   -1125.3389    2245.8059    128581.72    10.472245   0.24283081 
   19200   -1272.6288    148.17162   -1124.4571    2297.2054    126491.47    10.472245    0.2313369 
   19300   -1258.1983    147.31404   -1110.8843    2283.9098    135594.46    10.472245   0.28281814 
   19400   -1265.7515    147.33127   -1118.4202     2284.177    132522.74    10.472245   0.27274462 
   19500   -1281.0827    152.15269     -1128.93    2358.9268    121206.81    10.472245   0.21363746 
   19600   -1265.1118     150.4617   -1114.6501    2332.7101     132683.4    10.472245   0.22123162 
   19700   -1252.3525    154.70533   -1097.6472     2398.502    140208.16    10.472245   0.32751468 
   19800   -1259.1645    143.08635   -1116.0782    2218.3651    135924.64    10.472245   0.25814747 
   19900   -1273.8595    147.88479   -1125.9747    2292.7585    126030.45    10.472245   0.25277479 
   20000   -1257.9537    149.32536   -1108.6284    2315.0928    136802.81    10.472245   0.29902748 
   20100    -1265.597    155.88988   -1109.7071    2416.8669    132864.18    10.472245   0.26239343 
   20200   -1274.7293     154.7218   -1120.0075    2398.7574    125547.35    10.472245   0.24014622 
   20300   -1259.7012    143.40524    -1116.296     2223.309    135458.17    10.472245   0.29625278 
   20400   -1260.4504    158.69584   -1101.7546    2460.3696    136824.85    10.472245   0.24069145 
   20500   -1268.2678    145.13273   -1123.1351    2250.0915    130427.59    10.472245   0.24573641 
   20600   -1264.8369    149.26441   -1115.5725    2314.1477    131596.13    10.472245   0.25692347 
   20700   -1262.2273    151.53614   -1110.6911     2349.368    135199.98    10.472245   0.25203394 
   20800   -1275.4788    150.62416   -1124.8546    2335.2288    124894.39    10.472245   0.21942558 
   20900    -1272.914    158.61039   -1114.3036    2459.0449    128002.35    10.472245   0.24891149 
   21000   -1265.1401    152.90955   -1112.2306    2370.6608    132986.03    10.472245    0.2868322 
   21100   -1278.3215    153.44025   -1124.8813    2378.8886    123336.59    10.472245   0.23475939 
   21200   -1266.4033    155.35751   -1111.0457    2408.6133     131766.9    10.472245   0.21396039 
   21300   -1272.1974     151.5211   -1120.6763    2349.1347    127717.65    10.472245   0.24303139 
   21400   -1269.3425    141.66407   -1127.6784    2196.3145    127882.02    10.472245   0.22777354 
   21500   -1265.7476    155.71896   -1110.0287    2414.2171    132455.44    10.472245   0.26881958 
   21600   -1247.3817    152.89685   -1094.4848     2370.464    145343.87    10.472245    0.2815493 
   21700   -1266.9821     144.9315   -1122.0506    2246.9717    130102.33    10.472245   0.27879213 
   21800   -1276.6922     147.9621   -1128.7301    2293.9572    123896.36    10.472245   0.22782961 
   21900   -1270.1696    154.47019   -1115.6994    2394.8565    129727.06    10.472245   0.23291094 
   22000   -1265.6557    150.97285   -1114.6828    2340.6348    131755.65    10.472245   0.25384056 
   22100   -1274.9329    147.80115   -1127.1318    2291.4619    124704.29    10.472245   0.23438542 
   22200   -1260.4819     147.8798   -1112.6021    2292.6813    134133.56    10.472245   0.28708666 
   22300   -1270.6007    156.71976   -1113.8809     2429.733    129576.29    10.472245   0.22246312 
   22400   -1280.2851      156.185   -1124.1001    2421.4424    122872.61    10.472245    0.2415771 
   22500   -1261.9384    154.54466   -1107.3937    2396.0111    135033.71    10.472245   0.25888186 
   22600   -1269.7559     156.0856   -1113.6703    2419.9012    129295.77    10.472245   0.22823278 
   22700    -1270.566    146.58604   -1123.9799    2272.6232    128565.58    10.472245   0.27613777 
   22800   -1265.4836    155.98128   -1109.5023    2418.2839    133299.75    10.472245   0.27079784 
   22900    -1261.962    145.86311   -1116.0989    2261.4152    132288.88    10.472245   0.27677117 
   23000     -1265.14    141.41437   -1123.7257    2192.4432    131596.04    10.472245     0.289481 
   23100   -1265.9602    151.17657   -1114.7836    2343.7933    130386.62    10.472245   0.24336685 
   23200   -1259.5748    144.23073   -1115.3441    2236.1072    133888.12    10.472245   0.28358882 
   23300   -1272.2361    146.61664   -1125.6195    2273.0977    127573.53    10.472245   0.27127459 
   23400   -1262.7769    148.70088    -1114.076     2305.411    134687.31    10.472245   0.27913033 
   23500   -1272.6704    147.79864   -1124.8717     2291.423     126624.1    10.472245   0.22924776 
   23600   -1283.7754    155.47255   -1128.3029    2410.3968    120506.95    10.472245   0.20223183 
   23700   -1266.4157    150.00382   -1116.4119    2325.6113    131041.19    10.472245   0.24043298 
   23800   -1268.2217    147.73072   -1120.4909    2290.3699    128960.08    10.472245   0.22842937 
   23900   -1271.6697    139.23518   -1132.4345    2158.6578    127506.41    10.472245   0.22903471 
   24000   -1269.8878    155.44344   -1114.4444    2409.9455    128768.54    10.472245   0.23170185 
   24100   -1273.2879    155.60681   -1117.6811    2412.4783    127209.44    10.472245   0.22544099 
   24200   -1272.2049    151.66047   -1120.5445    2351.2955    128845.09    10.472245   0.22218995 
   24300    -1273.903    145.69998    -1128.203     2258.886    124876.96    10.472245   0.24280151 
   24400   -1274.7635    134.80019   -1139.9633    2089.8991     123949.4    10.472245   0.22815836 
   24500   -1270.3251    149.50755   -1120.8176    2317.9173    128373.51    10.472245   0.24889268 
   24600   -1261.0639    142.77781   -1118.2861    2213.5815    132997.91    10.472245   0.29178762 
   24700   -1273.7486    152.81415   -1120.9344    2369.1818    127544.86    10.472245   0.22267139 
   24800   -1268.4285      149.137   -1119.2915    2312.1724    129413.13    10.472245   0.23799922 
   24900   -1264.5001    142.18357   -1122.3165    2204.3686    130825.46    10.472245   0.26687557 
   25000   -1261.6178    139.37959   -1122.2382    2160.8967    133765.03    10.472245   0.26823609 
   25100   -1264.9189    152.92805   -1111.9908    2370.9476    133171.93    10.472245   0.26187655 
   25200   -1280.4958    149.37457   -1131.1212    2315.8556    121452.53    10.472245    0.2426834 
   25300   -1279.8251    155.64245   -1124.1826    2413.0308    123271.03    10.472245   0.20449785 
   25400   -1272.8424    154.81196   -1118.0304    2400.1551    127184.26    10.472245   0.22062485 
   25500    -1265.387    153.09416   -1112.2929     2373.523     132556.5    10.472245   0.29038511 
   25600   -1275.2645    152.53802   -1122.7264    2364.9008    125366.84    10.472245   0.22281376 
   25700   -1276.0921    147.27564   -1128.8164    2283.3145     125469.4    10.472245   0.24274153 
   25800   -1261.3123    156.09651   -1105.2157    2420.0704    135609.79    10.472245   0.25857439 
   25900   -1265.9051     151.0484   -1114.8567    2341.8062    131562.63    10.472245   0.26325855 
   26000   -1275.0351    148.40912    -1126.626    2300.8877    126192.13    10.472245   0.28319026 
   26100   -1266.6358    154.09211   -1112.5437    2388.9948    130303.37    10.472245   0.30453519 
   26200   -1267.0917    149.04281   -1118.0489    2310.7121    131339.26    10.472245   0.29550905 
   26300   -1271.9709    145.80318   -1126.1678    2260.4859    127314.74    10.472245    0.2834625 
   26400   -1279.4137     160.7448   -1118.6689     2492.136    124609.63    10.472245   0.28228755 
   26500   -1264.5882    162.42607   -1102.1622    2518.2019    134262.17    10.472245   0.31998927 
   26600   -1269.7325    148.48042   -1121.2521    2301.9931    129748.39    10.472245   0.31233012 
   26700   -1267.8308    147.60554   -1120.2253    2288.4291       130342    10.472245   0.30209196 
   26800   -1255.5456     147.5849   -1107.9607    2288.1092     138585.1    10.472245   0.33126793 
   26900   -1280.1085    152.52132   -1127.5872    2364.6418    121573.62    10.472245   0.27942272 
   27000   -1264.6747    141.22439   -1123.4503    2189.4978    131833.94    10.472245   0.32732316 
   27100   -1261.0992    152.97701   -1108.1221    2371.7067    134881.66    10.472245   0.30674992 
   27200   -1272.7416    149.04886   -1123.6927    2310.8059    126400.55    10.472245   0.31842429 
   27300   -1274.0542    148.38411   -1125.6701    2300.4999    126353.76    10.472245   0.29879153 
   27400   -1265.8628    162.19078    -1103.672    2514.5541     133035.7    10.472245    0.3129603 
   27500    -1273.872    152.29356   -1121.5785    2361.1107       126229    10.472245   0.30325173 
   27600    -1269.739    142.77653   -1126.9625    2213.5617    127933.15    10.472245   0.29902722 
   27700   -1258.1116    152.86704   -1105.2445    2370.0018    137269.49    10.472245    0.3463745 
   27800   -1259.9385    150.09807   -1109.8405    2327.0725    134952.81    10.472245   0.34871123 
   27900   -1265.3486    143.79992   -1121.5486    2229.4281    131210.93    10.472245   0.30072323 
   28000   -1273.2851    149.41833   -1123.8668    2316.5341    126728.05    10.472245   0.30641497 
   28100   -1266.5366    156.72818   -1109.8085    2429.8636     131033.8    10.472245   0.29458781 
   28200   -1272.9823    146.47224   -1126.5101    2270.8589     126149.4    10.472245   0.30396851 
   28300   -1274.4849    158.11742   -1116.3675    2451.4019    126541.36    10.472245   0.30882237 
   28400   -1268.1521    152.55305   -1115.5991    2365.1337    131622.75    10.472245   0.30650438 
   28500   -1280.7692     152.4326   -1128.3366    2363.2663    121473.09    10.472245   0.27210577 
   28600   -1273.7723    147.53174   -1126.2406     2287.285    128325.36    10.472245   0.33013885 
   28700   -1264.1473    150.66959   -1113.4777    2335.9333    132652.69    10.472245     0.299349 
   28800   -1273.7713    146.52336   -1127.2479    2271.6514    125989.95    10.472245   0.32488087 
   28900   -1271.5212    161.96631   -1109.5549     2511.074    128470.12    10.472245   0.25713844 
   29000   -1264.8103    160.36546   -1104.4449    2486.2549    133703.06    10.472245   0.39476042 
   29100   -1263.1105    139.32302   -1123.7875    2160.0197    131748.59    10.472245   0.34540734 
   29200   -1263.5239    153.30724   -1110.2166    2376.8266    133334.04    10.472245    0.3090566 
   29300   -1281.4663    152.93197   -1128.5343    2371.0085    120948.25    10.472245    0.2779194 
   29400   -1273.4626    150.05736   -1123.4052    2326.4415    126035.06    10.472245   0.30262244 
   29500   -1264.3837    149.96975    -1114.414    2325.0831     132328.7    10.472245   0.31460712 
   29600    -1275.004    151.43364   -1123.5704    2347.7788    125387.93    10.472245     0.297256 
   29700    -1281.917    149.86025   -1132.0567    2323.3855    119899.99    10.472245   0.25588582 
   29800   -1267.0901    154.56008     -1112.53    2396.2501    131619.66    10.472245   0.31061417 
   29900   -1263.2747    145.82899   -1117.4457    2260.8861    133130.32    10.472245   0.30200352 
   30000   -1271.8459    148.42951   -1123.4164    2301.2038    126908.57    10.472245   0.29991327 
   30100   -1274.5381    141.28601   -1133.2521    2190.4532    124609.85    10.472245   0.28558784 
   30200    -1274.942    152.35503    -1122.587    2362.0637    124394.23    10.472245   0.28973499 
   30300   -1263.9008    151.02867   -1112.8721    2341.5003    132721.14    10.472245   0.34953323 
   30400   -1279.9826     150.4564   -1129.5262    2332.6281    121584.76    10.472245   0.29034363 
   30500   -1284.5959    156.98645   -1127.6095    2433.8678    120128.16    10.472245   0.26729948 
   30600   -1273.6381    159.75536   -1113.8828    2476.7962    127890.75    10.472245   0.28089398 
   30700   -1274.6959    150.51094    -1124.185    2333.4735    126059.62    10.472245   0.31240949 
   30800   -1263.9267    148.69893   -1115.2277    2305.3807    132855.46    10.472245   0.33864433 
   30900   -1259.9026    154.32355    -1105.579    2392.5831    135102.47    10.472245   0.33583589 
   31000    -1256.063    135.65251   -1120.4105    2103.1132    136489.72    10.472245   0.34961875 
   31100   -1272.3688    152.60207   -1119.7667    2365.8937    128756.32    10.472245   0.31002122 
   31200   -1278.2101    140.76522   -1137.4449    2182.3791    121891.43    10.472245    0.2741111 
   31300   -1267.8283     146.8933   -1120.9349    2277.3869    129308.14    10.472245   0.31406972 
   31400   -1266.3979    145.54933   -1120.8486    2256.5503    131045.09    10.472245   0.28971383 
   31500   -1270.9165    139.66737   -1131.2492    2165.3583    127522.25    10.472245   0.28098654 
   31600   -1267.8822    143.84511   -1124.0371    2230.1286    127402.55    10.472245   0.33820847 
   31700   -1263.2218    151.04091   -1112.1809    2341.6901    133986.46    10.472245   0.35437759 
   31800   -1267.4749    141.15495     -1126.32    2188.4213    129525.95    10.472245   0.34813348 
   31900   -1276.6199    157.64209   -1118.9778    2444.0327    125156.76    10.472245   0.30161914 
   32000   -1259.4447    153.04806   -1106.3966    2372.8083    136501.26    10.472245   0.37886812 
   32100   -1263.9814    148.46118   -1115.5202    2301.6948    131991.78    10.472245   0.32367411 
   32200   -1277.9583    152.78517   -1125.1731    2368.7326    123980.43    10.472245   0.30793735 
   32300   -1266.3545    145.09665   -1121.2578    2249.5321     130022.6    10.472245   0.33068793 
   32400   -1264.2317    152.06504   -1112.1666    2357.5679    132612.61    10.472245   0.34258484 
   32500   -1261.9534    156.49303   -1105.4604     2426.218    134921.74    10.472245   0.35089048 
   32600   -1268.9503    145.19935    -1123.751    2251.1244    128472.38    10.472245   0.32836633 
   32700   -1267.8827    147.77574   -1120.1069    2291.0678       130543    10.472245   0.30288183 
   32800   -1259.1194    152.90528   -1106.2141    2370.5946    135930.39    10.472245   0.35055645 
   32900    -1269.147    140.21113   -1128.9359    2173.7887    128685.83    10.472245   0.30781602 
   33000   -1263.6214    145.25162   -1118.3698    2251.9348    132401.28    10.472245    0.3341833 
   33100   -1262.4335    150.71831   -1111.7152    2336.6886     133927.2    10.472245   0.34964087 
   33200    -1282.609     148.2534   -1134.3556    2298.4733     120184.6    10.472245   0.28049686 
   33300   -1271.0092    152.18919     -1118.82    2359.4927    129252.54    10.472245   0.31550562 
   33400   -1264.7527    146.47523   -1118.2775    2270.9052    131276.04    10.472245   0.34669337 
   33500    -1278.941    139.49252   -1139.4485    2162.6476    122020.51    10.472245   0.30037264 
   33600    -1279.706    146.62191   -1133.0841    2273.1792    122225.44    10.472245   0.30802374 
   33700    -1271.715    152.80535   -1118.9097    2369.0454    128473.04    10.472245   0.30199418 
   33800   -1263.1947    151.97044   -1111.2243    2356.1011    134783.03    10.472245   0.32598089 
   33900   -1273.7724    146.49802   -1127.2744    2271.2585    125422.83    10.472245   0.30269707 
   34000   -1273.5713    145.10611   -1128.4651    2249.6789    127306.38    10.472245   0.32415643 
   34100   -1262.8673    152.07061   -1110.7967    2357.6542    134293.84    10.472245   0.31451135 
   34200   -1261.8466    135.72563    -1126.121    2104.2468    132841.58    10.472245   0.34588264 
   34300   -1263.1869    154.26816   -1108.9188    2391.7243    134301.76    10.472245   0.36200432 
   34400   -1262.7055    151.53528   -1111.1702    2349.3546    133841.46    10.472245   0.33603095 
   34500   -1280.4126     153.1102   -1127.3024    2373.7716    121834.81    10.472245   0.26340966 
   34600   -1271.1866    150.88414   -1120.3025    2339.2595    129824.44    10.472245   0.31294588 
   34700   -1253.9983    148.32634    -1105.672    2299.6041    138855.16    10.472245   0.32838219 
   34800   -1263.7696    142.00456   -1121.7651    2201.5933    131983.74    10.472245   0.34856582 
   34900   -1264.1321     147.3427   -1116.7894    2284.3542    131993.84    10.472245   0.31176203 
   35000   -1268.7255    149.65507   -1119.0704    2320.2044    129537.08    10.472245   0.29973531 
   35100    -1276.143    144.96607   -1131.1769    2247.5077    124641.09    10.472245   0.29546111 
   35200   -1265.4449    152.76525   -1112.6797    2368.4237    131938.68    10.472245   0.31929902 
   35300   -1268.3777    149.22649   -1119.1512    2313.5599     131779.3    10.472245   0.34089223 
   35400   -1273.2445    145.92938   -1127.3151    2262.4426    126456.86    10.472245   0.29874413 
   35500   -1281.0071    145.35388   -1135.6532    2253.5201    122105.26    10.472245   0.30212452 
   35600   -1270.0209    154.07536   -1115.9455    2388.7352    129492.37    10.472245   0.30173666 
   35700   -1273.7015    155.51284   -1118.1887    2411.0215    126953.32    10.472245    0.2986111 
   35800   -1274.6335    142.13547    -1132.498     2203.623    124471.89    10.472245   0.29010683 
   35900   -1267.7496     151.4535   -1116.2961    2348.0867    131207.08    10.472245   0.31704064 
   36000   -1274.9377     158.0117    -1116.926    2449.7629     126951.8    10.472245   0.30015438 
   36100   -1272.9707      139.037   -1133.9337    2155.5853    124917.35    10.472245     0.305788 
   36200   -1271.1053    147.42549   -1123.6798    2285.6377    128198.42    10.472245   0.28714984 
   36300   -1267.0174    147.23665   -1119.7807    2282.7101    129737.86    10.472245   0.30954371 
   36400   -1270.4331    150.57648   -1119.8566    2334.4897    128131.26    10.472245   0.33396621 
   36500   -1278.2586    146.85981   -1131.3988    2276.8677    122927.36    10.472245   0.29616592 
   36600   -1265.5518    145.38711   -1120.1647    2254.0354    131319.22    10.472245    0.3108415 
   36700   -1267.1319    153.18912   -1113.9428    2374.9952    130727.84    10.472245   0.36157842 
   36800   -1271.5262    137.18092   -1134.3453    2126.8091    127262.89    10.472245   0.27214236 
   36900   -1281.1252    150.75436   -1130.3708    2337.2475    122383.94    10.472245   0.26975043 
   37000   -1271.5967    150.71885   -1120.8778     2336.697    129453.64    10.472245   0.28873658 
   37100   -1269.1552    144.31006   -1124.8451     2237.337    128352.46    10.472245    0.3072445 
   37200   -1274.4277    140.71296   -1133.7148    2181.5688    125465.75    10.472245   0.29064966 
   37300   -1264.6836    145.80356     -1118.88    2260.4918    131892.58    10.472245   0.33393718 
   37400   -1268.9134    149.01805   -1119.8954    2310.3283    130503.21    10.472245   0.32606846 
   37500   -1274.8528    138.07227   -1136.7805    2140.6284     124187.6    10.472245   0.28066907 
   37600   -1270.3325    152.78778   -1117.5447    2368.7729    130354.51    10.472245   0.32370728 
   37700   -1267.0275    145.86098   -1121.1665    2261.3821    129132.49    10.472245   0.31291821 
   37800   -1270.5344    137.70809   -1132.8264    2134.9822    127246.89    10.472245   0.31348108 
   37900   -1271.6923     141.9806   -1129.7117    2201.2219    127455.67    10.472245   0.32144774 
   38000   -1260.5881    148.39982   -1112.1883    2300.7434    135726.39    10.472245    0.3590977 
   38100   -1272.1508    147.47935   -1124.6715    2286.4728    127506.15    10.472245   0.30086865 
   38200   -1273.1431    147.36392   -1125.7792    2284.6832     126775.2    10.472245   0.31965104 
   38300   -1274.8731     156.6344   -1118.2387    2428.4097    127304.17    10.472245    0.3061782 
   38400   -1269.6297    144.63414   -1124.9956    2242.3615    127421.75    10.472245   0.27917668 
   38500   -1279.0758    142.95013   -1136.1257    2216.2532     122393.7    10.472245   0.29785748 
   38600   -1267.3262     149.5286   -1117.7976    2318.2437     131021.8    10.472245   0.33245524 
   38700   -1272.2052    152.51281   -1119.6924      2364.51    127479.48    10.472245    0.3269263 
   38800   -1276.9124    143.23028   -1133.6821    2220.5965    123965.98    10.472245   0.31449209 
   38900   -1269.8487     155.8634   -1113.9853    2416.4564    130350.73    10.472245   0.28829836 
   39000   -1266.0012    140.79754   -1125.2036    2182.8801    130295.47    10.472245   0.32053478 
   39100   -1264.7993    152.21979   -1112.5795     2359.967    131883.59    10.472245   0.36521866 
   39200   -1270.8335    157.82922   -1113.0043    2446.9339    128106.14    10.472245   0.34067865 
   39300   -1277.3275    154.07849    -1123.249    2388.7838    124112.69    10.472245   0.31480172 
   39400    -1266.899    152.03523   -1114.8638    2357.1057    130873.95    10.472245   0.34948991 
   39500   -1268.2076    162.21027   -1105.9974    2514.8563    130579.43    10.472245    0.3288989 
   39600   -1269.6177    149.44651   -1120.1712    2316.9709    129954.24    10.472245   0.31420529 
   39700   -1264.2805    138.85455   -1125.4259    2152.7566    131228.53    10.472245   0.30873604 
   39800   -1256.7935    151.88379   -1104.9097    2354.7577    137388.14    10.472245   0.36070258 
   39900   -1270.9007    149.58446   -1121.3162    2319.1097    128248.27    10.472245   0.32759449 
   40000   -1274.1378    153.21278   -1120.9251     2375.362    126508.81    10.472245   0.32091978 
   40100   -1261.1808    158.74846   -1102.4323    2461.1855    136555.42    10.472245   0.30717233 
   40200   -1273.9915    156.18017   -1117.8113    2421.3674       127929    10.472245   0.34914092 
   40300   -1276.1534    154.28917   -1121.8643      2392.05    125031.93    10.472245   0.30423861 
   40400   -1270.0301    145.07324   -1124.9568    2249.1691    129117.28    10.472245   0.31504475 
   40500   -1267.7689     153.5612   -1114.2077    2380.7638    131722.66    10.472245   0.31011514 
   40600   -1263.7563     153.2601   -1110.4962    2376.0957     132502.4    10.472245   0.35819417 
   40700   -1276.7565    147.56405   -1129.1924    2287.7859    124293.98    10.472245   0.30841288 
   40800    -1264.863    147.87952   -1116.9835    2292.6769    130752.11    10.472245   0.30571921 
   40900   -1267.5136    147.42019   -1120.0934    2285.5555    130648.59    10.472245   0.28028613 
   41000   -1279.6572    148.65611   -1131.0011    2304.7168    121723.87    10.472245    0.2821089 
   41100   -1267.6784    153.53161   -1114.1468     2380.305    130692.39    10.472245   0.30249339 
   41200   -1262.7151    147.88594   -1114.8292    2292.7764    133397.81    10.472245   0.34937465 
   41300    -1275.783    144.41566   -1131.3673    2238.9743    124377.97    10.472245   0.31051085 
   41400   -1260.4785    147.69877   -1112.7797    2289.8745    135473.83    10.472245   0.33053901 
   41500      -1278.5    154.41331   -1124.0867    2393.9747    123686.16    10.472245   0.28475713 
   41600    -1274.337    147.29638   -1127.0406    2283.6361    125198.18    10.472245   0.30616474 
   41700   -1262.1315    153.85703   -1108.2745    2385.3503     135389.7    10.472245   0.34305425 
   41800    -1274.196    152.27026   -1121.9257    2360.7496    126101.48    10.472245   0.29508337 
   41900   -1272.0335    148.15034   -1123.8832    2296.8756    126619.63    10.472245   0.31375025 
   42000   -1257.4866    155.16053   -1102.3261    2405.5594    138509.61    10.472245   0.37612428 
   42100   -1260.4718    151.94938   -1108.5224    2355.7747    135946.45    10.472245   0.32670248 
   42200   -1269.7025     146.6553   -1123.0472     2273.697    129429.02    10.472245   0.34984188 
   42300   -1276.2086    160.03525   -1116.1733    2481.1354    126844.18    10.472245   0.29335245 
   42400   -1263.9227    152.12603   -1111.7966    2358.5134    133487.98    10.472245   0.34319285 
   42500   -1272.9295    144.83836   -1128.0911    2245.5277    126208.61    10.472245   0.34554484 
   42600   -1263.8861    149.22423   -1114.6619    2313.5248    132801.62    10.472245   0.33281901 
   42700   -1268.2905    155.99033   -1112.3002    2418.4242    131319.81    10.472245    0.2975914 
   42800   -1269.4582    149.36138   -1120.0968    2315.6511    129633.01    10.472245    0.4212264 
   42900   -1266.0332     150.4328   -1115.6005     2332.262    132292.78    10.472245   0.33217682 
   43000   -1277.9613    141.49492   -1136.4663    2193.6921    122582.88    10.472245   0.28267262 
   43100   -1279.9211    146.80445   -1133.1166    2276.0092    121491.75    10.472245   0.29482991 
   43200   -1268.2931    150.36448   -1117.9286    2331.2029    131027.83    10.472245   0.29770064 
   43300   -1269.4936    146.09237   -1123.4012    2264.9695    129110.92    10.472245    0.3393529 
   43400   -1280.6236    140.46076   -1140.1628    2177.6588    121034.44    10.472245   0.25055083 
   43500   -1269.6767    145.75414   -1123.9225    2259.7256    129132.04    10.472245   0.28821932 
   43600   -1272.0591    154.95108   -1117.1081     2402.312    126342.83    10.472245   0.31392901 
   43700   -1262.2138    150.34921   -1111.8646    2330.9661    133715.66    10.472245   0.35557003 
   43800   -1270.0394    145.33602   -1124.7034    2253.2433    126445.28    10.472245   0.31127077 
   43900   -1277.2999    144.50722   -1132.7926    2240.3937    123062.37    10.472245   0.30128623 
   44000   -1261.5437    147.71025   -1113.8334    2290.0526    134950.98    10.472245   0.32471368 
   44100   -1284.7322    157.11279   -1127.6194    2435.8265    119895.48    10.472245   0.25911635 
   44200   -1274.4115    147.46082   -1126.9506    2286.1855    125730.11    10.472245   0.30198751 
   44300   -1274.5451    157.95454   -1116.5906    2448.8767    126831.46    10.472245   0.32385319 
   44400   -1280.3136    157.05468   -1123.2589    2434.9256     122581.1    10.472245     0.271622 
   44500   -1277.4486    147.84549   -1129.6031    2292.1492     124175.6    10.472245   0.27774134 
   44600   -1266.1337     153.9181   -1112.2156    2386.2971    131618.75    10.472245   0.32423581 
   44700   -1272.8091    145.82828   -1126.9808     2260.875    126379.35    10.472245   0.34270455 
   44800   -1280.3157    152.75507   -1127.5606    2368.2659    123101.46    10.472245   0.27866203 
   44900   -1272.1058    153.36636   -1118.7395    2377.7431    128265.03    10.472245   0.31267577 
   45000   -1256.8599    148.58855   -1108.2714    2303.6694    138142.72    10.472245   0.35584637 
   45100   -1268.5654     146.7254   -1121.8399    2274.7838       129326    10.472245   0.32615094 
   45200   -1276.2691    148.07806    -1128.191    2295.7549    124787.28    10.472245   0.27964131 
   45300    -1261.209    152.87296    -1108.336    2370.0936    134900.71    10.472245   0.31345745 
   45400   -1273.0121    153.53953   -1119.4725    2380.4278    127254.84    10.472245   0.31820971 
   45500   -1268.7625    143.95806   -1124.8044    2231.8797    129979.92    10.472245   0.29615212 
   45600   -1265.1946    144.57135   -1120.6232    2241.3881    132116.64    10.472245   0.31805988 
   45700   -1252.9606     148.5758   -1104.3848    2303.4718    141268.73    10.472245   0.37925976 
   45800   -1274.9001    150.53621   -1124.3639    2333.8654    124886.66    10.472245   0.31275964 
   45900   -1274.4138    145.07046   -1129.3433     2249.126    125630.43    10.472245   0.28755894 
   46000   -1270.2861    160.12991   -1110.1562    2482.6031    129292.26    10.472245   0.31598735 
   46100   -1264.6797     147.4769   -1117.2028    2286.4348    132840.37    10.472245   0.32395987 
   46200   -1275.1529    151.14765   -1124.0053    2343.3449    125586.16    10.472245   0.29131201 
   46300    -1269.682    148.46989   -1121.2121    2301.8297    128859.13    10.472245   0.30525622 
   46400   -1262.4083    158.14277   -1104.2655     2451.795    134590.57    10.472245    0.3028854 
   46500   -1275.8847    150.76949   -1125.1152     2337.482    125518.46    10.472245   0.29772938 
   46600   -1273.9592    151.90827   -1122.0509    2355.1372     127579.4    10.472245   0.30292593 
   46700   -1265.9161     158.9985   -1106.9176     2465.062    132677.38    10.472245   0.31317422 
   46800   -1270.9966    140.80325   -1130.1934    2182.9687    127332.24    10.472245   0.31603106 
   46900   -1260.6499    145.57999   -1115.0699    2257.0257    134871.46    10.472245    0.3415086 
   47000   -1270.1729    149.82625   -1120.3466    2322.8584    128904.14    10.472245   0.31709269 
   47100   -1268.5598    142.79716   -1125.7626    2213.8815    128938.58    10.472245   0.30890463 
   47200    -1262.541    148.28467   -1114.2563    2298.9581    132750.88    10.472245   0.34340736 
   47300   -1262.3021     149.3785   -1112.9236    2315.9165    133679.79    10.472245   0.29031942 
   47400   -1279.7624    147.87033    -1131.892    2292.5344    122561.98    10.472245   0.29282311 
   47500   -1274.0356    155.76646   -1118.2691    2414.9534    127933.81    10.472245   0.28992259 
   47600   -1268.0195    151.70626   -1116.3132    2352.0055    130229.54    10.472245    0.3438418 
   47700   -1281.8471    146.97002   -1134.8771    2278.5763    120694.35    10.472245   0.29529721 
   47800   -1273.6685    156.73669   -1116.9318    2429.9957    126242.89    10.472245   0.30134043 
   47900   -1267.5671     146.2376   -1121.3295     2267.221    129921.46    10.472245   0.31320989 
   48000   -1279.2968    143.40335   -1135.8935    2223.2798    121941.05    10.472245   0.28565457 
   48100   -1267.3885    147.74785   -1119.6406    2290.6355    131939.41    10.472245   0.31205131 
   48200   -1265.4618    147.39528   -1118.0665    2285.1694    131812.82    10.472245   0.36511451 
   48300   -1254.0905    155.31505   -1098.7755    2407.9549    139715.36    10.472245   0.42421177 
   48400   -1265.7559    154.30724   -1111.4486    2392.3302    131046.43    10.472245   0.43246695 
   48500   -1273.8995    156.13104   -1117.7685    2420.6058    126980.19    10.472245   0.39075163 
   48600     -1273.51    140.96205   -1132.5479    2185.4306    124129.96    10.472245   0.44229574 
   48700   -1270.4407    149.46055   -1120.9802    2317.1886     128374.6    10.472245   0.39006401 
   48800   -1269.8476    148.35014   -1121.4975    2299.9733    128893.25    10.472245   0.41970671 
   48900   -1264.5317    156.99622   -1107.5355    2434.0193    134145.69    10.472245   0.36225175 
   49000   -1278.3137    152.33778   -1125.9759    2361.7963    124807.09    10.472245   0.36832009 
   49100   -1273.6827    155.79551   -1117.8872    2415.4038    127126.92    10.472245   0.37987286 
   49200   -1269.5048    148.13688   -1121.3679     2296.667    128870.25    10.472245   0.39098054 
   49300   -1276.0808    143.42601   -1132.6548     2223.631    123910.43    10.472245   0.38007037 
   49400   -1268.4901    153.23949   -1115.2506    2375.7762     130677.7    10.472245   0.40796189 
   49500   -1270.7636     151.5909   -1119.1727    2350.2169    128951.24    10.472245   0.40221017 
   49600   -1281.2782    148.98506   -1132.2931    2309.8168    121941.41    10.472245   0.39205568 
   49700   -1274.8708    140.41972   -1134.4511    2177.0225    124323.37    10.472245   0.41598088 
   49800   -1264.8009    147.77596    -1117.025    2291.0714    132330.58    10.472245   0.43065807 
   49900   -1265.3459    151.46564   -1113.8802    2348.2749    130993.54    10.472245   0.41611609 
   50000   -1272.2421    142.69486   -1129.5472    2212.2956    126867.24    10.472245   0.39245616 
   50100   -1269.4092    155.48787   -1113.9213    2410.6343    129932.59    10.472245    0.4057779 
   50200   -1268.6636    152.23614   -1116.4275    2360.2205    129565.59    10.472245   0.40494007 
   50300    -1270.661     148.1588   -1122.5022    2297.0067     128544.6    10.472245   0.40310109 
   50400   -1254.5081    147.31894   -1107.1891    2283.9857    139077.97    10.472245   0.48375652 
   50500   -1265.2963    158.35165   -1106.9447    2455.0335    132700.16    10.472245   0.42988066 
   50600   -1273.2402     149.9939   -1123.2463    2325.4575    126044.18    10.472245   0.39125262 
   50700   -1267.3506    140.94391   -1126.4067    2185.1493    129171.35    10.472245   0.39720165 
   50800   -1272.9183    156.07448   -1116.8438    2419.7289    127730.64    10.472245   0.39669953 
   50900   -1264.3189    152.27913   -1112.0398     2360.887    132785.75    10.472245   0.41098003 
   51000   -1265.2368    136.82771   -1128.4091    2121.3332    130136.26    10.472245   0.39682995 
   51100    -1262.366    144.74947   -1117.6165    2244.1496     133967.5    10.472245    0.4347042 
   51200   -1255.3865    153.76758   -1101.6189    2383.9635    138426.42    10.472245   0.44654596 
   51300   -1254.3762    145.99613   -1108.3801    2263.4775    137816.03    10.472245   0.49821464 
   51400   -1268.3299    147.89647   -1120.4334    2292.9397    130412.55    10.472245   0.41322893 
   51500    -1271.379    136.96591   -1134.4131    2123.4757     126255.7    10.472245   0.38565683 
   51600   -1275.7921    148.00616    -1127.786    2294.6402    124424.29    10.472245   0.38700674 
   51700   -1264.0838    143.17586   -1120.9079    2219.7529    132598.77    10.472245    0.3796825 
   51800   -1269.1822    153.07701   -1116.1052    2373.2571     129607.1    10.472245   0.38344548 
   51900   -1275.3213     160.7539   -1114.5674    2492.2772    127366.68    10.472245   0.43309342 
   52000   -1276.7794    148.73253   -1128.0469    2305.9016    124193.88    10.472245   0.38180244 
   52100   -1265.4379    143.32233   -1122.1156    2222.0236    131695.35    10.472245    0.3965587 
   52200   -1270.8101    154.79789   -1116.0122    2399.9371    129121.65    10.472245   0.37515777 
   52300   -1270.3126    144.06583   -1126.2468    2233.5506    129384.79    10.472245   0.42478653 
   52400   -1260.2094    153.18215   -1107.0272    2374.8872    135849.36    10.472245   0.42998154 
   52500   -1272.7505    151.65547    -1121.095    2351.2179    127946.78    10.472245   0.39547023 
   52600   -1269.1783     143.8589   -1125.3194    2230.3425    129262.21    10.472245   0.38691338 
   52700   -1266.8094    160.91119   -1105.8982    2494.7157    131924.14    10.472245   0.39783561 
   52800    -1267.866    151.38544   -1116.4805    2347.0315    130840.18    10.472245   0.39145746 
   52900   -1272.4338    147.43574   -1124.9981    2285.7967    127406.25    10.472245   0.37269078 
   53000   -1265.0115    156.48413   -1108.5274      2426.08    131923.95    10.472245   0.39306497 
   53100   -1271.0099    158.56203   -1112.4479    2458.2951    129499.04    10.472245   0.38928271 
   53200    -1269.109    145.82927   -1123.2798    2260.8904    128174.18    10.472245   0.38360733 
   53300    -1270.788    151.71743   -1119.0706    2352.1785    129420.09    10.472245   0.41174021 
   53400   -1264.8362    160.43212   -1104.4041    2487.2884    133191.16    10.472245   0.39984649 
   53500    -1270.718    149.67925   -1121.0387    2320.5792    130020.56    10.472245    0.3747322 
   53600   -1273.1989    146.68528   -1126.5136    2274.1617    126423.52    10.472245   0.38508761 
   53700   -1261.8587    153.84468    -1108.014    2385.1588    135636.77    10.472245   0.43299888 
   53800   -1266.9492    146.85346   -1120.0958    2276.7691    129962.43    10.472245   0.40696492 
   53900   -1268.9312    141.99774   -1126.9335    2201.4877    127969.49    10.472245   0.38359094 
   54000   -1263.1426    149.35149   -1113.7911    2315.4978    133629.34    10.472245   0.36780077 
   54100   -1275.9622    144.78206   -1131.1801    2244.6549    124261.34    10.472245   0.37691362 
   54200   -1272.4098    148.26507   -1124.1447    2298.6542    127807.75    10.472245   0.38770218 
   54300   -1259.5309    146.37357   -1113.1573     2269.329    135160.51    10.472245   0.44399519 
   54400   -1271.8503    152.18727   -1119.6631    2359.4629    128618.87    10.472245   0.38970153 
   54500   -1274.5475    140.53683   -1134.0106    2178.8382    124434.51    10.472245   0.39577038 
   54600   -1269.8584    149.61005   -1120.2483    2319.5064    130010.36    10.472245   0.43005729 
   54700     -1274.66     155.1232   -1119.5368    2404.9805    126419.43    10.472245   0.38614378 
   54800    -1277.173    139.25981   -1137.9132    2159.0397    121988.77    10.472245   0.37488435 
   54900   -1280.2408    155.09588   -1125.1449     2404.557    123011.58    10.472245   0.34620178 
   55000   -1270.5713    151.27965   -1119.2917    2345.3913    127608.85    10.472245   0.37880248 
   55100   -1268.0289    155.47268   -1112.5562    2410.3989    131200.48    10.472245   0.38368383 
   55200   -1277.4331    151.84657   -1125.5865    2354.1808    123818.77    10.472245    0.3806424 
   55300   -1277.2882    148.20987   -1129.0783    2297.7986    123058.43    10.472245   0.41266559 
   55400   -1271.0325    157.33292   -1113.6996    2439.2394    129640.84    10.472245   0.37787103 
   55500   -1273.6107    143.62554   -1129.9851    2226.7246     125626.1    10.472245   0.38352457 
   55600   -1266.7683    148.76893   -1117.9994     2306.466    131304.81    10.472245   0.42421451 
   55700   -1265.4814    152.43884   -1113.0426    2363.3631    132171.27    10.472245   0.41507119 
   55800   -1270.5208    144.43206   -1126.0887    2239.2285    127566.23    10.472245   0.38835884 
   55900   -1266.2569    154.17161   -1112.0852    2390.2274    130248.41    10.472245   0.42843311 
   56000   -1261.9122    149.57176   -1112.3405    2318.9128    134788.31    10.472245   0.44471392 
   56100   -1274.7619    150.59204   -1124.1698     2334.731    125585.75    10.472245   0.39000599 
   56200   -1270.3132    149.84628   -1120.4669    2323.1689     128336.5    10.472245   0.36775763 
   56300   -1269.1231    143.80375   -1125.3194    2229.4874    128018.24    10.472245   0.40062604 
   56400   -1274.3486    153.20361    -1121.145    2375.2198    126004.49    10.472245   0.37508343 
   56500   -1258.9048    151.29842   -1107.6063    2345.6824    136611.84    10.472245    0.4036846 
   56600   -1275.6428    148.04323   -1127.5995    2295.2149    125554.38    10.472245   0.38460789 
   56700   -1271.0865    148.19493   -1122.8916    2297.5668    127870.74    10.472245     0.411366 
   56800   -1264.0813     157.3083    -1106.773    2438.8577     133211.6    10.472245   0.43897357 
   56900   -1272.7445    151.56457   -1121.1799    2349.8087    127869.24    10.472245   0.40550835 
   57000   -1272.5699     152.2291   -1120.3408    2360.1113    126780.98    10.472245   0.40033828 
   57100   -1269.2046    164.18053   -1105.0241    2545.4026    130371.77    10.472245   0.40008183 
   57200   -1266.1984     149.2252   -1116.9732    2313.5399    130888.65    10.472245   0.39758133 
   57300   -1267.9684    140.40691   -1127.5615    2176.8239    128997.78    10.472245   0.37537997 
   57400    -1264.188    151.45952   -1112.7285      2348.18    132133.19    10.472245   0.41241826 
   57500   -1262.7053     154.2797   -1108.4256    2391.9033    134096.19    10.472245    0.4493695 
   57600   -1273.7588    156.40639   -1117.3525    2424.8748    126998.34    10.472245   0.41772032 
   57700   -1275.9145    153.81278   -1122.1017    2384.6643    124797.19    10.472245   0.37764797 
   57800   -1271.2187      144.621   -1126.5977    2242.1578    127539.56    10.472245    0.3922277 
   57900   -1268.7644    156.55667   -1112.2077    2427.2047     129380.5    10.472245    0.4139119 
   58000   -1269.6302    144.37595   -1125.2542    2238.3587    128369.65    10.472245   0.38199934 
   58100   -1284.6098    138.00953   -1146.6002    2139.6557     117237.6    10.472245   0.40941857 
   58200   -1280.3362    154.61031   -1125.7259    2397.0289    122498.65    10.472245   0.39045953 
   58300   -1260.5667    145.66468    -1114.902    2258.3387    134598.99    10.472245   0.42480339 
   58400   -1269.0024    144.25025   -1124.7522    2236.4098     128447.2    10.472245   0.42449118 
   58500   -1278.2926     146.7319   -1131.5607    2274.8845    123743.21    10.472245   0.38571216 
   58600   -1258.3108    147.06338   -1111.2474    2280.0237    136024.36    10.472245   0.46828942 
   58700   -1269.5203    145.71365   -1123.8066    2259.0979    127168.17    10.472245   0.39039324 
   58800   -1270.5868    144.42815   -1126.1587     2239.168    127828.05    10.472245   0.40679329 
   58900   -1264.7844     151.8159   -1112.9685    2353.7053     132485.1    10.472245   0.42116576 
   59000   -1271.2678    146.94792   -1124.3199    2278.2336    128893.16    10.472245   0.38251312 
   59100   -1269.7357    147.21099   -1122.5248    2282.3122    129427.86    10.472245   0.40831796 
   59200   -1259.8654    153.93912   -1105.9263    2386.6229    135327.81    10.472245   0.44171258 
   59300   -1277.1314    153.82834   -1123.3031    2384.9055    124472.95    10.472245   0.36000997 
   59400   -1277.7309    152.17615   -1125.5547    2359.2904    123306.63    10.472245    0.3492832 
   59500   -1268.2367    151.58991   -1116.6468    2350.2016    130564.88    10.472245   0.40868192 
   59600   -1260.6776    161.20839   -1099.4692    2499.3234    136363.45    10.472245   0.42732544 
   59700   -1267.1072    151.36616    -1115.741    2346.7326    132040.59    10.472245   0.44090826 
   59800   -1275.1998    147.97914   -1127.2206    2294.2213    125138.84    10.472245   0.37619817 
   59900   -1281.8811    161.78923   -1120.0919    2508.3286    122556.41    10.472245   0.35098212 
   60000   -1259.2002    147.92081   -1111.2794     2293.317    134785.13    10.472245   0.45316157 
   60100   -1268.1444     141.4155    -1126.729    2192.4607    127681.55    10.472245   0.44094565 
   60200   -1268.4006    144.94772   -1123.4529    2247.2232    128259.07    10.472245   0.41315475 
   60300   -1259.5999    148.66382   -1110.9361    2304.8364    135498.94    10.472245    0.4314822 
   60400   -1271.5338    150.42586   -1121.1079    2332.1546    128001.46    10.472245   0.39540369 
   60500    -1274.311    152.59513   -1121.7158    2365.7862     127542.8    10.472245   0.39760901 
   60600   -1261.5683    161.27698   -1100.2913    2500.3868    135044.02    10.472245   0.45271508 
   60700   -1274.0116    152.11333   -1121.8983    2358.3166    126529.69    10.472245   0.38400167 
   60800   -1267.0134    142.84053   -1124.1728     2214.554    131342.36    10.472245   0.39234671 
   60900   -1265.2885    157.25451    -1108.034    2438.0238    132435.58    10.472245   0.39521839 
   61000   -1272.5323    145.47029    -1127.062    2255.3249    127040.86    10.472245   0.37151291 
   61100    -1272.345    149.21714   -1123.1279    2313.4149    127564.16    10.472245   0.38238345 
   61200   -1264.7034    158.35451   -1106.3489    2455.0778    133456.99    10.472245   0.41142091 
   61300   -1274.5898     146.5125   -1128.0773    2271.4831    124641.83    10.472245   0.41477019 
   61400   -1264.6683    147.40278   -1117.2656    2285.2856    132716.15    10.472245   0.43219848 
   61500   -1263.7586     154.8828   -1108.8758    2401.2535     132479.1    10.472245   0.42007267 
   61600   -1280.5022    152.66243   -1127.8398    2366.8296    123671.83    10.472245   0.39474544 
   61700   -1272.9027    156.57689   -1116.3258    2427.5181    126947.15    10.472245   0.36663902 
   61800    -1269.206    149.44623   -1119.7598    2316.9667    130117.14    10.472245   0.37530778 
   61900   -1282.5373    151.67358   -1130.8637    2351.4988    120160.18    10.472245   0.34782461 
   62000   -1270.9462    155.35147   -1115.5947    2408.5195    129344.93    10.472245   0.39967261 
   62100   -1264.7716    142.94069   -1121.8309    2216.1068    132541.61    10.472245   0.41638549 
   62200   -1278.1762    145.47781   -1132.6984    2255.4416     122895.4    10.472245   0.36054259 
   62300   -1277.8626    160.26453   -1117.5981    2484.6901    124759.09    10.472245   0.36386614 
   62400   -1274.1901    148.40706    -1125.783    2300.8557    123756.96    10.472245   0.38770858 
   62500   -1284.4391    152.15549   -1132.2836    2358.9702    118945.48    10.472245   0.37177194 
   62600    -1268.791    148.80547   -1119.9856    2307.0324    130603.09    10.472245   0.40985124 
   62700   -1267.9949    146.12018   -1121.8747    2265.4006    130396.66    10.472245   0.40416568 
   62800   -1285.1427    147.70584   -1137.4368    2289.9843    119522.85    10.472245   0.37852363 
   62900   -1259.6239    139.86946   -1119.7544    2168.4914    135945.68    10.472245   0.40995101 
   63000    -1273.286    157.61887   -1115.6671    2443.6727    127842.69    10.472245   0.37554048 
   63100   -1275.0782    140.12949   -1134.9487    2172.5229    124469.58    10.472245    0.4044114 
   63200   -1273.6114    147.96383   -1125.6475    2293.9839    126387.31    10.472245   0.41499377 
   63300   -1259.0616    145.66893   -1113.3926    2258.4046    135835.66    10.472245   0.42431213 
   63400   -1265.6548    156.02763   -1109.6272    2419.0026    132094.14    10.472245   0.38737054 
   63500   -1283.6636    153.12996   -1130.5336    2374.0779    119629.77    10.472245   0.37566159 
   63600   -1269.6141    148.67863   -1120.9354     2305.066    128946.56    10.472245   0.39314777 
   63700   -1269.5964    157.03634     -1112.56    2434.6413    129403.66    10.472245   0.38917907 
   63800   -1272.3028    150.40104   -1121.9018    2331.7696    125839.85    10.472245   0.40058324 
   63900   -1266.7612    151.66855   -1115.0926    2351.4208    130097.18    10.472245   0.40049429 
   64000   -1265.5921    152.68614    -1112.906    2367.1972    133338.07    10.472245   0.38843202 
   64100   -1272.2796    148.93799   -1123.3416    2309.0871    127329.98    10.472245   0.40522675 
   64200   -1260.7573    149.05716   -1111.7002    2310.9346    135020.41    10.472245   0.39217982 
   64300   -1260.8713    149.54073   -1111.3305    2318.4318    135726.35    10.472245   0.42566609 
   64400   -1274.6202    146.48804   -1128.1322    2271.1038    125320.49    10.472245   0.37628543 
   64500   -1262.0999     146.6663   -1115.4336    2273.8675    133301.06    10.472245   0.41516912 
   64600   -1268.4056    146.07194   -1122.3337    2264.6527     129331.2    10.472245   0.39171697 
   64700   -1266.8503    136.58261   -1130.2677    2117.5331    129251.88    10.472245   0.38694123 
   64800   -1268.7032    154.45359   -1114.2496    2394.5991     130074.5    10.472245   0.42532774 
   64900   -1270.1318    164.48688   -1105.6449    2550.1521    130793.25    10.472245   0.39481409 
   65000   -1269.7883    154.36768   -1115.4206    2393.2673    129102.55    10.472245   0.39924265 
   65100   -1270.5565    148.43473   -1122.1218    2301.2847    127498.68    10.472245   0.38520369 
   65200   -1265.4925     155.9943   -1109.4982    2418.4858    131574.45    10.472245   0.45113501 
   65300   -1269.8128    156.64968   -1113.1631    2428.6466    130510.68    10.472245   0.38873059 
   65400   -1268.1439    144.47085   -1123.6731    2239.8299    128757.43    10.472245    0.4642177 
   65500    -1270.274    160.05702    -1110.217     2481.473     131528.3    10.472245   0.38805953 
   65600   -1277.0983    147.02214   -1130.0762    2279.3844    124541.62    10.472245   0.39721821 
   65700   -1265.3932    141.90105   -1123.4922    2199.9885    130884.61    10.472245   0.36245748 
   65800   -1264.3559    145.53418   -1118.8217    2256.3154    133244.28    10.472245   0.41711051 
   65900   -1262.6809    152.64413   -1110.0367    2366.5459     134365.1    10.472245   0.41515727 
   66000   -1265.1638    144.29279    -1120.871    2237.0694     131789.7    10.472245   0.45705211 
   66100   -1275.9353    153.41582   -1122.5195    2378.5099    125528.68    10.472245   0.41616785 
   66200   -1265.6274    157.67735     -1107.95    2444.5792    133260.46    10.472245   0.38217877 
   66300   -1273.8494    146.96949   -1126.8799     2278.568    125051.91    10.472245   0.36460982 
   66400   -1272.8877    151.44419   -1121.4435    2347.9423    127353.59    10.472245   0.39218587 
   66500   -1261.9318     150.5265   -1111.4053    2333.7148    134575.21    10.472245   0.43837924 
   66600   -1255.1661    160.00748   -1095.1586    2480.7049     139500.7    10.472245   0.46831196 
   66700    -1266.196    150.44096    -1115.755    2332.3885       131304    10.472245   0.44810665 
   66800   -1271.1615    146.53867   -1124.6228    2271.8887    127092.16    10.472245   0.36895359 
   66900   -1280.4165    139.06999   -1141.3465    2156.0968    120292.99    10.472245   0.35496332 
   67000   -1270.7368    150.97114   -1119.7656    2340.6083    129007.83    10.472245   0.36971595 
   67100   -1270.9577    148.06883   -1122.8888    2295.6119    126996.63    10.472245   0.38723335 
   67200    -1274.741    143.39891   -1131.3421     2223.211    125296.63    10.472245   0.34929758 
   67300   -1266.1882    152.95138   -1113.2368    2371.3094    131308.03    10.472245   0.40060798 
   67400   -1267.0396    146.11109   -1120.9286    2265.2597    129519.17    10.472245   0.38009064 
   67500    -1267.756    142.00633   -1125.7497    2201.6209    129267.38    10.472245   0.39178114 
   67600   -1268.7238    157.29275    -1111.431    2438.6165    130449.97    10.472245   0.38940639 
   67700   -1266.0633    155.41626   -1110.6471     2409.524    133338.51    10.472245   0.39417328 
   67800   -1267.0208    145.87386    -1121.147    2261.5817    131334.18    10.472245   0.40315469 
   67900   -1277.6946    145.10434   -1132.5902    2249.6513    123897.71    10.472245   0.37484879 
   68000   -1263.9778    150.87136   -1113.1065    2339.0613    132751.69    10.472245   0.44520982 
   68100   -1259.8159    147.19592     -1112.62    2282.0786    135176.11    10.472245   0.42379362 
   68200    -1273.625    144.19533   -1129.4297    2235.5583    125743.58    10.472245   0.38106804 
   68300   -1261.8842    140.80297   -1121.0813    2182.9643    133228.94    10.472245    0.4238205 
   68400   -1270.0054    162.05918   -1107.9462    2512.5139     130486.2    10.472245   0.38055769 
   68500   -1260.9298    147.21016   -1113.7196    2282.2994    134742.77    10.472245   0.41074592 
   68600   -1272.4584    147.40667   -1125.0518    2285.3459    127223.47    10.472245   0.42139539 
   68700   -1269.7899    158.77766   -1111.0123    2461.6381    130213.95    10.472245   0.37665598 
   68800   -1266.7307    147.39713   -1119.3336     2285.198     130751.3    10.472245   0.39444552 
   68900   -1269.1943    142.75859   -1126.4357    2213.2836     129844.3    10.472245   0.35850674 
   69000   -1270.6261    152.61869   -1118.0074    2366.1515    127856.76    10.472245   0.37272543 
   69100   -1260.6948    153.86903   -1106.8258    2385.5363    134838.09    10.472245   0.42055879 
   69200   -1267.3297    140.24052   -1127.0892    2174.2443     129362.4    10.472245   0.42161163 
   69300   -1274.7752    150.59383   -1124.1814    2334.7586    125886.91    10.472245   0.38978403 
   69400    -1265.865    158.96169   -1106.9033    2464.4912    133153.31    10.472245   0.39395228 
   69500    -1263.917    143.06589   -1120.8511    2218.0479    132130.41    10.472245   0.41028747 
   69600    -1278.468    152.16267   -1126.3053    2359.0815    124054.75    10.472245   0.39872026 
   69700   -1278.0285    155.83038   -1122.1982    2415.9444    125727.45    10.472245   0.38123777 
   69800   -1266.2669    152.89272   -1113.3742       2370.4    130340.22    10.472245   0.39435067 
   69900   -1280.6822     151.8428   -1128.8394    2354.1223    121887.33    10.472245   0.35579395 
   70000    -1273.832     150.3396   -1123.4924    2330.8172    127622.51    10.472245   0.37399996 
   70100   -1255.4198    148.15096   -1107.2688    2296.8852    138874.64    10.472245   0.45038308 
   70200   -1253.2879    149.85153   -1103.4364    2323.2503    140689.08    10.472245   0.42512831 
   70300   -1271.3669    151.08089    -1120.286    2342.3098    128627.87    10.472245   0.39437676 
   70400   -1276.0805    153.87067   -1122.2098    2385.5617    123854.15    10.472245   0.38979986 
   70500    -1268.595    166.22915   -1102.3659    2577.1637    132652.62    10.472245   0.39971473 
   70600   -1267.0205    152.55322   -1114.4672    2365.1364    131493.51    10.472245   0.41307372 
   70700   -1278.8897    152.31696   -1126.5728    2361.4736    123080.31    10.472245   0.37622406 
   70800   -1266.2461    155.87854   -1110.3675    2416.6911    131883.15    10.472245   0.38904882 
   70900   -1270.3703    151.11531    -1119.255    2342.8435    129221.82    10.472245   0.39162145 
   71000   -1278.1218    150.29289   -1127.8289     2330.093    124073.74    10.472245   0.37663065 
   71100   -1267.5118    146.62124   -1120.8906    2273.1688    129478.07    10.472245   0.40555662 
   71200   -1274.0015    155.43034   -1118.5711    2409.7424    127081.27    10.472245   0.39571109 
   71300   -1269.4029    141.75993    -1127.643    2197.8007    128297.27    10.472245   0.40473799 
   71400   -1287.8384    151.58292   -1136.2555    2350.0933    116399.37    10.472245   0.33849865 
   71500   -1267.2328    151.80344   -1115.4294     2353.512    131985.27    10.472245   0.39488823 
   71600   -1270.9378    152.39924   -1118.5385    2362.7492    128680.32    10.472245   0.42771603 
   71700   -1278.1501    141.37374   -1136.7764    2191.8133    122567.61    10.472245   0.38636763 
   71800   -1277.5078    145.64313   -1131.8646    2258.0046    123016.66    10.472245   0.37368976 
   71900   -1269.9241    155.30744   -1114.6167     2407.837    129091.56    10.472245   0.35570202 
   72000   -1270.8487    140.05065    -1130.798    2171.3005     128402.7    10.472245   0.40971969 
   72100   -1282.2548     160.2785   -1121.9763    2484.9068    122875.66    10.472245   0.34792988 
   72200   -1271.8233    147.60117   -1124.2221    2288.3614     126908.3    10.472245   0.40590882 
   72300   -1261.1706     153.1898   -1107.9808    2375.0057    134205.68    10.472245   0.38996094 
   72400   -1260.0699    147.43576   -1112.6341     2285.797    134349.46    10.472245   0.42482957 
   72500   -1267.4557    143.56669   -1123.8891    2225.8121    128780.32    10.472245   0.39438016 
   72600   -1268.8284    149.53558   -1119.2928    2318.3519    130244.41    10.472245   0.44093509 
   72700   -1272.7911    163.76505    -1109.026    2538.9611    128983.59    10.472245   0.38071969 
   72800   -1267.4884    147.06973   -1120.4186    2280.1222    129741.85    10.472245   0.42863463 
   72900   -1267.2347    148.09852   -1119.1362    2296.0722    131232.56    10.472245   0.38871082 
   73000   -1271.6457    137.20234   -1134.4434    2127.1412    125426.01    10.472245   0.36340146 
   73100   -1268.7342    153.40145   -1115.3328    2378.2872    130123.22    10.472245   0.37310515 
   73200   -1273.3322    153.03211   -1120.3001    2372.5609    127217.81    10.472245   0.38351196 
   73300   -1275.9527    137.99888   -1137.9538    2139.4906    123306.45    10.472245   0.38143382 
   73400    -1275.126    136.84619   -1138.2799    2121.6196    124724.73    10.472245   0.37117197 
   73500   -1267.8407    151.15946   -1116.6813     2343.528    130126.06    10.472245   0.39700833 
   73600   -1268.9421    147.37189   -1121.5702    2284.8067    128325.58    10.472245   0.39129996 
   73700   -1278.0865    144.27768   -1133.8088    2236.8351    122781.72    10.472245   0.38769096 
   73800   -1272.5324    149.70131   -1122.8311    2320.9212    127085.77    10.472245   0.39878577 
   73900    -1266.475    151.01095   -1115.4641    2341.2255    131667.28    10.472245   0.42247259 
   74000   -1268.5742    149.01539   -1119.5588    2310.2871    129612.11    10.472245   0.37585795 
   74100   -1283.0403    150.35817   -1132.6822     2331.105    120311.34    10.472245   0.36019947 
   74200    -1265.924    151.96017   -1113.9639    2355.9419    131496.94    10.472245   0.41590272 
   74300   -1263.8517    146.66143   -1117.1903    2273.7919    132871.74    10.472245   0.39471716 
   74400   -1275.1843    143.21056   -1131.9737    2220.2909    124770.54    10.472245   0.38159254 
   74500   -1263.0673    154.78215   -1108.2851    2399.6931    134471.13    10.472245   0.38734855 
   74600   -1273.6785    150.00733   -1123.6712    2325.6658    126906.57    10.472245     0.416598 
   74700   -1267.0059    144.70112   -1122.3048    2243.3999     130325.4    10.472245   0.38866073 
   74800   -1257.1963     156.4687   -1100.7276    2425.8408    138215.49    10.472245   0.47319544 
   74900   -1261.5322    141.25682   -1120.2754    2190.0006    132702.92    10.472245    0.4506198 
   75000   -1268.2187    143.86958   -1124.3491    2230.5081    129063.21    10.472245   0.42319434 
   75100   -1262.6698    151.00077    -1111.669    2341.0677    133470.09    10.472245   0.43482384 
   75200   -1264.7577    150.34844   -1114.4092    2330.9542    132617.22    10.472245   0.39856057 
   75300   -1268.9855    147.30318   -1121.6823    2283.7415     129916.1    10.472245   0.38128631 
   75400   -1269.7093    142.69967   -1127.0096    2212.3701    128112.55    10.472245   0.41312671 
   75500   -1283.1323    151.16362   -1131.9687    2343.5925    120592.48    10.472245   0.34856796 
   75600   -1264.9763    151.25323    -1113.723    2344.9818    132742.19    10.472245   0.40238082 
   75700   -1272.6841    147.66839   -1125.0157    2289.4035    127797.43    10.472245   0.36122273 
   75800   -1277.8443    150.85576   -1126.9885    2338.8195    123882.13    10.472245   0.36937289 
   75900   -1267.5033    153.86007   -1113.6433    2385.3974     131143.8    10.472245   0.41933107 
   76000   -1274.2363    157.92313   -1116.3132    2448.3898    127092.46    10.472245   0.39765866 
   76100   -1277.2871    138.42004    -1138.867    2146.0201    123012.65    10.472245   0.42175781 
   76200   -1269.9527    148.81369    -1121.139      2307.16    128761.57    10.472245   0.38458441 
   76300   -1261.5763    146.50005   -1115.0763    2271.2899    134545.09    10.472245   0.42456568 
   76400   -1269.3573    152.99815   -1116.3592    2372.0344    129599.99    10.472245   0.45110153 
   76500   -1272.3596    148.00893   -1124.3507    2294.6832    127310.46    10.472245   0.38623134 
   76600   -1274.6984     150.6377   -1124.0607    2335.4388    124832.24    10.472245   0.38721246 
   76700   -1257.9362    144.06031   -1113.8759     2233.465    135778.33    10.472245   0.41468817 
   76800   -1277.3438    153.93743   -1123.4064    2386.5968     125228.5    10.472245   0.39192848 
   76900    -1275.019    145.12651   -1129.8925    2249.9951    125455.67    10.472245   0.36464828 
   77000   -1266.6992    154.47901   -1112.2202    2394.9933    130582.56    10.472245   0.43000073 
   77100   -1270.8089    154.34116   -1116.4677    2392.8561    129750.43    10.472245   0.37429691 
   77200    -1277.901    149.72243   -1128.1786    2321.2487    124282.61    10.472245   0.37769043 
[...]
  481400   -1275.1147    152.75365    -1122.361    2368.2438    125235.83    10.472245    5.8312205 
  481500   -1281.8014    140.76565   -1141.0358    2182.3857    119474.56    10.472245    5.6936962 
  481600   -1278.8658    163.64272   -1115.2231    2537.0645    124905.36    10.472245    5.7362919 
  481700   -1268.5535    148.81134   -1119.7422    2307.1234    129403.18    10.472245    5.7742871 
  481800   -1270.6248    145.41637   -1125.2085    2254.4889    127943.81    10.472245    5.8708898 
  481900   -1264.5499    153.57186   -1110.9781     2380.929    133061.83    10.472245    5.7260149 
  482000     -1266.74    140.07991   -1126.6601    2171.7542    129784.19    10.472245    5.8941923 
  482100     -1275.23     152.9248   -1122.3052    2370.8972    126344.54    10.472245    5.8048102 
  482200     -1255.68    150.23954   -1105.4405    2329.2658    138858.89    10.472245    5.7890759 
  482300   -1267.4073     142.9545   -1124.4528    2216.3209    129683.78    10.472245    5.7562234 
  482400   -1267.9861    147.19398   -1120.7921    2282.0485    130615.91    10.472245     5.718307 
  482500   -1257.0019    157.66534   -1099.3365    2444.3931     139050.4    10.472245    5.7927627 
  482600   -1274.9429    153.98537   -1120.9575    2387.3399    126116.81    10.472245    5.7923622 
  482700   -1270.6582    144.77491   -1125.8833    2244.5439    126928.29    10.472245    5.8222662 
  482800   -1264.6263    155.84601   -1108.7803    2416.1868    133328.86    10.472245    5.7761299 
  482900   -1272.5425    143.52234   -1129.0202    2225.1245    127430.14    10.472245    5.7416399 
  483000   -1274.3029    154.18838   -1120.1145    2390.4875    126897.91    10.472245     5.734124 
  483100   -1264.8692     152.6579   -1112.2113    2366.7593    132616.43    10.472245    5.6926305 
  483200   -1277.1263    143.81393   -1133.3124    2229.6452     124710.8    10.472245    5.7607991 
  483300    -1271.688    155.74377   -1115.9442    2414.6016    128589.61    10.472245    5.8019634 
  483400    -1266.396    146.00137   -1120.3946    2263.5586    130119.66    10.472245    5.8719354 
  483500    -1286.327    148.38314   -1137.9438    2300.4849    117273.36    10.472245    5.7664243 
  483600   -1277.8889    139.85451   -1138.0344    2168.2596    122266.37    10.472245    5.7146155 
  483700   -1277.0324    154.82544    -1122.207    2400.3642    125010.64    10.472245    5.8039189 
  483800   -1267.9953    154.93525     -1113.06    2402.0667    130707.51    10.472245    5.8610819 
  483900   -1273.9066    149.12403   -1124.7825    2311.9713    125264.98    10.472245    5.7180041 
  484000   -1266.1599    142.32722   -1123.8327    2206.5958    130254.12    10.472245    5.7689402 
  484100   -1250.5003    143.10434    -1107.396    2218.6439    141169.62    10.472245    5.7623228 
  484200   -1270.7282    156.20288   -1114.5254    2421.7196    129719.55    10.472245    5.7848511 
  484300   -1272.4352    148.69811   -1123.7371     2305.368    127868.05    10.472245    5.6814069 
  484400   -1273.1604    163.94204   -1109.2184     2541.705    129239.65    10.472245    5.8271537 
  484500   -1271.5246    152.24117   -1119.2834    2360.2985     128732.7    10.472245    5.7216871 
  484600   -1264.7875    142.30912   -1122.4784    2206.3152    131566.91    10.472245    5.7105676 
  484700   -1268.8062    148.07408   -1120.7322    2295.6932    129450.06    10.472245    5.6734113 
  484800   -1277.8002    144.42322    -1133.377    2239.0914    122930.28    10.472245    5.8670302 
  484900   -1277.0856    161.12522   -1115.9604     2498.034     126059.5    10.472245    5.6976076 
  485000   -1268.5682    149.95247   -1118.6157    2324.8152    130262.76    10.472245    5.8760882 
  485100   -1280.2756    140.81403   -1139.4615    2183.1358    120350.89    10.472245    5.6524024 
  485200   -1274.8197    153.44357   -1121.3762    2378.9402    126273.71    10.472245    5.8870037 
  485300   -1268.4217     151.9794   -1116.4423    2356.2401    129539.22    10.472245     5.870593 
  485400    -1276.981      141.173    -1135.808    2188.7011    122897.75    10.472245    5.6257869 
  485500   -1277.4605    152.48836   -1124.9721    2364.1309    124205.32    10.472245     5.794878 
  485600   -1273.3685    153.27087   -1120.0977    2376.2627    128413.12    10.472245    5.7927986 
  485700   -1258.0959     153.4473   -1104.6486    2378.9979    136307.89    10.472245    5.9584803 
  485800   -1270.3423    151.14703   -1119.1953    2343.3354    128748.37    10.472245     5.776273 
  485900   -1271.1726    148.14198   -1123.0306    2296.7459    127726.57    10.472245    5.8440351 
  486000   -1264.8693    147.00408   -1117.8653    2279.1044     132146.3    10.472245    5.8516677 
  486100   -1268.6783    151.86865   -1116.8096     2354.523    130930.02    10.472245    5.8758413 
  486200   -1275.5254    141.64966   -1133.8757    2196.0911    125214.55    10.472245    5.7049664 
  486300   -1276.1184    158.99232    -1117.126    2464.9662    126390.08    10.472245    5.7963969 
  486400   -1274.6929    155.50345   -1119.1894    2410.8758    126413.04    10.472245    5.8362188 
  486500   -1271.3362    148.41008   -1122.9261    2300.9025    129089.84    10.472245    5.8779896 
  486600    -1266.814    152.88429   -1113.9297    2370.2692    131243.61    10.472245    5.8898459 
  486700   -1273.3526    150.59712   -1122.7555    2334.8096    126657.23    10.472245    5.8026248 
  486800   -1273.4494    143.43752   -1130.0119    2223.8095    125839.13    10.472245    5.7845482 
  486900   -1263.9977    153.52237   -1110.4754    2380.1618    133105.73    10.472245    5.6972296 
  487000   -1273.0983    146.86906   -1126.2293    2277.0111    126948.63    10.472245    5.8773738 
  487100   -1257.7519    146.31318   -1111.4388    2268.3929    137642.34    10.472245    5.8270473 
  487200   -1260.4799    153.38118   -1107.0987    2377.9728    134478.44    10.472245    6.0533238 
  487300   -1267.2349    149.38204   -1117.8528    2315.9714       130171    10.472245    5.8625259 
  487400   -1264.5499    150.14387    -1114.406    2327.7826    132402.47    10.472245    6.0445912 
  487500   -1259.8109    156.19835   -1103.6126    2421.6494    135485.27    10.472245     6.242835 
  487600    -1273.912    151.46278   -1122.4492    2348.2306    126158.78    10.472245    6.1571671 
  487700   -1264.4312    144.83175   -1119.5995    2245.4253    131906.53    10.472245    6.1955468 
  487800   -1262.4543    164.05225   -1098.4021    2543.4136    135194.99    10.472245    6.1000332 
  487900   -1269.5039    154.42282   -1115.0811    2394.1221    129577.35    10.472245    6.0298988 
  488000    -1279.544    154.87906   -1124.6649    2401.1954    122626.77    10.472245     6.023262 
  488100   -1274.6664    150.63227   -1124.0341    2335.3546    125956.99    10.472245    5.9865255 
  488200    -1259.462    151.27675   -1108.1852    2345.3464    135875.63    10.472245     6.211559 
  488300   -1270.8016     142.5355   -1128.2661    2209.8249    127438.99    10.472245    6.0258904 
  488400   -1272.5848    150.54439   -1122.0405    2333.9921    126965.22    10.472245    6.0240711 
  488500   -1265.6424    153.76566   -1111.8767    2383.9337    132608.43    10.472245    6.0144641 
  488600   -1277.9827    144.21417   -1133.7685    2235.8505    122397.56    10.472245    5.9761335 
  488700   -1270.6539     147.7814   -1122.8725    2291.1556    127757.93    10.472245    6.0424278 
  488800   -1264.0506    148.81877   -1115.2318    2307.2388    133467.61    10.472245    6.1173759 
  488900   -1281.0981    144.88957   -1136.2086    2246.3216    121303.21    10.472245    6.0123243 
  489000   -1273.2055    145.87164   -1127.3339    2261.5474     126924.6    10.472245     6.152711 
  489100   -1270.0525    148.83894   -1121.2136    2307.5514    129899.32    10.472245    6.2265158 
  489200   -1274.8284    150.34302   -1124.4854    2330.8702    125531.08    10.472245    6.0932302 
  489300   -1280.6136    145.67724   -1134.9364    2258.5335    120177.39    10.472245    6.1001455 
  489400   -1272.9307    156.09646   -1116.8342    2420.0697    127513.59    10.472245    6.1370619 
  489500   -1268.9626    149.39337   -1119.5692    2316.1471    129221.57    10.472245    6.1214068 
  489600   -1275.4672    142.44928   -1133.0179    2208.4881    124463.86    10.472245    6.0690829 
  489700   -1268.3577    146.30797   -1122.0497     2268.312    129568.31    10.472245    6.0760062 
  489800    -1277.733    164.06755   -1113.6655    2543.6509    124748.06    10.472245    6.0157892 
  489900   -1270.0972     137.2112    -1132.886    2127.2787     128052.3    10.472245    6.0465097 
  490000   -1273.0861    146.25771   -1126.8284    2267.5329    125515.65    10.472245    6.0178487 
  490100   -1265.5568    147.85083    -1117.706    2292.2321    131550.21    10.472245    6.0090521 
  490200   -1268.3829    152.24343   -1116.1394    2360.3335    130574.46    10.472245    6.0422109 
  490300   -1278.4621     148.8374   -1129.6247    2307.5275     121733.5    10.472245    6.0805712 
  490400    -1260.129    145.68009   -1114.4489    2258.5777    135914.94    10.472245    6.0982323 
  490500   -1268.5636    142.41456    -1126.149    2207.9499     128029.8    10.472245    6.0460709 
  490600    -1275.694    148.82558   -1126.8684    2307.3442    125717.16    10.472245    6.0341476 
  490700   -1271.6065    153.70618   -1117.9004    2383.0115    128408.98    10.472245    6.0296437 
  490800   -1284.5543    149.27793   -1135.2764    2314.3574    118544.55    10.472245    5.9935656 
  490900   -1270.3321    143.58864   -1126.7435    2226.1524    128093.76    10.472245    6.1211688 
  491000   -1269.4666    149.85218   -1119.6144    2323.2603    128722.08    10.472245    5.9901987 
  491100    -1274.704    149.81827   -1124.8857    2322.7346    126046.75    10.472245    6.1410729 
  491200   -1272.9683    146.17092   -1126.7974    2266.1872    126012.58    10.472245     6.014485 
  491300   -1270.4198    157.53382    -1112.886     2442.354    130317.92    10.472245    6.0687558 
  491400   -1267.1187    146.19294   -1120.9258    2266.5287    130498.81    10.472245    6.0373889 
  491500   -1274.2882    147.46036   -1126.8279    2286.1783    126403.49    10.472245     6.147148 
  491600   -1264.8639    155.40017   -1109.4638    2409.2746    133167.54    10.472245    6.2106911 
  491700   -1268.7536     149.3942   -1119.3594      2316.16    129114.19    10.472245    5.9777955 
  491800    -1268.423    148.26414   -1120.1589    2298.6399    129872.22    10.472245    6.1243372 
  491900   -1280.7832    155.15926   -1125.6239    2405.5397    123355.88    10.472245    6.1180986 
  492000   -1275.4808    143.40228   -1132.0785    2223.2631     124659.5    10.472245    6.1011095 
  492100   -1264.4046     150.0499   -1114.3547    2326.3257    132566.54    10.472245    6.1154391 
  492200   -1269.2721    149.05607    -1120.216    2310.9177    129289.09    10.472245     6.264471 
  492300   -1278.2831    140.84795   -1137.4352    2183.6616    123131.12    10.472245    6.0795125 
  492400   -1263.7922    147.35944   -1116.4328    2284.6137     132071.5    10.472245    6.1606408 
  492500   -1274.1744    154.69439   -1119.4801    2398.3324    126633.79    10.472245    6.1464666 
  492600   -1283.7391    152.95703   -1130.7821     2371.397    119590.31    10.472245    6.1477832 
  492700   -1268.1972    157.15043   -1111.0467    2436.4101    130539.75    10.472245    6.1573162 
  492800   -1264.7366    147.99434   -1116.7423     2294.457    131405.81    10.472245    6.2388403 
  492900   -1275.7482    145.94445   -1129.8037    2262.6761     124026.6    10.472245    6.0766499 
  493000   -1272.6319    141.54754   -1131.0844    2194.5078    125575.83    10.472245    6.1894443 
  493100   -1267.2739    150.82634   -1116.4476    2338.3634    131933.68    10.472245    6.1648264 
  493200   -1259.3795     151.3477   -1108.0318    2346.4465    136792.09    10.472245    6.1298689 
  493300   -1260.4088    142.61871   -1117.7901     2211.115    134101.21    10.472245    6.0920779 
  493400   -1270.8665    148.22337   -1122.6431    2298.0078    128863.52    10.472245    6.2291801 
  493500   -1257.4286    152.54644   -1104.8821    2365.0312     138733.4    10.472245    6.1384428 
  493600    -1272.544    152.52553   -1120.0185    2364.7071    127322.79    10.472245    6.1732725 
  493700   -1271.1555    148.82722   -1122.3283    2307.3696    128460.44    10.472245     6.154401 
  493800   -1269.0367    153.18647   -1115.8502    2374.9542    129162.08    10.472245    6.1001472 
  493900   -1264.5991    158.24222   -1106.3569    2453.3369    133933.22    10.472245    6.2449966 
  494000   -1273.6298    145.77327   -1127.8566    2260.0223    126445.85    10.472245    6.1363307 
  494100   -1264.8234    148.93387   -1115.8895    2309.0232    132485.79    10.472245    6.0914266 
  494200   -1264.6402    152.00733   -1112.6329    2356.6732    132965.57    10.472245     6.136629 
  494300   -1273.7049    144.67433   -1129.0306    2242.9846    125945.98    10.472245    6.2844872 
  494400   -1259.7893    144.97227    -1114.817    2247.6037    134443.59    10.472245    6.0937708 
  494500   -1276.2717    162.89742   -1113.3743    2525.5096    125981.69    10.472245    6.2245117 
  494600   -1268.3137    142.01479   -1126.2989     2201.752    130124.01    10.472245    6.1396387 
  494700   -1259.5661    143.73042   -1115.8357    2228.3505    134504.77    10.472245    6.1483055 
  494800   -1276.9722    145.73799   -1131.2342    2259.4753    123134.15    10.472245    6.0933092 
  494900   -1276.7938    153.61507   -1123.1788     2381.599     125604.9    10.472245    6.1071533 
  495000   -1272.7518    155.21765   -1117.5342    2406.4448     128992.8    10.472245    6.1887987 
  495100   -1279.1765    147.66992   -1131.5066    2289.4273    123964.13    10.472245     6.095551 
  495200   -1275.6882    164.88334   -1110.8048    2556.2986    127476.34    10.472245    6.0886923 
  495300   -1275.8997     155.7318   -1120.1679    2414.4161    126909.37    10.472245    6.0807471 
  495400   -1274.5682    147.93441   -1126.6338    2293.5279     126071.2    10.472245    6.2134151 
  495500   -1258.1522    152.11704   -1106.0351     2358.374    137380.15    10.472245    6.0616355 
  495600   -1253.4966     147.7762   -1105.7204     2291.075    139781.81    10.472245    6.3098031 
  495700   -1271.4922     148.3137   -1123.1785    2299.4083    127825.91    10.472245    6.0182865 
  495800   -1270.3686    147.93627   -1122.4323    2293.5567    129391.48    10.472245    6.0611685 
  495900   -1265.1107    157.67344   -1107.4373    2444.5187    132815.22    10.472245    6.1294436 
  496000   -1270.2252    148.55441   -1121.6708    2303.1401    127298.92    10.472245    6.1788993 
  496100   -1270.3182    146.27914   -1124.0391    2267.8651     129106.7    10.472245    6.0827434 
  496200    -1271.123    147.75278   -1123.3702    2290.7119       128341    10.472245     6.188408 
  496300   -1271.2478    152.45711   -1118.7907    2363.6463    128035.99    10.472245     6.105815 
  496400   -1251.5034    148.79562   -1102.7077    2306.8798    140563.37    10.472245    6.3007917 
  496500    -1266.462    145.04402    -1121.418    2248.7162    130313.92    10.472245    6.1995865 
  496600   -1271.0922    146.58065   -1124.5115    2272.5396     128220.5    10.472245    6.0841492 
  496700   -1266.9865    158.34682   -1108.6397    2454.9585    132449.75    10.472245    6.1197518 
  496800   -1269.5199    146.05827   -1123.4616    2264.4408    127801.41    10.472245    6.0988093 
  496900   -1278.7915    152.98731   -1125.8042    2371.8664    122869.17    10.472245    6.0416118 
  497000   -1262.3123    151.20069   -1111.1116    2344.1673    132854.76    10.472245    6.2248642 
  497100   -1278.2246    151.69899   -1126.5256    2351.8926    123854.89    10.472245    6.1048555 
  497200   -1270.7123    143.47175   -1127.2405    2224.3402    128352.99    10.472245    6.1260124 
  497300   -1270.0865    152.17172   -1117.9148    2359.2218    129934.85    10.472245     6.151313 
  497400   -1274.4996    145.53502   -1128.9646    2256.3284    125818.47    10.472245    6.0810434 
  497500   -1281.4677    139.69798   -1141.7697    2165.8329    120664.53    10.472245    6.0754608 
  497600   -1270.0717    147.68635   -1122.3854    2289.6819     127845.1    10.472245     6.178271 
  497700   -1269.8073    150.86729     -1118.94    2338.9983    129054.19    10.472245     6.013605 
  497800   -1259.7737    152.08973   -1107.6839    2357.9505    135059.17    10.472245    6.1193059 
  497900   -1265.4381    143.85993   -1121.5782    2230.3585    132024.27    10.472245    6.1786266 
  498000   -1271.0335    142.89628   -1128.1372    2215.4183    127532.55    10.472245    6.0253618 
  498100   -1265.4247    154.86259   -1110.5621    2400.9402    132257.91    10.472245    6.1766428 
  498200   -1277.4993    146.26474   -1131.2346    2267.6418     123630.4    10.472245     6.088577 
  498300   -1275.9307    152.00368    -1123.927    2356.6164    124272.38    10.472245      6.08752 
  498400   -1255.9931    143.51143   -1112.4816    2224.9555    137130.15    10.472245    6.1869295 
  498500   -1279.0363    148.83568   -1130.2006    2307.5009     123354.9    10.472245    6.1343491 
  498600   -1276.8173    151.68198   -1125.1353    2351.6289    125348.79    10.472245    5.9724012 
  498700   -1272.5453    158.33081   -1114.2145    2454.7103    128367.57    10.472245    6.2502802 
  498800   -1275.3685    141.89016   -1133.4784    2199.8198    123810.05    10.472245    5.9957745 
  498900    -1271.759    150.18972   -1121.5693    2328.4935    128498.33    10.472245    6.1585789 
  499000   -1266.5992    147.12715   -1119.4721    2281.0123     130448.6    10.472245    6.0391386 
  499100   -1286.0696    145.46087   -1140.6087    2255.1789     115974.8    10.472245    6.1442972 
  499200   -1270.1376    142.58033   -1127.5573    2210.5199    127216.39    10.472245    6.1127111 
  499300    -1266.771    152.26084   -1114.5102    2360.6035    131066.51    10.472245    6.2417007 
  499400   -1271.9669    147.59932   -1124.3676    2288.3327     126278.6    10.472245    6.2168345 
  499500   -1276.5055    143.56694   -1132.9386     2225.816    124109.98    10.472245    6.0765209 
  499600    -1272.127    151.67486   -1120.4522    2351.5187    127709.71    10.472245    6.1981442 
  499700   -1260.4812    139.63672   -1120.8445    2164.8831    134733.54    10.472245    6.2176087 
  499800   -1269.8159    163.54197   -1106.2739    2535.5025    131043.65    10.472245    6.0459264 
  499900    -1272.356    149.19853   -1123.1575    2313.1263    127989.82    10.472245    6.0547878 
  500000   -1272.1949    149.73422   -1122.4607    2321.4315     128106.9    10.472245    6.0963927 
Loop time of 729.055 on 1 procs for 500000 steps with 500 atoms

Performance: 296.274 ns/day, 0.081 hours/ns, 685.819 timesteps/s
100.0% CPU use with 1 MPI tasks x no OpenMP threads

MPI task timing breakdown:
Section |  min time  |  avg time  |  max time  |%varavg| %total
---------------------------------------------------------------
Pair    | 434.36     | 434.36     | 434.36     |   0.0 | 59.58
Neigh   | 38.887     | 38.887     | 38.887     |   0.0 |  5.33
Comm    | 5.8433     | 5.8433     | 5.8433     |   0.0 |  0.80
Output  | 0.16729    | 0.16729    | 0.16729    |   0.0 |  0.02
Modify  | 248.56     | 248.56     | 248.56     |   0.0 | 34.09
Other   |            | 1.242      |            |       |  0.17

Nlocal:    500 ave 500 max 500 min
Histogram: 1 0 0 0 0 0 0 0 0 0
Nghost:    1990 ave 1990 max 1990 min
Histogram: 1 0 0 0 0 0 0 0 0 0
Neighs:    25943 ave 25943 max 25943 min
Histogram: 1 0 0 0 0 0 0 0 0 0

Total # of neighbors = 25943
Ave neighs/atom = 51.886
Neighbor list builds = 35581
Dangerous builds = 206
    
Total wall time: 0:12:09
