LAMMPS (3 Mar 2020)

# ---------- 1. Initialize simulation ----------
units metal
atom_style atomic
dimension 3
boundary p p p
read_data /home/modeler/RemLabs/Project/eval_timestep_nve/n3_T1800_timestep1.034569e-03_steps14499/20201205-224440/lammps.data
  orthogonal box = (0 0 0) to (17.469 17.469 17.469)
  1 by 1 by 1 MPI processor grid
  reading atoms ...
  217 atoms
  read_data CPU = 0.00105301 secs

pair_style meam/c
pair_coeff * * library.meam Li Si LiSi.meam Li Si
Reading potential file library.meam with DATE: 2012-06-29
Reading potential file LiSi.meam with DATE: 2020-11-07

group Li type 1
1 atoms in group Li

velocity all create 1800 3320 dist gaussian

# ---------- 2. Describe computed properties----------
compute msdli Li msd
thermo_style custom step pe ke etotal temp press density c_msdli[4]
thermo 100

# ---------- 3. Specify ensemble  ----------
#fix 1 all npt temp 1800 1800 0.05172845202786974 tchain 2 iso 1.0 1.0 1.0 pchain 2
# fix 1 all nvt temp 1800 1800 0.05172845202786974
 fix 1 all nve

# ---------- 4. Run -------------
timestep 0.0010345690405573948
run 14499
Neighbor list info ...
  update every 1 steps, delay 10 steps, check yes
  max neighbors/atom: 2000, page size: 100000
  master list distance cutoff = 6
  ghost atom cutoff = 6
  binsize = 3, bins = 6 6 6
  2 neighbor lists, perpetual/occasional/extra = 2 0 0
  (1) pair meam/c, perpetual
      attributes: full, newton on
      pair build: full/bin/atomonly
      stencil: full/bin/3d
      bin: standard
  (2) pair meam/c, perpetual, half/full from (1)
      attributes: half, newton on
      pair build: halffull/newton
      stencil: none
      bin: none
Per MPI rank memory allocation (min/avg/max) = 9.27 | 9.27 | 9.27 Mbytes
Step PotEng KinEng TotEng Temp Press Density c_msdli[4] 
       0   -951.04357    50.256344   -900.78722         1800   -114161.75    1.8918427            0 
     100   -929.62137    28.856806   -900.76457    1033.5461   -92839.091    1.8918427   0.16508277 
     200   -927.75833    26.998624   -900.75971    966.99279   -93453.401    1.8918427   0.15966315 
     300   -928.16941     27.40838   -900.76103    981.66877   -92294.055    1.8918427  0.071845271 
     400   -927.39696    26.638772   -900.75818    954.10422   -90071.458    1.8918427   0.13253822 
     500   -927.81789    27.054404   -900.76348    968.99064   -92205.038    1.8918427  0.020388201 
     600   -925.87247    25.114514   -900.75795    899.51082   -90873.957    1.8918427   0.14162976 
     700   -929.36659    28.603799   -900.76279    1024.4844   -94873.616    1.8918427   0.02490635 
     800   -927.48015    26.722968   -900.75718    957.11979   -92503.147    1.8918427  0.098397902 
     900   -928.58944     27.82926   -900.76018    996.74316   -93988.759    1.8918427    0.1074453 
    1000   -927.70799    26.944745   -900.76325    965.06306   -94439.681    1.8918427   0.18422241 
    1100   -927.26981    26.510735   -900.75907    949.51839   -93799.176    1.8918427  0.068380022 
    1200   -926.28962    25.531537   -900.75808    914.44705   -92056.846    1.8918427  0.060417702 
    1300    -927.1029    26.341467   -900.76143    943.45581   -93777.629    1.8918427 0.0031014785 
    1400   -925.88881    25.128721   -900.76009    900.01965   -91173.479    1.8918427   0.08244985 
    1500   -927.31182    26.550721    -900.7611    950.95052   -92810.289    1.8918427  0.030956423 
    1600   -925.92328    25.165161   -900.75812    901.32482   -91587.077    1.8918427  0.074407076 
    1700    -925.7558     24.99463   -900.76117    895.21701   -92718.521    1.8918427 0.0016464617 
    1800   -924.32813    23.570603   -900.75753    844.21352   -91625.625    1.8918427  0.039272515 
    1900   -926.36972    25.610317   -900.75941    917.26866   -91850.445    1.8918427   0.09018235 
    2000   -928.76786    28.005612   -900.76225    1003.0594   -94434.147    1.8918427   0.10079733 
    2100   -927.46312    26.701365   -900.76176    956.34607   -94121.354    1.8918427  0.053519967 
    2200   -926.84935    26.088993   -900.76036    934.41311   -92946.107    1.8918427  0.090760671 
    2300   -925.03085    24.275769   -900.75508       869.47   -90677.208    1.8918427  0.070734162 
    2400   -926.50275    25.742177   -900.76057    921.99143   -92424.605    1.8918427  0.039384674 
    2500   -926.62941    25.868827   -900.76058    926.52757   -91806.047    1.8918427  0.055309145 
    2600   -928.41976    27.657765   -900.76199    990.60085   -92921.742    1.8918427   0.10684551 
    2700   -928.30051    27.536728   -900.76378    986.26574   -93666.529    1.8918427  0.057854385 
    2800   -926.42315    25.665277   -900.75787    919.23715   -92886.994    1.8918427  0.030629313 
    2900   -929.05742    28.296882   -900.76054    1013.4917   -94108.973    1.8918427  0.023181906 
    3000   -926.21355    25.453115   -900.76043    911.63826   -91859.002    1.8918427   0.23872842 
    3100   -927.58559    26.825321   -900.76027    960.78571   -92814.813    1.8918427  0.014506499 
    3200   -927.06479    26.304582   -900.76021    942.13474   -92411.852    1.8918427  0.023856779 
    3300   -927.69447    26.933892   -900.76058    964.67432   -93174.652    1.8918427   0.10905526 
    3400   -925.79899    25.038962   -900.76002     896.8048   -92767.409    1.8918427  0.078544949 
    3500   -926.61534    25.855851   -900.75948    926.06281    -91687.27    1.8918427    0.1231656 
    3600    -926.9832    26.222548   -900.76065    939.19658   -91431.019    1.8918427  0.099770281 
    3700   -927.09643    26.338193   -900.75824    943.33854   -92167.241    1.8918427  0.010548797 
    3800    -926.9544    26.192718   -900.76168    938.12816   -92397.515    1.8918427  0.079563949 
    3900   -926.71536    25.956352   -900.75901    929.66239   -91715.527    1.8918427  0.070792356 
    4000   -926.55338    25.795026   -900.75835    923.88427   -91397.724    1.8918427   0.12909226 
    4100   -927.26316    26.502888   -900.76027    949.23735   -92519.252    1.8918427  0.041412512 
    4200   -926.01628    25.257254   -900.75903    904.62323   -92163.613    1.8918427  0.066206507 
    4300   -923.65458     22.90134   -900.75324    820.24295   -89242.448    1.8918427  0.076125146 
    4400   -927.48554    26.727369   -900.75817    957.27745    -92765.44    1.8918427  0.041050853 
    4500    -927.0009    26.240446   -900.76046    939.83762   -92501.257    1.8918427    0.0442498 
    4600   -927.02577     26.26704   -900.75873    940.79013   -93307.836    1.8918427  0.043199705 
    4700   -925.70698    24.947897   -900.75909    893.54318   -93321.218    1.8918427  0.044974694 
    4800   -927.32741    26.565482   -900.76193    951.47923   -92192.222    1.8918427 0.0050639288 
    4900   -924.05077    23.294791   -900.75598    834.33494   -89973.638    1.8918427  0.053104574 
    5000   -925.54182    24.783126    -900.7587    887.64169   -90159.763    1.8918427   0.07763911 
    5100   -926.39307    25.631895   -900.76117    918.04153   -91409.596    1.8918427  0.020337071 
    5200   -925.70234    24.945978   -900.75636    893.47448   -90275.241    1.8918427  0.086211424 
    5300   -928.43221    27.668483   -900.76373    990.98471   -94206.811    1.8918427  0.026256347 
    5400   -928.22693     27.46487   -900.76206    983.69205   -94265.897    1.8918427  0.033461606 
    5500   -927.51254    26.751468   -900.76107    958.14057   -93277.289    1.8918427  0.005185289 
    5600   -928.80228    28.040467   -900.76181    1004.3079   -94691.488    1.8918427  0.054007777 
    5700   -928.37389       27.613   -900.76089    988.99751   -93849.421    1.8918427  0.032562564 
    5800   -926.38549    25.626167   -900.75932    917.83636   -93862.997    1.8918427  0.069414932 
    5900   -928.45015    27.689681   -900.76047    991.74394   -94851.965    1.8918427   0.03220502 
    6000    -927.9427    27.182239   -900.76046    973.56923   -93436.604    1.8918427  0.061330451 
    6100    -926.4396    25.682512   -900.75709    919.85446   -92266.903    1.8918427  0.087334292 
    6200   -926.36762    25.608179   -900.75944    917.19211   -93015.683    1.8918427  0.044148077 
    6300   -927.50858    26.745291   -900.76328    957.91935   -93096.802    1.8918427  0.010220701 
    6400   -927.46395    26.704299   -900.75965    956.45115   -93207.538    1.8918427  0.014940693 
    6500    -925.3502    24.595218   -900.75498    880.91153    -92533.56    1.8918427  0.011038589 
    6600   -925.05398    24.297564   -900.75641    870.25063   -92078.362    1.8918427 0.0087077817 
    6700   -924.46075    23.707903   -900.75285    849.13112   -91169.676    1.8918427  0.054945291 
    6800   -926.35226    25.595116   -900.75715    916.72422   -93337.346    1.8918427   0.01312002 
    6900   -926.26867     25.50803   -900.76064    913.60512   -93501.957    1.8918427  0.080935584 
    7000   -927.76994    27.011098   -900.75884    967.43958   -93256.785    1.8918427   0.12024388 
    7100   -925.15634    24.398773   -900.75757    873.87557   -91043.934    1.8918427  0.012148168 
    7200   -926.15813    25.401495   -900.75664    909.78944    -91610.51    1.8918427   0.11299647 
    7300   -927.19821    26.438063   -900.76015    946.91552   -94250.762    1.8918427   0.02941242 
    7400   -925.83263     25.07357   -900.75906    898.04434   -93637.766    1.8918427  0.030353465 
    7500   -926.89488    26.131592   -900.76329    935.93887    -92451.01    1.8918427   0.12779855 
    7600   -926.78787    26.027325   -900.76054    932.20438   -92979.563    1.8918427 0.0062904304 
    7700   -926.84045     26.07746     -900.763    934.00004   -93962.265    1.8918427  0.016599049 
    7800   -926.28144    25.521543    -900.7599     914.0891   -92664.036    1.8918427  0.099008067 
    7900   -927.17509    26.415346   -900.75974     946.1019   -93775.963    1.8918427  0.012291503 
    8000   -927.29534    26.538482   -900.75686    950.51219   -93802.828    1.8918427 0.0058765866 
    8100   -925.24416     24.48973   -900.75443    877.13331   -91241.343    1.8918427  0.027307262 
    8200   -926.28666    25.527222   -900.75944    914.29253   -92782.431    1.8918427   0.29919526 
    8300   -927.51293    26.753533    -900.7594    958.21453   -92800.989    1.8918427   0.14967062 
    8400   -925.20949    24.454076   -900.75542    875.85632   -91593.647    1.8918427   0.30716565 
    8500   -926.20236    25.442623   -900.75974    911.26248   -92969.216    1.8918427  0.075852917 
    8600   -927.94042    27.179017   -900.76141    973.45383   -93403.526    1.8918427    0.1279249 
    8700   -926.57548    25.816396   -900.75908    924.64968   -93123.883    1.8918427 0.0099897758 
    8800   -926.35898    25.601021   -900.75796    916.93574   -94068.263    1.8918427  0.082503182 
    8900   -925.65435    24.897602   -900.75675    891.74182   -91937.721    1.8918427  0.066018608 
    9000   -925.09675    24.341072   -900.75568    871.80892   -92336.785    1.8918427   0.11142552 
    9100   -927.07842    26.318952   -900.75947    942.64942    -93421.01    1.8918427  0.035586034 
    9200   -925.95647    25.201228   -900.75525    902.61659   -92368.999    1.8918427    0.0219045 
    9300   -928.25337    27.493013   -900.76036    984.70003   -94911.112    1.8918427   0.10283908 
    9400   -926.74115    25.980713   -900.76044    930.53493   -94671.627    1.8918427  0.056993478 
    9500   -927.25998    26.499292   -900.76069    949.10854    -94228.19    1.8918427    0.1971559 
    9600   -926.97387    26.215108   -900.75876    938.93009   -92161.324    1.8918427  0.034208467 
    9700   -926.81276    26.051602   -900.76116    933.07391   -93402.997    1.8918427  0.013915815 
    9800   -927.34849    26.587338   -900.76116    952.26202   -93776.007    1.8918427  0.036736101 
    9900   -927.57445    26.815541   -900.75891    960.43545   -92720.566    1.8918427  0.034145981 
   10000   -926.54663    25.789244   -900.75739    923.67721    -92877.33    1.8918427   0.10928303 
   10100   -924.90779    24.149206   -900.75859    864.93697   -91461.309    1.8918427    0.0695713 
   10200   -926.60431    25.845838   -900.75847     925.7042   -91986.238    1.8918427  0.042188878 
   10300   -926.91432    26.156686   -900.75764    936.83765   -91446.266    1.8918427  0.034050265 
   10400   -928.21465    27.452699   -900.76195    983.25612   -94434.192    1.8918427  0.048503747 
   10500   -928.30922    27.546694   -900.76253    986.62267    -93458.54    1.8918427  0.056380453 
   10600   -925.98628    25.230543   -900.75574    903.66654   -91488.449    1.8918427  0.022307113 
   10700    -927.7038    26.944583   -900.75921    965.05724    -94297.11    1.8918427  0.032370478 
   10800   -927.80055     27.03979   -900.76076     968.4672   -93690.767    1.8918427    0.1078063 
   10900   -926.69246    25.933728   -900.75873    928.85209   -92342.231    1.8918427    0.1246675 
   11000   -926.99931    26.241626   -900.75768    939.87986    -92858.48    1.8918427  0.066332311 
   11100   -928.03219    27.270507   -900.76168    976.73067   -93386.467    1.8918427   0.24439557 
   11200   -927.23868    26.478719   -900.75996    948.37169   -93052.978    1.8918427  0.083705623 
   11300   -926.47446    25.717192   -900.75727    921.09655   -91737.525    1.8918427  0.048207909 
   11400   -927.87369    27.110321   -900.76337    970.99339   -93768.166    1.8918427   0.18527103 
   11500   -928.67381    27.913835   -900.75998    999.77234   -93042.916    1.8918427   0.16257553 
   11600   -925.37682    24.620714    -900.7561    881.82468   -91502.721    1.8918427 0.0089378479 
   11700   -927.99755    27.236753    -900.7608    975.52172   -93615.213    1.8918427  0.053104315 
   11800   -927.99982    27.235515   -900.76431    975.47739   -92603.572    1.8918427   0.10546312 
   11900   -927.02716    26.266734   -900.76042    940.77915   -92402.936    1.8918427  0.074869615 
   12000   -927.63392    26.871286   -900.76264      962.432   -94140.368    1.8918427   0.15435591 
   12100    -926.2106    25.448735   -900.76186    911.48139   -92931.465    1.8918427   0.19869473 
   12200    -928.1032    27.341676   -900.76152    979.27969   -94172.548    1.8918427   0.18587864 
   12300   -926.60365    25.844243   -900.75941    925.64705   -91947.738    1.8918427  0.099237726 
   12400   -926.88421    26.122733   -900.76147    935.62156   -92540.029    1.8918427   0.27272705 
   12500   -928.17971    27.413901   -900.76581    981.86651   -93553.922    1.8918427   0.16756028 
   12600   -926.14615    25.386492   -900.75966    909.25209   -90964.627    1.8918427   0.26426864 
   12700   -928.47237    27.705545   -900.76683    992.31213   -92585.728    1.8918427    3.9434661 
   12800   -925.36984    24.615313   -900.75453    881.63126   -89990.453    1.8918427    4.4455468 
   12900   -925.81651    25.057077   -900.75943    897.45362    -91508.27    1.8918427    7.1092176 
   13000   -926.70183    25.938315   -900.76352    929.01638   -91560.859    1.8918427     8.964215 
   13100   -927.63438    26.867848   -900.76653    962.30889   -93139.295    1.8918427    12.206248 
   13200   -928.66241    27.894317   -900.76809    999.07326   -94886.339    1.8918427     14.54943 
   13300   -926.65642    25.891067   -900.76535    927.32414   -91709.063    1.8918427    12.199154 
   13400   -927.42768    26.660437   -900.76725    954.88017   -93081.599    1.8918427    14.188449 
   13500   -927.54825     26.77723   -900.77102    959.06329   -93627.423    1.8918427    13.654629 
   13600   -926.70361    25.934961   -900.76865    928.89623    -92669.69    1.8918427     13.44231 
   13700   -925.97606    25.208463   -900.76759    902.87573   -90909.096    1.8918427    13.311597 
   13800   -927.07152    26.303397   -900.76812    942.09227   -91848.894    1.8918427    13.821289 
   13900   -926.60078     25.84128    -900.7595    925.54093   -92649.053    1.8918427    8.8556486 
   14000   -927.43301    26.673545   -900.75946    955.34966   -93168.701    1.8918427    14.352401 
   14100   -927.69009    26.930486    -900.7596    964.55234    -93216.81    1.8918427    14.721811 
   14200   -926.00408    25.247418   -900.75667    904.27096   -91199.656    1.8918427    11.000438 
   14300   -927.20334     26.44263   -900.76071     947.0791   -93219.898    1.8918427    9.7705311 
   14400    -927.1356    26.378445   -900.75716    944.78024   -93413.603    1.8918427    4.4910966 
   14499   -926.69444    25.928086   -900.76635    928.65002   -92084.674    1.8918427    1.9080339 
Loop time of 7.63464 on 1 procs for 14499 steps with 217 atoms

Performance: 169.755 ns/day, 0.141 hours/ns, 1899.106 timesteps/s
100.0% CPU use with 1 MPI tasks x no OpenMP threads

MPI task timing breakdown:
Section |  min time  |  avg time  |  max time  |%varavg| %total
---------------------------------------------------------------
Pair    | 7.5117     | 7.5117     | 7.5117     |   0.0 | 98.39
Neigh   | 0.0071127  | 0.0071127  | 0.0071127  |   0.0 |  0.09
Comm    | 0.059998   | 0.059998   | 0.059998   |   0.0 |  0.79
Output  | 0.0041066  | 0.0041066  | 0.0041066  |   0.0 |  0.05
Modify  | 0.031366   | 0.031366   | 0.031366   |   0.0 |  0.41
Other   |            | 0.02036    |            |       |  0.27

Nlocal:    217 ave 217 max 217 min
Histogram: 1 0 0 0 0 0 0 0 0 0
Nghost:    916 ave 916 max 916 min
Histogram: 1 0 0 0 0 0 0 0 0 0
Neighs:    3614 ave 3614 max 3614 min
Histogram: 1 0 0 0 0 0 0 0 0 0
FullNghs:  7228 ave 7228 max 7228 min
Histogram: 1 0 0 0 0 0 0 0 0 0

Total # of neighbors = 7228
Ave neighs/atom = 33.3088
Neighbor list builds = 12
Dangerous builds = 0
Total wall time: 0:00:07
