ITEM: TIMESTEP
0
ITEM: NUMBER OF ATOMS
9
ITEM: BOX BOUNDS pp pp pp
0.0000000000000000e+00 6.4012000000000002e+00
0.0000000000000000e+00 6.4012000000000002e+00
0.0000000000000000e+00 6.4012000000000002e+00
ITEM: ATOMS id type xs ys zs
1 2 0 0 0
6 2 0.25 0.25 0.25
3 2 0.5 0.5 0
8 2 0.75 0.75 0.25
4 2 0.5 0 0.5
5 2 0.75 0.25 0.75
2 2 0 0.5 0.5
7 2 0.25 0.75 0.75
9 1 0.5 0.5 0.5
ITEM: TIMESTEP
107
ITEM: NUMBER OF ATOMS
9
ITEM: BOX BOUNDS pp pp pp
2.8896499865192543e-01 6.1122350013480720e+00
2.8896499865192543e-01 6.1122350013480720e+00
2.8896499865192543e-01 6.1122350013480720e+00
ITEM: ATOMS id type xs ys zs
1 2 -2.00185e-16 -1.62055e-16 -2.57381e-16
6 2 0.240528 0.240528 0.240528
3 2 0.5 0.5 -6.67285e-17
8 2 0.759472 0.759472 0.240528
4 2 0.5 -6.67285e-17 0.5
5 2 0.759472 0.240528 0.759472
2 2 -6.67285e-17 0.5 0.5
7 2 0.240528 0.759472 0.759472
9 1 0.5 0.5 0.5
