LAMMPS (3 Mar 2020)
Reading data file ...
  orthogonal box = (0 0 0) to (16.36 16.36 16.36)
  1 by 1 by 1 MPI processor grid
  reading atoms ...
  256 atoms
  read_data CPU = 0.00101628 secs
Reading potential file /usr/share/lammps-stable/potentials/Ag_u3.eam with DATE: 2007-06-11
Neighbor list info ...
  update every 1 steps, delay 10 steps, check yes
  max neighbors/atom: 2000, page size: 100000
  master list distance cutoff = 7.55
  ghost atom cutoff = 7.55
  binsize = 3.775, bins = 5 5 5
  2 neighbor lists, perpetual/occasional/extra = 1 1 0
  (1) pair eam, perpetual
      attributes: half, newton on
      pair build: half/bin/atomonly/newton
      stencil: half/bin/3d/newton
      bin: standard
  (2) compute rdf, occasional, copy from (1)
      attributes: half, newton on
      pair build: copy
      stencil: none
      bin: none
Setting up Verlet run ...
  Unit style    : metal
  Current step  : 0
  Time step     : 0.005
Per MPI rank memory allocation (min/avg/max) = 3.744 | 3.744 | 3.744 Mbytes
Step PotEng KinEng TotEng Temp Press Density c_msdall[4] 
       0       -729.6    40.806135   -688.79387         1238    9953.8737    10.472245            0 
     100   -707.23095    22.002564   -685.22839    667.52644   -5254.4999    10.014312   0.06559538 
     200   -702.89911     21.71805   -681.18106     658.8947   -6988.1397    9.9268712  0.093478082 
     300   -702.82493    25.259445   -677.56549    766.33558    3196.1048    10.022802  0.087036396 
     400   -701.81718    27.742088   -674.07509    841.65541    2077.2574    9.9893166  0.090519991 
     500   -698.19332    27.502861   -670.69045    834.39761   -1173.6291    9.8974594   0.10465282 
     600   -696.82232    29.562247   -667.26008    896.87644   -2106.7267    9.8611209   0.12103073 
     700   -695.35495    31.411676   -663.94328    952.98549    1058.5497    9.8689821   0.12473242 
     800    -690.5121    29.977578   -660.53452    909.47701    11535.125    9.8929558   0.13381561 
     900    -691.8358    34.540175   -657.29563    1047.8997   -7813.2302    9.7025445   0.15177109 
    1000   -687.41507    33.521449   -653.89362     1016.993   -5784.3355    9.6525361   0.17280717 
    1100   -684.25568    33.718367   -650.53731    1022.9672    3010.2837    9.6921369    0.1802982 
    1200   -685.57426    38.404739   -647.16952    1165.1451    3717.9501    9.7131616   0.16167791 
    1300   -682.96985    38.925733   -644.04411    1180.9513    2356.7462    9.6511423   0.19315264 
    1400   -679.19102    38.678044   -640.51297    1173.4368   -880.30775    9.5390314   0.21831633 
    1500   -678.12537    40.767644   -637.35773    1236.8322    3418.2174    9.5717829   0.20785744 
    1600   -678.92635    42.543631   -636.38272    1290.7131    412.79591    9.5482774   0.22022879 
    1700   -683.32543    39.359235   -643.96619    1194.1031    2871.6094    9.6641073   0.18578671 
    1800   -682.89926    41.357703   -641.54156    1254.7338    1688.4863    9.6332979   0.18671312 
    1900   -677.14906    39.215227   -637.93383    1189.7341    9886.3155    9.6276216   0.22196734 
    2000    -678.2415     41.74367   -636.49784    1266.4435   -4914.5613    9.4735563   0.27016681 
    2100   -669.13822    39.017182   -630.12104    1183.7257    365.41811    9.3903472   0.30675645 
    2200   -675.69613     39.96437   -635.73176     1212.462   -7598.3617    9.4051964   0.26529636 
    2300   -677.70951    39.073099   -638.63641    1185.4221   -4963.4782    9.4731881   0.24096937 
    2400   -675.80982      39.0496   -636.76022    1184.7092    5814.2101    9.5555326    0.2590149 
    2500   -673.95632    42.335941   -631.62037    1284.4121    381.00895    9.4669539   0.27271436 
    2600   -675.46052    36.268542   -639.19198    1100.3359    2120.6492    9.5273311   0.26778062 
    2700     -677.982     38.72154   -639.26046    1174.7564    1102.7584    9.5553468   0.25363579 
    2800   -675.61221     42.82029   -632.79192    1299.1066    2024.8197    9.5157101   0.26522452 
    2900   -677.18145    42.768545    -634.4129    1297.5367    -4964.361    9.4668271   0.26183006 
    3000    -682.3695    42.166761   -640.20274    1279.2795   -3512.2697    9.5659545   0.19601299 
    3100   -679.03972    42.808153   -636.23157    1298.7384    1594.2087    9.5645032   0.19473956 
    3200    -678.5654    42.458002    -636.1074    1288.1153   -732.62816    9.5315575   0.24253767 
    3300    -683.3369     40.23524   -643.10166    1220.6798   -4301.3969    9.5740371   0.21919331 
    3400   -680.56442     42.78541   -637.77901    1298.0484   -3922.5777    9.5255194   0.23105006 
    3500   -679.37242    44.179863   -635.19256    1340.3541    6828.3937     9.626672   0.23779573 
    3600    -680.6791    40.205154   -640.47395    1219.7671     1584.531    9.5978258   0.21238353 
    3700   -681.30365    39.380827   -641.92282    1194.7582    -6214.668    9.5205551   0.21780472 
    3800   -676.65757     40.25466   -636.40291     1221.269   -2957.4348    9.4701908   0.26953391 
    3900   -676.91834    42.223104   -634.69524    1280.9888    -7178.807    9.4191126   0.27221314 
    4000   -676.94198    38.204346   -638.73764    1159.0654    3604.8964    9.5643876   0.23355432 
    4100   -683.46004    44.066262   -639.39378    1336.9076    5560.1506     9.690952   0.15658941 
    4200   -679.45069    46.728868   -632.72182    1417.6873   -4187.6649    9.4987706   0.23099079 
    4300   -675.09687    40.863717   -634.23315     1239.747   -3164.0119    9.4306008   0.28033746 
    4400   -682.73776     40.46197   -642.27579    1227.5585    5747.7324    9.6896417   0.21007158 
    4500   -682.20852    42.269752   -639.93877     1282.404   -1442.0475    9.5874237    0.2230526 
    4600   -676.66752    41.929797   -634.73773    1272.0903   -6687.7105    9.4383506   0.24979242 
    4700    -678.7769    39.863332   -638.91356    1209.3967   -6190.1043    9.4809294   0.24933133 
    4800   -678.44624     37.56278   -640.88346    1139.6012   -2443.2084    9.5282793   0.23129063 
    4900   -675.48471    42.766181   -632.71853     1297.465   -5385.1969    9.4324025    0.2647569 
    5000   -676.35709    42.574555   -633.78253    1291.6513    4929.4914    9.5672841   0.23494316 
    5100   -682.52975    41.710591   -640.81916    1265.4399    1234.8332    9.6174698   0.21192508 
    5200   -674.24609    37.093115   -637.15298    1125.3522   -9323.4547    9.3800204   0.28009914 
    5300   -672.13789    39.789998   -632.34789    1207.1718   -3286.0989      9.38372   0.31929606 
    5400   -679.11004     40.80978   -638.30026    1238.1106   -1445.4107    9.5366998   0.24822706 
    5500   -680.42818     40.15355   -640.27463    1218.2015    1972.4528    9.6022782   0.21191273 
    5600   -675.20374    40.443941    -634.7598    1227.0116   -1986.3822    9.4636356   0.26149983 
    5700   -675.92877    42.871913   -633.05686    1300.6728   -5562.4864    9.4229028   0.26243235 
    5800   -678.27125    38.782401   -639.48885    1176.6028     6171.423    9.6003827   0.21352426 
    5900   -678.89252    40.549966   -638.34256    1230.2282    -576.8563    9.5316617   0.25384728 
    6000   -676.32316     42.67601   -633.64715    1294.7293   -10886.426    9.3653169   0.28829655 
    6100   -677.01579    38.060681   -638.95511    1154.7068   -4863.0465    9.4575485    0.2561385 
    6200   -682.03141    40.015739   -642.01568    1214.0205    7583.5693    9.6860527   0.19738785 
    6300   -676.63801    41.025499   -635.61251    1244.6552    7558.9418    9.5815088   0.24146292 
    6400   -674.88223    40.109597   -634.77263     1216.868   -2703.7637     9.441713    0.3134443 
    6500   -678.56169    36.461475   -642.10022    1106.1892   -4147.8837    9.5008822   0.25118192 
    6600   -677.12481     36.68665   -640.43816    1113.0207   -296.29518    9.5127091   0.24590945 
    6700   -676.48906    41.852942   -634.63612    1269.7586   -3077.5659    9.4678228    0.2549244 
    6800   -678.92974    42.662224   -636.26752    1294.3111   -634.86229     9.536626   0.20710863 
    6900   -683.39684    40.932855   -642.46399    1241.8445    6482.9444     9.685155   0.18360748 
    7000   -678.89045    41.392774   -637.49767    1255.7978    426.60069    9.5456135   0.22000529 
    7100   -677.05747    43.031418   -634.02605    1305.5119   -1063.3936    9.4934263   0.25868331 
    7200   -680.34968    39.549532   -640.80015    1199.8765    471.04511    9.5785593   0.21402186 
    7300   -678.11462     38.13061   -639.98401    1156.8284    3626.3746    9.5812013   0.21612254 
    7400   -674.09788    37.988919   -636.10896    1152.5297   -4795.5364    9.4224054   0.26279632 
    7500   -674.36383    36.312857   -638.05097    1101.6803   -2243.0755    9.4645571   0.30107311 
    7600   -685.10376    41.703979   -643.39978    1265.2393    839.22212    9.6570774   0.19415841 
    7700    -686.9198    41.319609    -645.6002    1253.5781   -1292.7575    9.6716896     0.170274 
    7800   -678.54107    40.012842   -638.52823    1213.9326    2858.7318     9.568583   0.24056794 
    7900   -680.09206    43.507886   -636.58417    1319.9673   -4052.3254    9.5261561     0.210938 
    8000   -678.64033     39.00983    -639.6305    1183.5027    6176.0274    9.6085681    0.2209422 
    8100   -682.54181    37.696332   -644.84548     1143.653    -9048.884    9.5083697   0.23466757 
    8200   -676.18743    38.867282   -637.32014     1179.178   -2092.7088     9.486305   0.24471745 
    8300   -675.18837    39.118306   -636.07006    1186.7937    14483.891    9.6483894    0.2035243 
    8400   -677.88477    36.392173    -641.4926    1104.0867    4828.0772    9.6001592    0.2030816 
    8500   -680.45516    41.391257    -639.0639    1255.7518   -1052.6606    9.5476065   0.23330389 
    8600     -675.348    41.636881   -633.71112    1263.2036   -5456.9812    9.4175495   0.29705234 
    8700   -677.58505    38.927456   -638.65759    1181.0036    1347.4105    9.5447407   0.25632135 
    8800   -677.94409    38.974809   -638.96928    1182.4402   -1469.5661    9.5223409   0.24804053 
    8900   -674.95746     41.74389   -633.21357    1266.4501    211.87931    9.4593973    0.2557513 
    9000   -678.69059    41.303872   -637.38672    1253.1006   -4946.3087    9.4822311    0.2358173 
    9100   -683.68013    43.255192   -640.42494    1312.3009   -822.33761    9.6252819   0.21254043 
    9200   -679.68117    44.952511   -634.72865    1363.7951    12402.264     9.676405   0.24376795 
    9300   -675.46657    41.546147   -633.92043    1260.4509    6931.2612      9.55668   0.25117547 
    9400   -680.43717    40.244353   -640.19281    1220.9563   -9981.2815     9.471509   0.21692974 
    9500   -680.30715    38.775046    -641.5321    1176.3796   -4753.0669    9.5078188    0.2224465 
    9600    -674.5001    40.016028   -634.48407    1214.0293    2812.0303    9.4826489   0.25852371 
    9700   -676.64831    39.465555   -637.18275    1197.3287   -270.79477    9.4963578   0.26517648 
    9800   -681.17921    39.131329   -642.04788    1187.1888   -666.72127    9.5863978   0.24681249 
    9900   -676.54869    40.893247   -635.65544    1240.6428   -2039.8449    9.4824446      0.24495 
   10000   -675.39773    38.537167   -636.86056    1169.1627    64.629953    9.4838416   0.24303849 
   10100   -681.16736    38.279603   -642.88776    1161.3486   -2326.7945    9.5730966   0.20180957 
   10200   -681.47536    42.413389   -639.06197    1286.7618   -2440.6747    9.5604484   0.20717023 
   10300   -680.66664    45.557439    -635.1092    1382.1478    7148.4015    9.6385408   0.20629664 
   10400   -676.78709    39.747732   -637.03936    1205.8896    1547.1573    9.5305911    0.2316854 
   10500   -680.73051    36.986661   -643.74385    1122.1226   -11154.366    9.4629181   0.27524841 
   10600   -679.05873    40.034496   -639.02423    1214.5896    1929.0957    9.5745942   0.22469186 
   10700    -675.9462     41.75208   -634.19412    1266.6986    9034.0027    9.5935256   0.22741588 
   10800   -679.96095    40.669167   -639.29178    1233.8446    1203.7197    9.5895883   0.21469444 
   10900   -683.18517     40.20137    -642.9838    1219.6523   -8380.2883    9.5351959   0.19701434 
   11000   -677.75193    42.010324    -635.7416    1274.5334    3401.5585    9.5635573   0.21812189 
   11100    -674.9331    38.731161   -636.20194    1175.0482    9694.0249    9.6059383    0.2518499 
   11200   -680.12934    38.562316   -641.56703    1169.9257   -378.60247    9.5704013   0.21309971 
   11300   -682.65413    39.838012   -642.81612    1208.6285   -1968.0123    9.6049791   0.22802617 
   11400   -679.35106    43.250549   -636.10052      1312.16     3170.668    9.5861575   0.23344297 
   11500    -678.4697    40.949549   -637.52015     1242.351     1575.793    9.5548242    0.2544292 
   11600   -678.05032    41.419715   -636.63061    1256.6152   -3882.7354    9.4806817   0.24673606 
   11700   -669.93014    40.735307   -629.19483    1235.8512    3938.7016    9.4348732   0.30888082 
   11800   -673.94431    38.945868   -634.99845    1181.5621   -4593.6331     9.417372   0.30527039 
   11900   -679.34749    40.499068   -638.84842     1228.684   -8912.9071    9.4527773   0.28260035 
   12000   -679.16765    39.120106   -640.04755    1186.8483    1235.6459    9.5592034   0.21930403 
   12100   -679.78802    43.722656   -636.06536    1326.4831    2557.6338    9.5923051   0.21263297 
   12200    -674.3377    42.667788   -631.66991    1294.4799   -197.46575     9.453154   0.29188901 
   12300   -675.30287    37.215476    -638.0874    1129.0645   -1523.1399    9.4720248    0.2288272 
   12400    -680.9469    41.330577   -639.61632    1253.9108   -7383.1607     9.509088   0.23492884 
   12500   -676.29987    44.304628   -631.99524    1344.1393    9571.9678    9.5980218   0.23441142 
   12600   -678.00063    44.189119   -633.81151    1340.6349    13351.384    9.6803336   0.23189519 
   12700   -679.52517    42.145607   -637.37956    1278.6377    -190.2917    9.5519156   0.24074022 
   12800   -676.53584    40.831519   -635.70432    1238.7701    -10266.51    9.3933613   0.28182981 
   12900   -674.41743    44.581473   -629.83596    1352.5384   -6169.4011    9.3911057   0.27735125 
   13000    -677.6172    41.074196     -636.543    1246.1326    9779.0202    9.6238417   0.20526439 
   13100   -680.85427    40.527379   -640.32689    1229.5429   -126.89977    9.5707766   0.20874266 
   13200   -674.44498    39.303207   -635.14177    1192.4033   -378.33238    9.4655871   0.24844415 
   13300   -674.71611    41.719266   -632.99685    1265.7031    780.47903    9.4761265   0.22245355 
   13400   -681.80037    42.667275    -639.1331    1294.4643   -8131.3663    9.5067158   0.22695679 
   13500   -674.28562     34.10818   -640.17744    1034.7936    1746.9327    9.4887498   0.28678813 
   13600   -676.06575    43.129154    -632.9366    1308.4771   -2389.3504    9.4650956   0.27214705 
   13700   -675.73136    40.328719   -635.40264    1223.5159     14529.68    9.6591389   0.22078358 
   13800    -679.9141    38.675366   -641.23874    1173.3555    4647.5378    9.6245078   0.21063016 
   13900   -677.48496    40.335852    -637.1491    1223.7323    -9170.506    9.4220914   0.26707059 
   14000   -675.37167    41.194137   -634.17753    1249.7714   -9079.6169    9.3740871   0.28381376 
   14100   -680.04232    40.569601   -639.47272    1230.8239    1216.6674    9.5746996   0.22431239 
   14200   -680.58534     40.37008   -640.21526    1224.7707    8473.6331    9.6720706   0.20432245 
   14300   -675.69825    42.211156   -633.48709    1280.6263     -3233.72    9.4568374   0.28376175 
   14400   -678.44665    40.827801   -637.61885    1238.6573   -8381.8454     9.439629   0.22709698 
   14500   -680.08727    38.689348   -641.39792    1173.7797    6343.7549    9.6392912   0.19464873 
   14600   -676.06554    41.430498   -634.63504    1256.9423   -491.91897    9.4957423   0.25396183 
   14700   -676.35084     40.16215   -636.18869    1218.4624   -2569.6585    9.4751093   0.26230455 
   14800     -676.782    36.375945   -640.40606    1103.5943    1808.1293    9.5367482    0.2714406 
   14900   -672.27729     37.76421   -634.51308    1145.7123   -3434.2357    9.4018401   0.26688689 
   15000   -676.15326    42.216278   -633.93699    1280.7817    2409.5156     9.519079   0.24813015 
   15100   -680.57517     41.15051   -639.42466    1248.4478    7476.0061    9.6619436   0.19877356 
   15200   -678.86973    40.139314   -638.73042    1217.7696   -1816.4173     9.518132   0.22206817 
   15300   -669.73555    38.020225   -631.71532    1153.4794   -12834.441    9.2491497   0.34610899 
   15400   -679.17913    42.278124   -636.90101     1282.658   -4557.7284    9.4923858   0.27427308 
   15500   -680.06122    41.395915   -638.66531    1255.8931    7137.1349    9.6437927   0.22247578 
   15600   -678.31452     43.50792    -634.8066    1319.9683    2259.5743    9.5572811   0.22444386 
   15700    -672.4728    40.465968   -632.00683    1227.6798    2654.7728    9.4651649   0.25548796 
   15800   -679.40186     39.50758   -639.89428    1198.6037   -9075.9535    9.4597754   0.23198632 
   15900    -679.6199    40.261087   -639.35882     1221.464   -5899.5937    9.4919621   0.25789287 
   16000   -678.24349    45.851801   -632.39169    1391.0783    4421.6436    9.5697407   0.21375428 
   16100   -679.01995    42.417009   -636.60294    1286.8716     1805.465     9.561143   0.23480366 
   16200   -681.10187    39.187315   -641.91456    1188.8873    5482.0399    9.6415229   0.19741749 
   16300   -679.42243    40.924236   -638.49819     1241.583    -4301.203    9.5087384   0.24341053 
   16400    -675.4949    41.897713   -633.59719    1271.1169   -1447.0007    9.4649331   0.22480804 
   16500    -679.1012    42.066592    -637.0346    1276.2405    7281.2186    9.6442268   0.20987873 
   16600   -679.96591    38.635614    -641.3303    1172.1495     3794.424    9.6244443   0.19363737 
   16700   -680.91953    38.624152   -642.29538    1171.8017   -870.68199    9.5751449   0.21258428 
   16800   -678.40487     43.81904   -634.58583    1329.4072   -1683.4107    9.5068944   0.23773352 
   16900   -678.44653    41.004638    -637.4419    1244.0223    1610.6388    9.5561087   0.22316419 
   17000   -679.75812    40.323567   -639.43455    1223.3596    2390.3055    9.5918901   0.21764983 
   17100    -674.6024    42.531925   -632.07047     1290.358    1707.1249    9.4847105   0.23961621 
   17200   -673.40773    40.227395   -633.18034    1220.4419    5890.7292    9.5043708   0.26088737 
   17300   -680.44886    41.326071   -639.12279    1253.7741     -2253.04     9.537453   0.21274691 
   17400   -679.00082    38.265304   -640.73552    1160.9148   -10074.339    9.4510226    0.2360491 
   17500   -677.94723    45.763684   -632.18354     1388.405   -1899.2022    9.5009269   0.25272934 
   17600   -675.73303    41.147344   -634.58569    1248.3518    16322.901     9.654756   0.24929086 
   17700   -681.76933    41.222985   -640.54635    1250.6466   -6336.4528    9.5213905   0.20892822 
   17800   -680.31854    40.836688   -639.48185    1238.9269   -5528.6522    9.5128863   0.23686075 
   17900   -674.13298    40.097769   -634.03522    1216.5092   -1960.6344    9.4490374   0.27931471 
   18000    -676.5314    37.747617   -638.78379    1145.2089    7831.4571    9.5933811   0.26191958 
   18100   -678.84581    40.813813   -638.03199    1238.2329    3164.1465    9.5911325   0.24272833 
   18200   -676.27066    45.712378   -630.55828    1386.8484    840.09216    9.4937716   0.26296182 
   18300   -676.89904    39.556753   -637.34229    1200.0955    12244.829    9.6548725   0.24396073 
   18400   -680.31413    42.543264   -637.77087     1290.702   -3890.7786    9.5232235   0.22243702 
   18500   -678.70653    40.063851   -638.64268    1215.4802    372.53632    9.5428356    0.2131509 
   18600   -678.23108    37.774767   -640.45631    1146.0326    7136.2841    9.6231249    0.2195276 
   18700   -684.87691    37.889599   -646.98731    1149.5164   -144.68312    9.6688434   0.18111616 
   18800    -680.3404    39.348464   -640.99193    1193.7763   -9884.0411    9.4509505    0.2581695 
   18900    -679.7671    42.176014   -637.59108    1279.5602   -7635.1846    9.4616389    0.2507651 
   19000   -673.82592    37.040118   -636.78581    1123.7444    3646.5925    9.5008688   0.26810948 
   19100   -679.77896    37.398085   -642.38088    1134.6046     1816.573    9.6005116   0.23857336 
   19200   -680.74002    39.458642   -641.28138     1197.119    7703.3836    9.6605197   0.19079555 
   19300   -678.41805    43.181314   -635.23674    1310.0596   -2613.9638     9.492534   0.22227842 
   19400   -680.16985    43.324201   -636.84565    1314.3945   -7140.1574    9.4879353   0.22292329 
   19500   -683.51808    40.186173   -643.33191    1219.1912   -5335.5285    9.5620708   0.20395635 
   19600   -676.78218    39.128314   -637.65387    1187.0973   -1875.2666    9.4844228   0.23401844 
   19700   -676.38851    41.352265   -635.03624    1254.5688   -9781.9683    9.4087149   0.24436727 
   19800   -679.75773    39.297806   -640.45992    1192.2395    11178.287    9.6924116   0.21555648 
   19900   -682.29334    43.401769   -638.89157    1316.7478    2837.6167    9.6309214   0.20289607 
   20000   -675.26662    43.427273   -631.83935    1317.5216   -2922.4383    9.4204996   0.25710767 
   20100   -677.56957    40.141132   -637.42844    1217.8248    1925.5475    9.5557375   0.25624908 
   20200    -680.2068     39.57842   -640.62838    1200.7529    3403.6005    9.6163939   0.23598447 
   20300   -678.36193    43.988576   -634.37335    1334.5507    6235.6544    9.6087016    0.2076645 
   20400   -678.64812    42.125739   -636.52239    1278.0349    -6151.068    9.4878826   0.22869375 
   20500   -680.76096    37.575649   -643.18531    1139.9917   -8638.7075    9.4881678    0.2306843 
   20600   -679.87159    42.574992    -637.2966    1291.6646   -9266.4455    9.4505582   0.25172931 
   20700   -673.27806      38.1516   -635.12646    1157.4652    7784.8468    9.5373591   0.29205443 
   20800    -677.5278    39.828535   -637.69926     1208.341   -8383.8507     9.421583   0.28296545 
   20900   -680.42484    36.133594   -644.29124    1096.2418   -2035.6213    9.5570637   0.21379405 
   21000   -678.30926    40.252986   -638.05628    1221.2182    1330.1259    9.5569942   0.23373753 
   21100   -676.51333    41.910834    -634.6025     1271.515    1256.3479    9.5127093    0.2410057 
   21200   -679.06912    40.776412   -638.29271    1237.0982    1621.1233    9.5731221   0.21417512 
   21300   -680.29011    38.982502   -641.30761    1182.6736   -1927.3122    9.5478346   0.19838206 
   21400   -675.72565    39.673294   -636.05235    1203.6312    7036.5793    9.5680468   0.24016758 
   21500   -678.91677    44.315891   -634.60088     1344.481    1466.7427    9.5674583   0.23557547 
   21600   -682.83149    41.624586    -641.2069    1262.8306    3926.2763     9.657922   0.18352977 
   21700   -678.37617     40.45574   -637.92043    1227.3695    2283.4402    9.5633838   0.24572862 
   21800   -672.86257    38.892467    -633.9701     1179.942   -5278.5564    9.3969657   0.28016943 
   21900    -676.6938    37.758279   -638.93552    1145.5324   -4262.0441    9.4595054   0.26513558 
   22000   -680.23307     39.96346   -640.26961    1212.4344    4565.4332     9.634007   0.20747296 
   22100   -675.04567    43.181397   -631.86428    1310.0621    518.25904    9.4828668   0.24876981 
   22200    -677.4985    42.936265   -634.56223    1302.6251    2758.2603    9.5325061   0.22249781 
   22300   -681.56013    43.157153   -638.40298    1309.3265   -333.20597    9.5807147   0.21066671 
   22400   -681.88043    42.615062   -639.26537    1292.8803    2530.6272     9.630338   0.19928565 
   22500   -677.85439    42.730561   -635.12383    1296.3843   -1265.8607      9.51403   0.25781606 
   22600   -675.12837    41.114073    -634.0143    1247.3424    -9630.824    9.3752599    0.2777284 
   22700   -676.57231    38.581037   -637.99127    1170.4937   -6888.2526    9.4326206   0.24777443 
   22800   -679.15792    38.930057   -640.22786    1181.0825    5425.9189    9.5970439   0.20388024 
   22900   -676.66342    43.034843   -633.62858    1305.6158    9167.6126    9.6052696   0.22665896 
   23000   -678.46342    45.494376   -632.96905    1380.2346   -3641.6544     9.498651   0.21663768 
   23100     -680.442    41.141093    -639.3009    1248.1621   -2530.8784    9.5457742   0.19651538 
   23200   -681.19833     43.14803    -638.0503    1309.0498    6051.8558    9.6423639   0.20093637 
   23300   -675.96885    44.457661   -631.51119    1348.7821   -4418.8894    9.4290176   0.27008189 
   23400   -677.47391    41.324275   -636.14963    1253.7196   -8504.0482    9.4365732    0.2588724 
   23500   -681.59641    42.571604    -639.0248    1291.5618   -1285.9691    9.5792232   0.21687201 
   23600   -678.65845    41.733719   -636.92473    1266.1416    998.80607    9.5587649   0.23373947 
   23700   -672.51713     41.30899   -631.20814    1253.2559    2773.8216    9.4456001   0.30130541 
   23800   -678.15284    40.503036    -637.6498    1228.8044   -7060.4005     9.434959    0.2666706 
   23900   -680.31599    40.182499    -640.1335    1219.0798   -6926.8994    9.4953138   0.25220348 
   24000   -674.73768    40.443865   -634.29381    1227.0092     4793.894    9.5388174   0.24918514 
   24100   -677.44186    42.371762   -635.07009    1285.4989    2906.0158    9.5568174   0.24863347 
   24200   -683.05546    41.369126   -641.68633    1255.0803   -4470.5065    9.5631148   0.21497285 
   24300   -677.33572    39.618356   -637.71736    1201.9645   -4769.1957    9.4763628   0.25631032 
   24400   -675.31952    40.705036   -634.61448    1234.9328   -1003.2533    9.4720161   0.27189336 
   24500   -678.57241    36.997443   -641.57497    1122.4497    2777.2923    9.5778074   0.24433094 
   24600   -682.76298    44.456363   -638.30662    1348.7427   -618.57946    9.5980245   0.20817331 
   24700   -677.94016    44.705722   -633.23444    1356.3079    2828.5475    9.5400549   0.21626506 
   24800    -677.6017     37.56731   -640.03439    1139.7387   -7600.6941    9.4681058   0.25055603 
   24900    -678.0966    38.377498    -639.7191    1164.3186   -11890.038    9.3997413   0.25367692 
   25000   -673.73697    40.108854   -633.62812    1216.8455    3485.1682    9.4819489   0.28651887 
   25100   -677.01376    42.268201   -634.74556     1282.357   -2749.0913    9.4895766   0.22606626 
   25200   -682.27762    43.142966   -639.13466    1308.8961    7431.5228    9.6836763   0.19532485 
   25300   -680.68217    43.519468    -637.1627    1320.3187     10604.02    9.6770865   0.19621055 
   25400   -673.79213    42.819033    -630.9731    1299.0685   -9422.6897    9.3580281     0.270389 
   25500   -673.28486    39.053596   -634.23126    1184.8305   -4693.1948    9.4041818   0.29422205 
   25600   -680.56071    40.379776   -640.18093    1225.0649    1736.6433    9.6003952   0.22286094 
   25700   -681.38841      45.3966   -635.99181    1377.2682   -1576.0504    9.5684368   0.19657749 
   25800    -678.4882    41.107349   -637.38085    1247.1384   -2658.2352    9.5278425    0.2349024 
   25900   -681.55854    38.073811   -643.48472    1155.1052   -830.76161    9.5866651   0.20827909 
   26000   -678.49666    41.837352   -636.65931    1269.2857   -5013.6273    9.4882563   0.22797634 
   26100   -678.80944    43.276315   -635.53312    1312.9417    4137.2598    9.5844146   0.23290767 
   26200   -681.44554    39.110628   -642.33492    1186.5607     5981.999    9.6745107   0.24421626 
   26300   -677.30628    39.531768   -637.77452    1199.3375   -5972.4735    9.4522212   0.24252519 
   26400   -672.80581    39.356154   -633.44965    1194.0096   -3594.9848    9.4077846   0.26495999 
   26500   -678.93084    39.242947    -639.6879    1190.5751    3524.8891    9.5830705   0.21433415 
   26600   -678.94993    38.142765   -640.80717    1157.1972    8390.6938    9.6551013   0.21531701 
   26700   -678.55646    43.029293   -635.52717    1305.4474   -4881.8097    9.4805749   0.23550506 
   26800   -674.91462    42.125348   -632.78927     1278.023   -998.07812    9.4566241    0.2916857 
   26900   -679.37978    39.394231   -639.98555    1195.1648   -7044.2182    9.4817523   0.24098199 
   27000   -679.45024    39.888938    -639.5613    1210.1735    14261.069    9.7156028   0.21849359 
   27100   -675.42657    38.958364   -636.46821    1181.9412      16351.4     9.680896   0.20331713 
   27200   -678.05932    41.284962   -636.77436    1252.5269   -10755.033    9.4129463   0.26732494 
   27300    -681.2874    36.306436   -644.98096    1101.4856   -3537.4173    9.5684264   0.21336007 
   27400   -681.87322    40.471521    -641.4017    1227.8483   -479.67435    9.5927911   0.20811109 
   27500   -678.89922    41.961508   -636.93771    1273.0524    3057.7995    9.5801394   0.23186922 
   27600    -676.9767    39.310808   -637.66589    1192.6339    688.50436    9.5277203   0.25418376 
   27700   -682.30834     39.12701   -643.18133    1187.0577    514.43545    9.6247012   0.21682582 
   27800   -677.45094    40.150056   -637.30089    1218.0955    5601.9407    9.5951913   0.22289554 
   27900   -675.28938    38.607632   -636.68175    1171.3005    2704.0251    9.5214463    0.2468474 
   28000   -675.60879    38.829079   -636.77971    1178.0189   -3944.0869    9.4386955   0.22786909 
   28100   -682.00936    38.340117   -643.66924    1163.1845   -8422.3885    9.5119716   0.21236842 
   28200   -679.26043    37.729117   -641.53131    1144.6477    11661.909    9.6982026   0.21120472 
   28300   -677.31775    41.629914   -635.68784    1262.9923    7653.1496    9.5959548   0.23289311 
   28400   -676.35103    39.169168   -637.18187    1188.3367   -1910.8051    9.4762249   0.25089902 
   28500   -682.33845    39.224902   -643.11354    1190.0276   -5178.2929    9.5553514   0.23141708 
   28600   -681.18098    40.945677    -640.2353    1242.2335    5178.4469    9.6240015    0.2190274 
   28700   -680.20133    44.061181   -636.14015    1336.7535   -1809.9701    9.5397041   0.22762529 
   28800   -677.70768    39.530122   -638.17756    1199.2876   -5330.3377    9.4853312   0.26495823 
   28900   -677.77996    40.416364    -637.3636    1226.1749   -1750.1582     9.526063   0.22682267 
   29000   -671.30784    41.779772   -629.52806    1267.5388   -315.02373    9.3962465     0.340931 
   29100   -676.57451    41.603522   -634.97099    1262.1916   -1568.8483    9.4905127   0.22252324 
   29200   -678.02823    39.344262   -638.68397    1193.6488    4247.4532    9.5763782   0.22554433 
   29300   -676.10282    39.817991   -636.28483    1208.0211     1858.478    9.5272774   0.20943797 
   29400   -676.71102     38.70416   -638.00686    1174.2291    2427.8665    9.5314546   0.21695821 
   29500   -682.70943    39.828443   -642.88099    1208.3382   -4231.0792    9.5696172   0.19535871 
   29600   -676.50128    37.693198   -638.80809    1143.5579    3826.8984    9.5530491   0.25406191 
   29700    -675.3942    40.281643   -635.11256    1222.0876    -14649.57    9.3216346   0.27493454 
   29800   -678.95591    39.704257   -639.25165    1204.5706   -9100.2351    9.4454043   0.25139006 
   29900   -683.26692     39.15056   -644.11636    1187.7722    1111.7268    9.6377589   0.19622659 
   30000   -679.24926    42.783755    -636.4655    1297.9982     941.2887    9.5526638   0.23634976 
   30100   -675.98512    40.250965   -635.73415    1221.1569   -1743.1563    9.4756921   0.24861362 
   30200   -680.39153    39.440915   -640.95062    1196.5812    2086.8918    9.5718885   0.18980989 
   30300   -679.11891    37.550654   -641.56825    1139.2333      4461.16    9.5880022   0.21983708 
   30400   -677.93312    41.999206   -635.93392    1274.1961    -2165.284    9.4978458   0.21922858 
   30500   -681.37066    44.952981   -636.41768    1363.8094    9350.8377    9.6813193   0.19084029 
   30600   -681.53198    39.786216   -641.74577    1207.0571    5168.0946    9.6592307   0.19878756 
   30700   -677.13418    41.031163   -636.10301     1244.827   -8508.0041    9.4137592   0.24293573 
   30800   -674.56651    39.531375   -635.03514    1199.3256    -8154.051    9.3709608   0.27795829 
   30900   -682.03524    41.182319   -640.85292    1249.4129    6733.0176    9.6558017   0.20362478 
   31000   -681.30772    41.960547   -639.34718    1273.0232    1872.5956    9.6212606   0.19844201 
   31100   -675.82919    41.760331   -634.06886    1266.9489    693.12472    9.4822317   0.26885163 
   31200   -678.95881    39.305924   -639.65289    1192.4857    460.57256     9.544996   0.24175042 
   31300    -681.5545    41.105808    -640.4487    1247.0916    5411.4551    9.6479622    0.2071974 
   31400   -677.62702    43.727149   -633.89987    1326.6194    6809.5861    9.5983283   0.20573554 
   31500   -678.70851    40.848446   -637.86007    1239.2837   -10172.559    9.4310049    0.2491142 
   31600   -677.82292    36.543635   -641.27929    1108.6818    2033.5409    9.5698991   0.21401849 
   31700   -677.83437    42.031889   -635.80248    1275.1876    1122.4199    9.5449413   0.22729825 
   31800   -675.04184    41.590412   -633.45143    1261.7939    2016.8486      9.48654   0.25965744 
   31900   -679.62623    40.549767   -639.07646    1230.2221    3380.1307    9.5900747   0.23286283 
   32000   -678.48483    39.977766   -638.50707    1212.8685   -999.35388    9.5308168   0.22481729 
   32100   -672.05614    40.942244   -631.11389    1242.1294    -6913.907    9.3435814    0.3176517 
   32200   -678.01284    41.903227   -636.10962    1271.2842    7413.0394    9.6053906   0.21099197 
   32300   -681.60396    42.241231   -639.36273    1281.5388    7862.8358     9.671651   0.21368461 
   32400   -674.89257     39.98444   -634.90813    1213.0709   -1475.5655    9.4624392   0.26720721 
   32500   -674.82766    37.875297   -636.95236    1149.0825    -3744.659    9.4224212   0.30838201 
   32600   -682.56723    39.120053   -643.44717    1186.8467   -8868.8984    9.5198056    0.2057762 
   32700   -681.56218    42.550078    -639.0121    1290.9088    1794.8337    9.6010885    0.1982057 
   32800   -677.13863    41.020423   -636.11821    1244.5012    8274.2121    9.6050736   0.20348799 
   32900   -679.12622    39.146324    -639.9799    1187.6437   -3634.8105    9.5129781   0.22754643 
   33000   -678.29451     40.26983   -638.02468    1221.7293   -5420.1395    9.4786946   0.23360407 
   33100   -675.31593    42.767993   -632.54793      1297.52    2486.2428    9.4995952   0.25332198 
   33200   -680.99785    43.535044   -637.46281    1320.7912    1286.8433    9.5798653   0.20762203 
   33300   -679.93879    40.034156   -639.90463    1214.5792    1814.2072    9.5838319   0.20915998 
   33400   -674.29701     41.21646   -633.08055    1250.4487   -12789.657    9.3244877   0.26970913 
   33500   -671.05451    38.693963   -632.36055    1173.9197    2076.8586    9.4442721   0.29037667 
   33600   -680.82806    43.131905   -637.69616    1308.5606    6425.1477    9.6423638   0.21862695 
   33700   -680.32908      42.3724   -637.95668    1285.5183    8820.6653    9.6700245   0.22936299 
   33800   -677.63781    43.440574   -634.19723    1317.9251   -4408.8263    9.4714898   0.23081691 
   33900      -672.97    44.290055   -628.67994    1343.6972   -1380.6688    9.4149598   0.27774555 
   34000   -678.89282    41.978993   -636.91382    1273.5828    5766.8813    9.6063817   0.19739204 
   34100   -679.10626    40.189243   -638.91702    1219.2844    1357.0327    9.5564822   0.21292557 
   34200    -675.5764    40.033396   -635.54301    1214.5562   -4381.0887    9.4377243    0.2780949 
   34300   -671.43174     41.86322   -629.56852    1270.0704    5569.9459    9.4644699   0.29402886 
   34400    -679.7345    42.899363   -636.83514    1301.5055   -2518.1568     9.526572   0.22852042 
   34500   -680.62165    41.347573   -639.27407    1254.4265    1199.6956     9.583674   0.21583868 
   34600   -681.66551    46.171686   -635.49382    1400.7832   -4071.6995    9.5547726   0.23379949 
   34700   -674.94388    42.429215   -632.51466    1287.2419     6245.724     9.525635   0.25095511 
   34800   -678.41189    39.187349   -639.22455    1188.8883    -7481.528    9.4487529   0.25486269 
   34900   -677.98996    39.490025   -638.49994    1198.0711    -6487.408    9.4671688   0.25950293 
   35000    -674.2526    42.902118   -631.35048    1301.5891    6733.7081    9.5275147   0.26769509 
   35100   -676.22396    43.564785   -632.65918    1321.6935    9290.7124    9.5968522   0.21463569 
   35200   -681.22618     42.76892   -638.45726    1297.5481   -3944.3171    9.5388724   0.21671715 
   35300    -680.9172    43.122871   -637.79433    1308.2865   -7212.0084    9.4912492     0.220437 
   35400     -675.233    39.211356   -636.02164    1189.6167    2047.3655    9.5099003   0.26109088 
   35500   -673.64283    45.050785   -628.59205    1366.7766    5064.0039    9.5117726   0.25696575 
   35600   -678.01446    43.828097   -634.18636     1329.682     3255.385    9.5797291   0.23385694 
   35700   -678.81251    42.158008    -636.6545    1279.0139    8608.7326    9.6406545   0.20991499 
   35800   -680.04047    39.319512   -640.72096     1192.898    1082.6883    9.5685409   0.23100426 
   35900   -672.98458    38.157306   -634.82727    1157.6383   -11079.802    9.3285281   0.29384499 
   36000   -671.88968    39.841327   -632.04835    1208.7291   -3871.5227     9.377157   0.30049822 
   36100   -679.75092    42.809157   -636.94176    1298.7688    154.56923    9.5579961    0.2413751 
   36200   -679.41361    42.918604   -636.49501    1302.0893    9694.8173    9.6505982   0.20979273 
   36300   -673.87851    43.876631   -630.00188    1331.1545    986.69125    9.4699445   0.27224469 
   36400   -676.49307    40.731535   -635.76153    1235.7367   -1357.7259    9.4714303   0.30086469 
   36500   -678.94504    41.289765   -637.65528    1252.6726   -6025.5076    9.4766866   0.23522037 
   36600   -678.58452    40.685155   -637.89936    1234.3296   -4843.2337    9.4811403   0.24018853 
   36700   -670.29145     39.93609   -630.35536    1211.6041   -1181.6395    9.3684832   0.31404898 
   36800   -677.61722     41.17909   -636.43813    1249.3149    6880.6702    9.5834632   0.21162052 
   36900   -680.38245    41.288763   -639.09369    1252.6422    4914.6142    9.6234681   0.20285618 
   37000   -679.38904    43.071949   -636.31709    1306.7416   -1360.1188    9.5338232   0.26399269 
   37100   -674.10506    39.648148   -634.45691    1202.8683   -1965.8334    9.4640205   0.28634381 
   37200   -679.36304    38.225403   -641.13764    1159.7042   -3264.2034    9.5304364   0.22629995 
   37300   -679.81799    40.380323   -639.43766    1225.0815   -837.10157    9.5608593   0.19419415 
   37400   -675.38493    42.586059   -632.79887    1292.0004    5759.7747    9.5586177   0.23760777 
   37500   -679.90862    41.131232   -638.77739     1247.863    2926.2478    9.5927167   0.22327386 
   37600   -682.32423     42.05903    -640.2652     1276.011   -1672.6114    9.5766337   0.22298848 
   37700   -675.04867    40.952314   -634.09636    1242.4349     2067.091    9.5103578   0.25760174 
   37800   -678.19433     43.78011   -634.41422    1328.2262   -3352.0564     9.493529   0.25852433 
   37900   -681.11912    39.867209   -641.25191    1209.5143    5430.3208    9.6363101   0.21108826 
   38000   -677.58985    40.908179   -636.68167    1241.0959   -6152.3875    9.4554534   0.22757617 
   38100   -674.97749    40.662447   -634.31504    1233.6407    -6681.027     9.403954   0.29392197 
   38200   -682.22207     41.40454   -640.81753    1256.1547    1507.5009    9.6198153   0.21122015 
   38300    -679.1375    40.377701    -638.7598    1225.0019    13353.236    9.7089874   0.19301169 
   38400   -676.40413    43.366212   -633.03792    1315.6691    2102.5646    9.5230936   0.25133902 
   38500   -676.95987    41.015629   -635.94424    1244.3557   -18308.053    9.3077421   0.27857719 
   38600    -677.8842    38.473532   -639.41067    1167.2322   -9206.5761    9.4171184    0.2765688 
   38700   -675.23943    39.061247   -636.17818    1185.0626    878.63775    9.5039275   0.25816773 
   38800   -675.50326     42.24334   -633.25992    1281.6027     4536.707    9.5307557    0.2535876 
   38900   -677.11533    40.395226   -636.72011    1225.5336    1267.6504    9.5238468   0.21971711 
   39000   -678.30326    37.761413   -640.54184    1145.6275   -4020.0112    9.5032344   0.22725333 
   39100   -677.61478        39.51   -638.10478    1198.6771    1284.5457    9.5412157   0.22795659 
   39200   -676.26091    40.651744   -635.60917     1233.316    8196.1296    9.5957565   0.25125617 
   39300   -671.44491    42.610406    -628.8345     1292.739    1584.5152    9.4474246   0.26823318 
   39400   -678.52355    42.687845    -635.8357    1295.0884    3042.4205    9.5703771   0.21197658 
   39500    -679.5556    41.946951   -637.60865    1272.6107   -5168.7997    9.4908927   0.21563175 
   39600   -680.09671      41.6722   -638.42451    1264.2752    -8389.615    9.4794354   0.24801303 
   39700   -679.41171    42.136988   -637.27472    1278.3762    4530.3415    9.6009585   0.20217319 
   39800   -676.27626    45.547989   -630.72827    1381.8611    5875.0474    9.5441456   0.22853111 
   39900   -679.71455    41.300956   -638.41359    1253.0122   -414.80251    9.5620343   0.22212908 
   40000   -680.33748    40.005037   -640.33245    1213.6958   -13131.578    9.4271529   0.27060842 
   40100   -676.06094     41.62237   -634.43857    1262.7634   -3709.7916    9.4582577   0.25403307 
   40200   -677.24259    40.189941   -637.05265    1219.3056    4761.6466    9.5660753   0.24766707 
   40300   -681.82664    38.673693   -643.15294    1173.3047   -945.69002     9.603862   0.21183557 
   40400   -679.65828    41.515114   -638.14316    1259.5094    3149.3995    9.5832649   0.22173843 
   40500   -676.68055    41.453651    -635.2269    1257.6447    2285.1211    9.5337832   0.23526544 
   40600   -679.52595    37.528972   -641.99697    1138.5755    -2287.388    9.5421164   0.20542198 
   40700   -679.74488    40.294091   -639.45079    1222.4653    283.19466    9.5561509   0.21300547 
   40800   -679.21763    44.980113   -634.23752    1364.6325    2726.5769    9.5559342   0.22000087 
   40900   -680.06144    40.694365   -639.36707    1234.6091    5770.8278    9.6375711   0.22040562 
   41000   -683.93486    43.274575   -640.66028     1312.889   -4350.0278      9.57847    0.1846931 
   41100   -675.45962    41.775991   -633.68363     1267.424    1717.1819    9.4980257   0.23973686 
   41200   -679.15924    43.458999   -635.70024    1318.4841    457.80483    9.5565793   0.23205277 
   41300   -680.06253    40.222796   -639.83974    1220.3023    9648.0028    9.6796003   0.20076333 
   41400   -679.01377     42.64241   -636.37136      1293.71   -8181.7261    9.4476155   0.23075682 
   41500   -673.16745    40.169869   -632.99758    1218.6966   -7074.6181    9.3748599   0.30265435 
   41600   -680.91064    41.861428   -639.04922    1270.0161   -4954.0517    9.5211415   0.21384983 
   41700   -680.95117    41.168658   -639.78251    1248.9984    309.31632    9.5880089   0.21923907 
   41800   -672.27977    39.899459   -632.38031    1210.4927   -2387.1319    9.4060606   0.28078079 
   41900   -677.28309    42.537197   -634.74589     1290.518   -8279.9372    9.4280125   0.23550965 
   42000   -680.91887     40.55446   -640.36441    1230.3645    3640.1072    9.6159057    0.2028575 
   42100   -677.05548    40.201026   -636.85445    1219.6418    10107.914    9.6340461   0.20290937 
   42200     -673.504    40.627218   -632.87678    1232.5719    7204.1609    9.5436912   0.28178488 
   42300   -675.01573    46.589529    -628.4262    1413.4599   -6012.0619    9.4027876   0.34821563 
   42400    -680.5453    43.125118   -637.42018    1308.3546   -2907.4211     9.543671   0.24247886 
   42500   -678.07862    40.056519    -638.0221    1215.2577   -4452.1322     9.485963   0.23388841 
   42600   -675.85066    38.862568   -636.98809    1179.0349    5133.3476    9.5572903   0.24317663 
   42700   -682.01644     37.47023   -644.54621    1136.7934    8436.4048    9.7214246   0.21651974 
   42800   -679.94849    37.638615   -642.30987    1141.9019   -4887.2702    9.5365595   0.23772623 
   42900   -676.99813    39.134022   -637.86411    1187.2705    1410.8592    9.5442544   0.26214079 
   43000   -681.11666    45.857407   -635.25925    1391.2484   -4245.9799    9.5146396   0.22329024 
   43100   -677.85917    39.551145   -638.30803    1199.9254    6853.2058    9.6035954   0.22038113 
   43200   -680.20066    37.149931   -643.05073     1127.076    1119.3741    9.5940414   0.23617377 
   43300   -684.60857    39.953359   -644.65521     1212.128   -6208.0698    9.5845437   0.22761816 
   43400   -679.63048    41.917699   -637.71278    1271.7233    1950.8929     9.568554   0.22278781 
   43500   -679.78568    41.911561   -637.87412     1271.537   -1180.4317    9.5510006   0.22598488 
   43600   -681.59046    44.431301   -637.15915    1347.9824     872.6293    9.6013763   0.20852379 
   43700   -678.62415    48.430916   -630.19323     1469.325   -698.24767    9.5206705   0.24492076 
   43800   -675.61681    43.117944   -632.49887     1308.137    1925.5491    9.5027888   0.23398557 
   43900   -675.74039    39.253789    -636.4866     1190.904   -9159.4247    9.3916327   0.26451589 
   44000   -677.47089    39.963144   -637.50775    1212.4249   -5631.4082    9.4708473   0.25640757 
   44100   -679.50237    41.609307   -637.89306    1262.3671    7907.2053    9.6453072    0.2392324 
   44200   -684.91774    39.823594   -645.09415    1208.1911   -1742.4509     9.641634   0.19865856 
   44300   -675.73907    36.549807   -639.18926    1108.8691    1998.8493    9.5292786   0.25400109 
   44400   -677.07979    40.073788   -637.00601    1215.7816   -1163.7253    9.5093406    0.2620446 
   44500   -679.26055    41.522339   -637.73821    1259.7286    28.831393    9.5569189   0.22830988 
   44600    -684.2024     38.66382   -645.53858    1173.0052     530.0955    9.6582752   0.20952512 
   44700   -680.33092    38.830826   -641.50009    1178.0719   -8.9029496    9.5809699   0.23894831 
   44800   -678.28071    42.065918   -636.21479      1276.22   -1243.1138    9.5155656   0.23430845 
   44900   -679.52327    41.661373    -637.8619    1263.9467   -3644.3296    9.5122138   0.22388487 
   45000   -679.79728      38.8358   -640.96148    1178.2228    13796.972    9.7180604   0.19418481 
   45100    -674.9323    42.014312   -632.91798    1274.6544   -4698.6815    9.4274626   0.26660186 
   45200   -671.96038    37.794722   -634.16566     1146.638   -7429.0585    9.3557942   0.33796339 
   45300   -677.37648    38.089197   -639.28728     1155.572    1255.4908    9.5389342   0.26931808 
   45400   -679.04745    39.722551    -639.3249    1205.1256    420.78472    9.5576039    0.2131338 
   45500   -673.04968    41.970729   -631.07895    1273.3321    2845.6744    9.4661864   0.29061408 
   45600   -674.85464    42.067607   -632.78703    1276.2713    1775.3487    9.4989519   0.25048641 
   45700   -676.81595    38.364216   -638.45174    1163.9156    4844.2789    9.5653577    0.2535224 
   45800   -678.94319    42.359657   -636.58353    1285.1317   -3803.6216    9.5100536   0.24826734 
   45900   -677.48325    45.824519   -631.65873    1390.2506     10724.08    9.6274898   0.22538586 
   46000   -671.28948    43.634867   -627.65461    1323.8197     5887.365     9.471805   0.25685404 
   46100   -675.92655    39.707821   -636.21873    1204.6787   -12464.281    9.3674511   0.26504711 
   46200   -673.84365    37.086598   -636.75705    1125.1545   -6551.9526    9.3846259   0.29164074 
   46300   -676.64713    38.764159   -637.88297    1176.0493   -2583.2239    9.4844082    0.2686615 
   46400   -682.20638    40.153667   -642.05271     1218.205    11718.408    9.7393003   0.18407316 
   46500   -683.43749    39.435232   -644.00226    1196.4087    4959.6922    9.6738832   0.20167676 
   46600    -677.1786    38.658417   -638.52019    1172.8413    211.49098    9.5039976    0.2377684 
   46700   -677.08479    41.295116   -635.78968     1252.835    -2077.618    9.4968515   0.22128569 
   46800   -678.54641    37.630949   -640.91546    1141.6694    8398.4558    9.6487047   0.23018034 
   46900   -680.61913    40.961181   -639.65795    1242.7039    4972.8263    9.6356327    0.2020701 
   47000   -675.62018    42.130659   -633.48953    1278.1842    -6017.073    9.3953703   0.27353028 
   47100   -677.83456    40.749273   -637.08528    1236.2749   -8196.2404    9.4280045   0.24590035 
   47200   -680.83894    41.199484   -639.63946    1249.9337    590.23952    9.5831846   0.21925944 
   47300   -676.72336    43.677184   -633.04617    1325.1035     6762.595    9.5916198   0.22124624 
   47400    -677.6497    43.843145   -633.80655    1330.1385   -2714.4074    9.4818215   0.24603266 
   47500   -678.45728    37.056525   -641.40075    1124.2422    -1775.092    9.5242943   0.23007898 
   47600   -679.72752     42.07297   -637.65455    1276.4339   -6265.6736    9.4767917   0.23969713 
   47700   -676.30616      43.6474   -632.65876    1324.1999   -4089.7037    9.4560698   0.26793334 
   47800   -679.88244    42.004673   -637.87777    1274.3619     239.0289    9.5652833   0.24963699 
   47900   -680.89075    40.165174   -640.72558    1218.5541   -939.00752    9.5621595   0.23371164 
   48000   -681.77439    45.164959   -636.60943    1370.2405   -6978.3489    9.5161267   0.22305435 
   48100   -678.99709    42.187803   -636.80929    1279.9178    12889.863    9.6820584   0.21578859 
   48200   -683.66841    39.429838   -644.23857    1196.2451   -1061.1577    9.6189988   0.19518162 
   48300   -676.35582    38.850875   -637.50494    1178.6802   -7471.3128    9.4303565   0.24544109 
   48400   -678.98379    42.023742   -636.96005    1274.9405     -757.166    9.5289621   0.22237145 
   48500   -676.12388    38.047073   -638.07681     1154.294    11365.656    9.6292507    0.2103632 
   48600   -684.39456    39.157554     -645.237    1187.9844   -2025.8998    9.6270311   0.17346375 
   48700   -680.33503    38.644012   -641.69102    1172.4043    7024.5062    9.6676533   0.21353298 
   48800   -678.39241    40.374741   -638.01767    1224.9121    2892.9849    9.5778093   0.23364205 
   48900   -676.37626    38.824726   -637.55153    1177.8869    6323.0467    9.5724768   0.24088922 
   49000   -678.03136    42.375484   -635.65587    1285.6118    1264.6629    9.5428263   0.20681689 
   49100   -678.34545    47.997946   -630.34751    1456.1893    3448.0854    9.5532676   0.23726598 
   49200   -681.86153    43.462138   -638.39939    1318.5793    283.40263    9.5933357   0.20569265 
   49300   -676.59489    38.397374   -638.19751    1164.9216   -9728.3124     9.395105   0.25455299 
   49400    -672.9768    38.983514   -633.99329    1182.7043   -8050.9002     9.361994   0.31246431 
   49500   -680.77299    43.105576   -637.66741    1307.7618    1143.4562    9.5937399   0.25861121 
   49600   -681.80834    41.704646   -640.10369    1265.2595    2456.2138    9.6252063    0.2001148 
   49700   -679.18196    42.477381   -636.70458    1288.7032   -9049.0533     9.461188   0.24719131 
   49800   -672.69468    40.077614   -632.61707    1215.8977    163.29076    9.4249433   0.26945409 
   49900   -679.24239    39.823488   -639.41891    1208.1879   -1889.9267    9.5271417   0.24193962 
   50000   -683.50464    43.332565   -640.17207    1314.6483    2429.9266    9.6451826   0.19539184 
   50100   -674.88718     39.63229   -635.25489    1202.3872    6778.0352    9.5493779   0.23854738 
   50200   -677.39788    41.828873   -635.56901    1269.0284   -3567.2988    9.4832884   0.23710826 
   50300   -681.88066    40.766869   -641.11379    1236.8087    1680.4489    9.6232181   0.19055373 
   50400   -679.40387    42.306622   -637.09725    1283.5226   -709.13449    9.5521488   0.20969695 
   50500   -677.26641    46.029211    -631.2372    1396.4607    6782.2459    9.5791705   0.23365635 
   50600   -681.47913    42.525112   -638.95402    1290.1513    3641.3298    9.6327444   0.21812677 
   50700   -674.54615    35.078207   -639.46795    1064.2228    2037.5125    9.4988589   0.25874215 
   50800   -676.42981    40.627993   -635.80182    1232.5954   -3708.6757    9.4590979    0.2484194 
   50900   -677.35789    39.983911   -637.37398    1213.0549    5021.6182    9.5712666   0.20442255 
   51000   -683.03978    39.807734   -643.23205    1207.7099    1551.5806    9.6269373   0.18443768 
   51100   -681.22309    42.555545   -638.66754    1291.0746   -4954.3471    9.5359545   0.21760494 
   51200   -677.68426    40.856458   -636.82781    1239.5267    2499.3744    9.5422487   0.26330471 
   51300   -674.27958    42.081443   -632.19813     1276.691    3698.2268    9.5097074   0.27605306 
   51400   -679.91927    40.817385   -639.10189    1238.3413   -3456.5557    9.5239241   0.21488054 
   51500   -677.43119    38.247063   -639.18413    1160.3614   -3949.9565    9.4708942   0.22944629 
   51600   -677.44882    40.157626    -637.2912    1218.3252   -13032.992     9.378844   0.22331656 
   51700   -679.10078    40.463225   -638.63756    1227.5966   -5571.1674    9.4895222   0.22660422 
   51800   -683.77483    40.442415   -643.33242    1226.9653    16914.499    9.8273694   0.19429455 
   51900   -678.64662    41.833036   -636.81359    1269.1547    5830.3303    9.5972499    0.2355114 
   52000   -676.05997    40.827555   -635.23241    1238.6499   -4320.9287    9.4529519   0.27846586 
   52100   -678.62589    41.188769   -637.43712    1249.6086   -8876.7979    9.4461958   0.27294813 
   52200   -682.39047    38.902196   -643.48828    1180.2372    9677.1002    9.7219839   0.17111009 
   52300   -681.10473    41.246934    -639.8578    1251.3732     5431.738    9.6396619   0.18248325 
   52400    -679.5558     42.64849   -636.90731    1293.8944   -7428.2877    9.4796789    0.2462362 
   52500   -677.67236    44.187722   -633.48464    1340.5925    2618.5523    9.5476553    0.2464559 
   52600   -676.83491    40.746736   -636.08817    1236.1979    5109.6331    9.5723489   0.24560597 
   52700   -681.59765    40.715479   -640.88217    1235.2496    -3527.671    9.5661905   0.18314356 
   52800   -676.26156    39.259813   -637.00175    1191.0868   -5949.2734    9.4395473   0.22584561 
   52900   -673.32779     39.74494   -633.58285    1205.8049    9447.7978    9.5543477   0.23429904 
   53000   -681.04174      40.5522   -640.48954     1230.296    6450.7353    9.6588951   0.19176242 
   53100   -680.38381    42.414332   -637.96947    1286.7904    188.23097    9.5591287    0.2249565 
   53200   -676.13748     42.70395   -633.43353     1295.577   -6982.1635    9.3979888   0.27539051 
   53300   -677.49463    37.428636   -640.06599    1135.5315   -5936.3685    9.4674733   0.24991911 
   53400    -677.4563    38.491179   -638.96512    1167.7675    8637.3782    9.6297871    0.2494611 
   53500    -677.1799    41.888511   -635.29139    1270.8378     10461.44    9.6357095   0.22365776 
   53600   -680.27669    40.383181   -639.89351    1225.1682   -3391.8096    9.5355544   0.20584694 
   53700   -681.89879    38.405924   -643.49286     1165.181    -660.3311    9.5934451   0.21858691 
   53800   -677.68635    40.406455    -637.2799    1225.8743    -1802.169     9.502368   0.23521506 
   53900   -678.81898    41.326992   -637.49199    1253.8021    6563.5773    9.6033984   0.21280934 
   54000    -682.6115    39.863877   -642.74763    1209.4132   -758.01317    9.6029921   0.22625288 
   54100   -672.67931    35.036859   -637.64245    1062.9684    6990.0094    9.5322088   0.26447684 
   54200   -674.48386    39.703371   -634.78048    1204.5437     -6334.31    9.3997276   0.25667988 
   54300   -679.12708    39.665948   -639.46113    1203.4084    671.97676    9.5502533   0.22268232 
   54400   -678.24102    38.022806   -640.21821    1153.5578   -8765.3975    9.4441153   0.28607333 
   54500   -675.47216    41.070154   -634.40201      1246.01   -9867.3467    9.3863759     0.268379 
   54600   -675.99988    38.945228   -637.05465    1181.5427    9485.5268    9.5933348   0.23277643 
   54700   -683.27486    39.999887   -643.27497    1213.5396   -688.80565    9.6138868   0.20873556 
   54800   -678.89301    38.915988   -639.97702    1180.6556    -3612.428    9.5104729   0.24166626 
   54900   -677.71944    42.337012   -635.38243    1284.4446   -1580.9035     9.501182   0.25399392 
   55000     -679.867    41.939887   -637.92711    1272.3964   -1885.0401    9.5399815    0.2597709 
   55100   -679.91987    41.096237   -638.82363    1246.8013    13309.217    9.7134061   0.20131756 
   55200   -685.52277    38.459564    -647.0632    1166.8084   -639.04702    9.6568157   0.18615929 
   55300   -681.68696    40.989845   -640.69712    1243.5735   -8416.8123    9.4969146   0.21183206 
   55400   -679.50173    41.021108   -638.48062     1244.522   -3359.0246     9.525582   0.21403259 
   55500   -677.39561     42.12357   -635.27204    1277.9691    2074.2355    9.5267138   0.22843913 
   55600   -673.02574    43.916543   -629.10919    1332.3653     2236.241    9.4630497   0.28578409 
   55700   -674.20574    37.021069   -637.18467    1123.1665    12412.773    9.6181504   0.25088832 
   55800   -682.24125    43.682657    -638.5586    1325.2696   -7075.8959    9.5187027    0.2085668 
   55900   -679.05106    42.074286   -636.97677    1276.4739     4701.766    9.5781713   0.19715074 
   56000   -671.71164    42.999539    -628.7121    1304.5448    -5354.738    9.3643383   0.28405393 
   56100    -676.4248    41.629785   -634.79501    1262.9884    1230.4513    9.5172227   0.25900809 
   56200   -678.03285    40.338326   -637.69453    1223.8073     7864.912    9.6201374    0.2121145 
   56300   -677.35141     38.72335   -638.62806    1174.8113    2582.0992    9.5573717   0.22299061 
   56400    -672.6772    41.986145   -630.69106    1273.7998    1708.3362     9.446919   0.28305742 
   56500   -674.73571    40.033691   -634.70201    1214.5652   -11571.981    9.3453334   0.28956766 
   56600   -679.39529    40.108157   -639.28713    1216.8243    -1352.638    9.5369029   0.24200017 
   56700   -676.35484    40.896602   -635.45823    1240.7446    4185.4424    9.5539119    0.2492889 
   56800   -676.63654    45.302125   -631.33442    1374.4019    2032.0021    9.5127388   0.24078417 
   56900   -680.46954    41.063582   -639.40596    1245.8106    2333.9623    9.6071567   0.20185402 
   57000   -679.52051    40.626178   -638.89434    1232.5404   -6383.3285    9.4964854    0.2193237 
   57100   -675.80431    43.597672   -632.20664    1322.6912   -5772.7072     9.424331   0.24940594 
   57200   -679.25071    43.286116    -635.9646    1313.2391    15528.159    9.7166575   0.22237615 
   57300    -683.6644    44.214313   -639.45009    1341.3993    705.89028    9.6189229   0.19686543 
   57400   -678.59574    42.507203   -636.08854     1289.608   -1969.2851    9.5214505   0.23367868 
   57500   -676.80273    44.823525   -631.97921    1359.8819     -8404.25    9.4204204   0.26254427 
   57600   -681.70852    43.171684   -638.53684    1309.7674   -602.29646    9.5876949   0.25373586 
   57700   -679.84365    40.816084   -639.02757    1238.3018     8483.674    9.6558488   0.23798613 
   57800   -679.75449    43.289687    -636.4648    1313.3474   -4486.8768    9.5103299   0.22805836 
   57900   -678.02057    39.378049   -638.64252    1194.6739   -1621.1828    9.5028363    0.2437415 
   58000   -682.87606    39.127756    -643.7483    1187.0804   -327.79721    9.6172552   0.18878446 
   58100   -678.24407    42.146481   -636.09759    1278.6642    5753.3399    9.5962064   0.20660167 
   58200   -677.11054    40.313767   -636.79678    1223.0623    6675.7457    9.5944587   0.23555047 
   58300   -678.72794    37.236638    -641.4913    1129.7065   -5258.8604    9.5102802    0.2418284 
   58400   -680.51476    40.706656    -639.8081    1234.9819    1850.5141    9.5987936   0.23999131 
   58500   -677.93209    44.413482    -633.5186    1347.4418   -545.65022    9.5404722   0.23768554 
   58600   -680.66696    43.094372   -637.57259    1307.4218    1368.8744    9.5881361   0.22372681 
   58700   -678.58331     41.74394   -636.83937    1266.4517    6097.7901    9.5976078    0.2417315 
   58800   -673.75026    42.380039   -631.37022      1285.75    4683.3798    9.4999447   0.22961346 
   58900   -676.57648    38.206741   -638.36973    1159.1381   -1525.3804    9.4995723   0.25241246 
   59000   -681.45779    42.385371   -639.07242    1285.9118   -5608.6663    9.5342638   0.22403475 
   59100   -675.13303    42.844681   -632.28834    1299.8466    2803.3282    9.5005038   0.25059645 
   59200   -675.13481    42.518598   -632.61621    1289.9537   -9144.9976    9.3724838    0.2918535 
   59300   -677.56842    38.581774   -638.98665     1170.516   -8655.2102    9.4424203   0.25670381 
   59400   -677.99361    39.928714    -638.0649    1211.3803    10322.186    9.6412064   0.21364247 
   59500   -672.80811     41.79722   -631.01089    1268.0681    8347.5544    9.5342444   0.27996468 
   59600    -677.4677    41.288907   -636.17879    1252.6466    -5345.105    9.4716811   0.25918619 
   59700   -677.25659    38.104169   -639.15242    1156.0262    3768.3539    9.5655107   0.23125373 
   59800   -677.65383     40.78406   -636.86977    1237.3303   -1880.1361    9.5009374   0.25529021 
   59900   -672.37786    39.624943   -632.75292    1202.1643    184.50616    9.4393328   0.28525587 
   60000   -677.40631    37.870977   -639.53533    1148.9515   -3695.3816    9.4841951   0.24762185 
   60100   -678.12788    39.141883   -638.98599     1187.509    7143.1495    9.6220271   0.20262351 
   60200   -679.98938    45.776378     -634.213    1388.7901    16201.454    9.7305984   0.20789432 
   60300   -677.09798    44.489816   -632.60816    1349.7576   -2456.3264    9.4712711   0.23817519 
   60400   -679.57465      38.8579   -640.71675    1178.8933   -10266.913    9.4465617    0.2379024 
   60500   -677.00454    38.122469   -638.88207    1156.5814   -4187.7619    9.4664129   0.24875164 
   60600   -672.87508    40.240639   -632.63444    1220.8437    764.53273    9.4285465    0.3096121 
   60700   -678.12816     41.10547   -637.02269    1247.0814    -4458.102    9.4773576   0.24184336 
   60800   -681.71493     41.23234   -640.48259    1250.9305    1323.2377    9.6087267   0.19362506 
   60900    -679.5946    42.528256   -637.06635    1290.2467    1354.5396    9.5616625   0.21698817 
   61000   -674.88722    41.695808   -633.19141    1264.9914   -3177.9324    9.4422265   0.22903377 
   61100   -683.38798    43.460781    -639.9272    1318.5382     365.2077    9.6208839   0.19116724 
   61200   -679.68008    41.712723   -637.96736    1265.5046    15586.442       9.7267    0.1973466 
   61300   -673.95968    39.176376    -634.7833    1188.5554    7619.2404    9.5393315   0.27088004 
   61400   -675.00886    36.840094   -638.16877     1117.676   -5085.5357    9.4262687   0.29670371 
   61500   -679.81762    38.393197   -641.42442    1164.7949   -2696.1483    9.5424612   0.21807123 
   61600   -676.22987    42.323125   -633.90674    1284.0233    4945.9885    9.5437444   0.24078383 
   61700   -678.83218     43.83362   -634.99856    1329.8496   -1589.1532    9.5281208   0.21341755 
   61800   -680.95522    39.548168   -641.40705    1199.8351   -9960.3057    9.4787269   0.24728764 
   61900   -677.54686    40.556764    -636.9901    1230.4344   -659.30478    9.5187482   0.23116296 
   62000   -677.86197    42.329217   -635.53275    1284.2081    899.10748    9.5284944   0.26731414 
   62100   -670.29595    42.193202   -628.10275    1280.0816    14091.036    9.5346711   0.26610977 
   62200   -678.24405    41.944466   -636.29958    1272.5353    2980.5079    9.5664794   0.24222815 
   62300   -676.77597    39.226746   -637.54922    1190.0836    2014.2934    9.5334136   0.23729507 
   62400   -675.59492    39.718113    -635.8768     1204.991    1624.8316    9.5076726   0.27298644 
   62500   -674.89591    40.656866   -634.23905    1233.4714   -7691.8688    9.4097992   0.26347417 
   62600   -678.54566    38.082441   -640.46322     1155.367    2119.0977    9.5590528   0.23977268 
   62700   -679.44652    42.290592   -637.15593    1283.0363    8689.8156     9.650731   0.21628308 
   62800   -676.70753    45.734166   -630.97337    1387.5094    4098.0316    9.5449982   0.23691122 
   62900   -676.56249    38.505114   -638.05737    1168.1903   -1947.1893    9.4975995   0.23030157 
   63000   -678.05371    38.941644   -639.11206     1181.434   -7410.5865    9.4614794   0.24277328 
   63100   -673.80772    40.539957   -633.26776    1229.9245    7275.3987    9.5396211   0.25277461 
   63200   -677.74892    42.871574   -634.87734    1300.6625    2563.7872    9.5447065   0.22987208 
   63300   -679.64435     38.06241   -641.58194    1154.7593    688.17784    9.5695311   0.22767957 
   63400   -677.78203    41.078166   -636.70386     1246.253   -5111.1829    9.4590535   0.25015055 
   63500   -676.99401    43.030209    -633.9638    1305.4752    1530.3496    9.5284605   0.23095261 
   63600   -680.92851    41.780512     -639.148    1267.5612   -3449.6308    9.5390158   0.21983869 
   63700   -680.65617    38.962882   -641.69328    1182.0783   -1099.2664    9.5600456   0.25758215 
   63800   -674.58938    41.219732   -633.36965    1250.5479   -2304.5878    9.4420325   0.25744276 
   63900   -679.00435    43.677516   -635.32683    1325.1136   -1202.9161    9.5356426   0.24217851 
   64000   -680.47569    42.658625   -637.81706    1294.2019    7994.9946    9.6607924   0.21636253 
   64100   -676.18388    40.807546   -635.37633    1238.0428    1108.0237    9.5205284   0.29322408 
   64200   -671.58299    40.951195    -630.6318    1242.4009    95.038359    9.4033482    0.3083301 
   64300   -678.20432    42.869433   -635.33488    1300.5975   -3226.8011    9.4958902   0.25731922 
   64400   -679.95429    41.121487    -638.8328    1247.5673   -1594.6414    9.5528634   0.23171158 
   64500   -676.49787    43.153492   -633.34438    1309.2155    6379.7852    9.5789557   0.23326616 
   64600   -675.49483    41.712647   -633.78218    1265.5023   -840.76032    9.4754613   0.26617526 
   64700   -680.21804    39.366266   -640.85178    1194.3164   -3371.4781    9.5303507   0.22928362 
   64800   -678.74712    40.135281   -638.61184    1217.6472   -4097.7779      9.48815   0.23000625 
   64900   -675.18821    39.882922   -635.30529     1209.991    2197.4281    9.5067533   0.26033767 
   65000   -677.73517    37.183356   -640.55182      1128.09    21857.807     9.767336   0.21756971 
   65100   -678.85953    39.875416   -638.98412    1209.7633    15.539248    9.5578738   0.27183446 
   65200   -675.55089    41.860594   -633.69029    1269.9908    -3948.142    9.4414623   0.28219121 
   65300   -676.95277    38.067455   -638.88532    1154.9123    1083.0825    9.5269301   0.24510713 
   65400    -678.2393     39.01787   -639.22143    1183.7466     1528.863    9.5590772   0.24374434 
   65500   -672.94339    39.855226   -633.08817    1209.1508   -7267.0017    9.3651906   0.31177577 
   65600    -676.2897    39.146444   -637.14326    1187.6473   -10913.293    9.3884713   0.27809013 
   65700   -680.74253    40.950849   -639.79168    1242.3904    3806.9456    9.6251303   0.19910423 
   65800   -677.25542    42.654241   -634.60118    1294.0689    1995.4756    9.5503518   0.23073015 
   65900   -673.97529    42.609493   -631.36579    1292.7113    321.67331    9.4589989   0.26574772 
   66000   -682.86815    43.340186   -639.52797    1314.8795   -4493.6971    9.5582179   0.21714668 
   66100   -678.03042    39.151756   -638.87866    1187.8085    5547.2554    9.6002437   0.23076391 
   66200   -676.93188    44.783041   -632.14884    1358.6536   -6961.9029    9.4265298   0.27287121 
   66300   -677.39393     41.18238   -636.21155    1249.4147    220.25124    9.5276317   0.25930732 
   66400   -679.52219    41.354509   -638.16768    1254.6369    3666.1968    9.5877877   0.19934649 
   66500   -679.19968    40.923045   -638.27664    1241.5469    5066.1787    9.5960083   0.20254933 
   66600   -669.83373     38.89172   -630.94201    1179.9194   -6117.3853    9.3361234   0.33111098 
   66700   -674.45119    38.014727   -636.43646    1153.3126   -927.62096    9.4683082   0.26042167 
   66800   -679.03307    39.644784   -639.38828    1202.7663    3881.4451    9.6025585   0.21220371 
   66900   -680.17581    39.543379   -640.63243    1199.6898    10141.998    9.6771344   0.18147153 
   67000   -674.01788    41.518545   -632.49934    1259.6135    12901.917    9.5950996   0.23130249 
   67100   -676.07206    39.672759    -636.3993     1203.615    508.85205    9.5152775   0.23245611 
   67200   -681.01727    41.192467    -639.8248    1249.7208   -11513.774     9.458054   0.22703395 
   67300    -675.9999    39.650706   -636.34919    1202.9459     832.2372    9.5013125   0.24420698 
   67400   -673.56144    39.652077   -633.90936    1202.9875    441.10979     9.479978   0.24147668 
   67500   -679.93161    39.841956   -640.08966    1208.7482    2682.2959    9.5939167   0.20967572 
   67600   -678.91486    41.615804   -637.29905    1262.5642   -3623.0093    9.4998601   0.23449509 
   67700   -676.40904    40.515887   -635.89315    1229.1943    5143.9664    9.5577446   0.24907207 
   67800   -680.46323    38.409094   -642.05413    1165.2772    7622.7988    9.6527248   0.21077337 
   67900   -680.18638    41.502405   -638.68397    1259.1238   -7584.6786    9.4893158   0.25394964 
   68000   -672.85362    38.760749   -634.09287    1175.9459   -126.28161    9.4441581   0.28894371 
   68100   -676.55625    39.081085   -637.47517    1185.6644   -4008.3875    9.4518045   0.25778842 
   68200   -681.52284     39.13689   -642.38594    1187.3575     7621.505    9.6790956   0.20668449 
   68300    -677.0809    40.866247   -636.21466    1239.8237    4747.4451    9.5663596   0.25404771 
   68400   -675.51231    40.025241   -635.48707    1214.3088   -2220.8536    9.4551646   0.28464758 
   68500   -675.79236    39.098099   -636.69426    1186.1806   -5908.8269    9.4269028   0.25883107 
   68600   -679.00616    36.769857    -642.2363    1115.5451   -2583.9754    9.5318636   0.25644586 
   68700   -674.59693    38.807306   -635.78963    1177.3584    7921.4322    9.5548352   0.25249998 
   68800    -676.3365    42.021394    -634.3151    1274.8692   -4493.1523    9.4453491   0.27135684 
   68900   -679.58401    37.906242   -641.67777    1150.0214    2759.6553    9.6004057   0.20958634 
   69000    -680.7745    42.203791   -638.57071    1280.4029    2307.2061    9.5936625   0.21161722 
   69100    -679.6104    44.600381   -635.01001     1353.112   -1884.0698    9.5323722   0.21297121 
   69200   -680.80666    39.634485   -641.17217    1202.4538    5193.9467    9.6420374   0.19648248 
   69300   -681.53106    40.604398   -640.92666    1231.8796   -12998.184    9.4520341   0.23619706 
   69400   -673.96367    38.848503   -635.11517    1178.6082   -8489.9665    9.3691068   0.27797292 
   69500   -679.40378    41.809949   -637.59383    1268.4543    3027.6085    9.5770989   0.25101376 
   69600   -678.86745    41.599635   -637.26781    1262.0736     12525.23     9.690109   0.23272184 
   69700   -675.14536     45.63676    -629.5086    1384.5543   -2294.8926    9.4512912    0.2541552 
   69800   -678.60957     42.55002   -636.05955     1290.907   -4423.0213    9.4772301   0.26406921 
   69900   -680.79359    43.180396    -637.6132    1310.0317   -4998.7552    9.5190435   0.24379685 
   70000    -676.9789    43.577279   -633.40162    1322.0726   -610.40998    9.4988329   0.24795859 
   70100   -672.23854    43.008665   -629.22988    1304.8216    5982.1045    9.4891648   0.27725381 
   70200    -676.9002    39.435983   -637.46421    1196.4315    -8743.214    9.4175883   0.27337139 
   70300   -678.47673    40.296241   -638.18049    1222.5305   -7649.4891    9.4599142   0.26908724 
   70400    -677.8899    39.976572   -637.91332    1212.8322    1434.2917    9.5370113   0.26217125 
   70500   -677.70924    39.156119   -638.55312    1187.9409   -375.45618    9.5233088   0.25407724 
   70600   -685.73703    38.873499   -646.86353    1179.3666   -7129.2578    9.5931995   0.18743918 
   70700   -682.22143    39.360698   -642.86073    1194.1475   -389.68937    9.6057855   0.20139965 
   70800   -682.28727    43.168584   -639.11869    1309.6733    780.85385    9.6090136    0.1992526 
   70900   -679.66565    43.978243   -635.68741    1334.2372    7336.6134     9.636421   0.20086863 
   71000   -676.75828    41.480234   -635.27805    1258.4512    11006.467    9.6287265   0.22015671 
   71100    -680.8478    37.397084   -643.45072    1134.5742   -1536.5233    9.5658251   0.21141355 
   71200   -680.81982    40.191287   -640.62853    1219.3464   -7011.0888    9.5098186   0.22735227 
   71300   -677.32542    41.897273   -635.42815    1271.1036   -469.83342    9.5064084   0.27071737 
   71400   -678.22789    46.595088    -631.6328    1413.6286    8090.7679    9.6075452   0.23014103 
   71500   -683.28144    44.146675   -639.13476    1339.3472   -4931.5816    9.5712298   0.22192153 
   71600   -677.20732    37.190324     -640.017    1128.3014   -1896.2275     9.491473   0.23938903 
   71700   -676.31735    41.012129   -635.30522    1244.2496   -4241.7763    9.4513794   0.26104416 
   71800   -678.37486    43.376785   -634.99807    1315.9898    6789.6121     9.610006   0.22522404 
   71900   -681.88148     40.41653   -641.46495    1226.1799    8691.1448    9.6983224   0.20461115 
   72000   -679.26567    41.534358   -637.73131    1260.0933   -11026.296    9.4268598   0.24737951 
   72100   -673.13205    38.485934   -634.64611    1167.6084   -1986.5063    9.4436741   0.25275457 
   72200   -682.08728    40.846272   -641.24101    1239.2177    5550.9543    9.6600554    0.1910178 
   72300   -678.95514    37.534255   -641.42088    1138.7358    3202.2362    9.6036311   0.23238888 
   72400   -676.11888    38.729991   -637.38889    1175.0127    2045.5211    9.5250683   0.23857756 
   72500   -677.33987    41.189877      -636.15    1249.6422   -8035.6183    9.4276072   0.27000443 
   72600   -671.67905    43.256339   -628.42271    1312.3357    2193.8192    9.4344975     0.279003 
   72700   -677.81947     43.37564   -634.44383    1315.9551    2865.8543    9.5545916   0.23415397 
   72800   -679.41155    42.290439   -637.12112    1283.0317    5033.9185    9.6230156   0.20389103 
   72900   -678.59464    40.670361   -637.92428    1233.8808    2106.5432    9.5668183   0.24501685 
   73000   -676.22396    44.348918   -631.87505     1345.483   -2019.1621    9.4609584   0.25808777 
   73100   -673.21379    42.026592    -631.1872    1275.0269    2490.7477    9.4680918   0.27991845 
   73200   -681.09072    40.730292   -640.36043     1235.699   -120.70788    9.5824946   0.22223351 
   73300   -678.31283    39.580307   -638.73253    1200.8101   -3406.9451    9.5005201   0.25189146 
   73400   -676.18695    39.161873   -637.02507    1188.1154   -5074.7247    9.4497673   0.25736828 
   73500   -675.74852    44.378838   -631.36968    1346.3907   -4268.2605    9.4264634    0.2594435 
   73600   -674.26269    43.513785   -630.74891    1320.1462    2315.7949    9.4789017    0.2700072 
   73700   -678.49565    41.503795   -636.99185     1259.166   -4313.0082    9.4961801   0.27847757 
   73800   -676.38142    37.499702   -638.88172    1137.6875   -200.80085    9.4917443   0.23791672 
   73900   -677.29222    39.512613    -637.7796    1198.7564    -5408.583    9.4773666   0.23305891 
   74000   -675.07707    44.683824   -630.39325    1355.6436    4572.4371    9.5282169   0.26020338 
   74100   -678.67565    42.419195   -636.25645    1286.9379    1934.3532    9.5552105   0.24430095 
   74200     -678.061    37.634171   -640.42682    1141.7671   -630.90992    9.5288578   0.26089804 
   74300    -677.7209    43.177097   -634.54381    1309.9316   -4739.6841    9.4759837   0.22327896 
   74400   -676.82233    40.552985   -636.26935    1230.3198    3687.8627    9.5454874   0.20275435 
   74500   -679.50849    36.297203   -643.21129    1101.2054    5867.9661    9.6521641   0.21218562 
   74600   -678.68058    41.283869   -637.39671    1252.4938   -1641.1229    9.5236613   0.22666491 
   74700   -678.01715    42.757429   -635.25972    1297.1995   -6093.3275    9.4545466    0.2710486 
   74800   -676.77218     41.32099   -635.45119      1253.62    2718.4498    9.5500635    0.2377851 
   74900   -682.17681    39.181102   -642.99571    1188.6988    -2173.761    9.5860855   0.19657056 
   75000    -677.5431    39.451966   -638.09113    1196.9164    1061.0628     9.529835   0.26652064 
   75100   -676.13074    41.663318   -634.46742    1264.0057    2573.7714    9.5037354   0.26863104 
   75200   -678.44967    40.135541   -638.31413    1217.6551   -6396.2607    9.4553927   0.26946244 
   75300   -681.64104    37.653744    -643.9873    1142.3609    1781.3376    9.6240871   0.20489214 
   75400   -677.01236    39.770904   -637.24146    1206.5926   -2698.3623    9.4772673   0.23885374 
   75500   -675.67376    39.809584   -635.86418    1207.7661   -566.77866    9.4928457   0.25672172 
   75600   -676.18984    38.785334    -637.4045    1176.6918    6628.7617    9.5714791   0.24835229 
   75700   -682.34433    38.171093   -644.17324    1158.0566   -4989.7252    9.5553364   0.23617846 
   75800   -678.98722     41.32737   -637.65985    1253.8135    -8923.831     9.441147   0.24229559 
   75900   -675.92859    42.593313   -633.33528    1292.2204     6741.142    9.5602287   0.23333556 
   76000    -680.0569    42.993083   -637.06381    1304.3489    9920.1916    9.6642437    0.1905806 
   76100   -680.13401    38.674869   -641.45914    1173.3404    1671.3629    9.5933374   0.20410074 
   76200   -677.23796    41.140826   -636.09713    1248.1541   -5839.6978    9.4456886   0.26257718 
   76300   -674.82706    40.103723   -634.72334    1216.6898   -3376.0524    9.4392878   0.24944499 
   76400   -683.09269    40.851654   -642.24104     1239.381    731.02752    9.6187405   0.19603969 
   76500   -680.29173    41.378567   -638.91316    1255.3668    6226.5214    9.6390167   0.18426031 
   76600   -674.39063    39.906313   -634.48431    1210.7007    2975.6725    9.5050249   0.22370941 
   76700   -678.48135    41.173399   -637.30796    1249.1422   -2442.9992    9.5148833    0.2568322 
   76800   -681.06001    39.815481   -641.24453     1207.945    2202.9009    9.6014104   0.24222315 
   76900   -676.70031    40.819625   -635.88068    1238.4093   -3727.7665    9.4574849   0.26611269 
   77000   -675.96888    43.609044   -632.35984    1323.0363   -2008.8575    9.4628011   0.28330218 
   77100   -676.31378    40.639999   -635.67378    1232.9597    9746.4449    9.6073907   0.27039925 
   77200   -677.36166    35.469566   -641.89209    1076.0961    6265.6447    9.5987898   0.23492717 
   77300   -678.44927    40.704846   -637.74443     1234.927   -2662.7483    9.5020662   0.22582645 
   77400   -676.87076     40.03377   -636.83699    1214.5675    -532.4626    9.4998565   0.25898817 
   77500   -672.58588    42.579862   -630.00602    1291.8123    440.30474    9.4343815   0.27006091 
   77600    -675.4298    43.545091   -631.88471     1321.096    9587.4472    9.5995804   0.26111594 
   77700    -676.9878    39.768338   -637.21946    1206.5147   -393.42743    9.5092382   0.25877017 
   77800   -676.30155    40.170748    -636.1308    1218.7233   -10802.816     9.383508   0.32090584 
   77900   -673.98584    41.141133   -632.84471    1248.1634   -5496.7174    9.4054083   0.28152295 
   78000   -682.23263     42.32707   -639.90556     1284.143    77.900942    9.5969045   0.20349863 
[...]
  481400   -674.98655    40.290683   -634.69587    1222.3619    -1416.178    9.4567814   0.27358902 
  481500   -676.57917      40.1397   -636.43947    1217.7813    472.44837    9.5224446   0.24243671 
  481600   -680.87778    41.958255   -638.91952    1272.9537    21.901823    9.5789532   0.20396153 
  481700   -682.17365    38.533091   -643.64056    1169.0391    730.81664     9.631701   0.19561778 
  481800   -675.55542    40.025762   -635.52965    1214.3246   -1459.9032    9.4694274   0.27262702 
  481900   -677.36468    42.577582    -634.7871    1291.7432   -6516.3718     9.448278   0.25570843 
  482000   -678.61064    38.181052   -640.42959    1158.3587    2680.1869    9.5733299   0.25765084 
  482100   -678.65769    41.458571   -637.19912     1257.794   -2874.9781    9.5021377   0.23836366 
  482200   -675.36283    41.884636   -633.47819    1270.7202   -1694.3978    9.4553871   0.29807925 
  482300   -678.28569    37.098172   -641.18751    1125.5057   -2953.3904    9.5168807   0.22328872 
  482400   -678.62807    38.151833   -640.47624    1157.4723   -1027.2031    9.5351929   0.22674725 
  482500   -675.63631    41.374389   -634.26192      1255.24    4695.1047    9.5447212   0.22867693 
  482600   -678.55205    40.312337   -638.23971    1223.0189    7691.0456    9.6170765   0.19264176 
  482700    -678.4254    35.830101    -642.5953    1087.0342   -5210.9578    9.4955165   0.24473586 
  482800   -676.64142    39.369706   -637.27171    1194.4208   -12517.681    9.3787755   0.27871836 
  482900    -674.9604    40.280416   -634.67998    1222.0504    745.75365    9.4858569      0.28162 
  483000   -676.37293    38.039293   -638.33364    1154.0579   -1719.2499    9.4942754   0.25990685 
  483100   -678.01436    36.752021   -641.26234     1115.004    203.66148    9.5563983   0.23817757 
  483200   -675.27337    39.656589   -635.61678    1203.1244     6922.177    9.5648587   0.25009915 
  483300   -676.37615    41.897866   -634.47828    1271.1216   -3515.0802    9.4605882   0.25232709 
  483400     -682.309    39.755949   -642.55305    1206.1389   -6085.1687    9.5347304    0.2136249 
  483500   -680.95669    42.487195   -638.46949    1289.0009    12043.455     9.709717   0.18068099 
  483600   -676.39883    42.826716   -633.57212    1299.3015    1047.5901    9.5100948   0.27400419 
  483700   -677.21531    41.500862   -635.71445     1259.077   -10371.813    9.3954955   0.26914571 
  483800   -678.36531    39.297634   -639.06768    1192.2342   -2899.3661    9.4988371    0.2353739 
  483900     -679.241    45.083988   -634.15701     1367.784    2812.7111    9.5644817   0.23637438 
  484000   -674.56836    43.227547   -631.34081    1311.4622    8087.4313    9.5713396   0.27303423 
  484100   -679.87598    41.426824   -638.44916    1256.8308   -3031.5268    9.5265178   0.24340405 
  484200   -678.02632    38.729518    -639.2968    1174.9984   -9439.6867    9.4260229   0.25705914 
  484300   -674.07426     42.04236    -632.0319    1275.5053   -5064.1883    9.4023341   0.25575265 
  484400   -679.07354    42.283107   -636.79043    1282.8092   -1400.0371      9.52986   0.24565386 
  484500   -679.73369    39.700741   -640.03295    1204.4639    4543.6443    9.6107058   0.20521762 
  484600   -674.37539    39.157299    -635.2181    1187.9767    10263.914    9.5917303   0.22766802 
  484700   -676.91416    43.258752   -633.65541    1312.4089     7333.849    9.5920468   0.23470584 
  484800   -680.50019    39.907365   -640.59283    1210.7326   -701.50428    9.5684423   0.21622848 
  484900   -678.20756    41.339105   -636.86845    1254.1696   -5943.1187    9.4739462   0.27828405 
  485000   -676.90481    44.667573   -632.23724    1355.1505     657.4925    9.4946283   0.26529264 
  485100   -678.97364    40.096045   -638.87759    1216.4569    4211.4017    9.5785021   0.21713327 
  485200   -680.17159    39.834807   -640.33678    1208.5313   -9134.7515    9.4802521   0.23763214 
  485300   -678.12563    44.752059   -633.37357    1357.7137   -3493.3119    9.4761346   0.26639391 
  485400   -674.06682    42.012271   -632.05455    1274.5925    11626.234    9.5920276   0.26715751 
  485500   -681.04036    40.812871   -640.22749    1238.2043    4616.1425    9.6397187   0.22042522 
  485600   -680.09219    40.470577   -639.62161    1227.8196   -4532.9327     9.499251   0.23132814 
  485700   -673.23356    38.811953   -634.42161    1177.4993    -2932.707    9.4151471    0.2878017 
  485800    -677.1225    40.205907    -636.9166    1219.7899    3949.9216    9.5576825   0.22872237 
  485900   -681.07286    39.342713   -641.73014    1193.6019    4408.2651    9.6328607   0.18489189 
  486000   -677.39094    40.176979   -637.21396    1218.9123   -2262.4921    9.5003027   0.23978579 
  486100   -676.29819    42.187167   -634.11103    1279.8985    482.97526    9.5083601   0.25883139 
  486200   -681.95391    40.437494   -641.51642    1226.8159   -3767.3188    9.5487773    0.2077141 
  486300   -680.26136    40.102857    -640.1585    1216.6635    1263.5886    9.5773011   0.22319274 
  486400   -676.43562    41.728014    -634.7076    1265.9685    3424.1018    9.5485795   0.24398528 
  486500   -679.79843    42.993474   -636.80496    1304.3607   -2396.7505    9.5334495   0.23341261 
  486600   -680.41711     38.89835   -641.51876    1180.1205    -3711.592    9.5411758    0.2414741 
  486700   -675.23528    39.946855   -635.28843    1211.9307   -4302.3262    9.4480497   0.26695868 
  486800   -674.14456    39.313031   -634.83152    1192.7014   -2185.4598    9.4546084   0.26063407 
  486900   -683.00641    41.482759   -641.52365    1258.5278    154.54419    9.6352279     0.185881 
  487000   -682.29628    44.253117   -638.04316    1342.5765    4304.8771    9.6483918   0.18679919 
  487100    -675.0903    42.426922   -632.66338    1287.1724    5199.3743     9.541315    0.2251662 
  487200   -677.07778    38.281142   -638.79664    1161.3953   -1467.4858    9.4922926   0.25181163 
  487300   -678.14732    37.452341   -640.69498    1136.2507   -925.86242    9.5357746   0.21515132 
  487400   -675.10596    41.517946   -633.58802    1259.5953     3072.975    9.5232219    0.2523764 
  487500   -674.38823    39.312937   -635.07529    1192.6985    498.08153    9.4659273   0.30122281 
  487600   -682.50791    41.606265   -640.90165    1262.2748   -6635.7451    9.5387095   0.23981654 
  487700   -680.51914    42.696564   -637.82258    1295.3529    5763.7745    9.6422727   0.17867131 
  487800   -676.90575    43.138929   -633.76683    1308.7736    13850.847    9.6668179   0.23333011 
  487900   -680.07623    42.340726   -637.73551    1284.5573   -8791.6448    9.4555293    0.2450899 
  488000   -682.10621    39.089554   -643.01666    1185.9214   -8553.0717    9.5178337    0.2073722 
  488100   -674.16563    38.616517   -635.54911    1171.5701    9712.1952    9.5685395    0.2530365 
  488200   -675.54555     39.14076   -636.40479    1187.4749    2529.3422    9.5211367   0.24346149 
  488300   -682.21276    41.512884   -640.69988    1259.4417   -2884.8638    9.5651924   0.19783817 
  488400   -681.23347     39.76067    -641.4728    1206.2821   -520.52624    9.5892762   0.22298989 
  488500    -672.7915    39.476314   -633.31519    1197.6551    4372.6938    9.4885435   0.28389629 
  488600   -677.55105     41.10227   -636.44878    1246.9843   -4186.0136    9.4850746   0.22988991 
  488700   -679.86102    38.596383   -641.26464    1170.9593    -4877.896    9.5175175   0.23912436 
  488800     -676.796    40.667173   -636.12883    1233.7841    2395.8783    9.5328482   0.22744756 
  488900   -677.53697    42.475172    -635.0618    1288.6362    -3457.935    9.4850796   0.26123578 
  489000   -683.84877    41.518803   -642.32997    1259.6213    6373.3975    9.6977807   0.19956682 
  489100   -680.03545    41.297903   -638.73755    1252.9195     788.2538     9.569521   0.20615663 
  489200   -675.51889    41.126808   -634.39208    1247.7288   -2785.5211    9.4609868   0.25787386 
  489300   -678.32816    42.771734   -635.55642    1297.6335    5848.8973    9.6044438   0.20109435 
  489400   -681.08187    39.648585   -641.43329    1202.8816   -649.04005    9.5743918   0.20214441 
  489500   -679.25954    41.529642    -637.7299    1259.9502   -4651.7853    9.4989377   0.23836077 
  489600   -675.54511    40.363357   -635.18175    1224.5667   -3577.9026    9.4478782   0.28664597 
  489700   -670.02109    40.668877   -629.35221    1233.8358   -5077.2952    9.3170901   0.33666786 
  489800   -675.07794    40.038514   -635.03942    1214.7115   -4858.2763    9.4220058   0.28535769 
  489900   -679.47011    42.641181   -636.82893    1293.6727    4140.1395    9.5940767   0.22016759 
  490000   -679.43817    43.323962    -636.1142    1314.3873    723.37929    9.5597126   0.23324077 
  490100   -675.83797    41.546841   -634.29113     1260.472   -4226.2937    9.4423962   0.25355725 
  490200   -681.84648    38.661826   -643.18465    1172.9447    1169.8294    9.6121038    0.2013945 
  490300    -682.2878    41.615348   -640.67245    1262.5504   -3497.9996    9.5593929   0.21238509 
  490400   -675.92818    38.958541   -636.96964    1181.9466   -1729.0436    9.4819815   0.25514985 
  490500   -672.69813     38.05679   -634.64134    1154.5888   -6103.0546    9.3686552   0.29157811 
  490600   -680.47218    39.342159   -641.13002    1193.5851    3498.2265    9.6184851   0.21831839 
  490700   -679.88431    39.117536   -640.76678    1186.7703    11178.628    9.6886216    0.2191931 
  490800    -679.9776    43.197434   -636.78017    1310.5486   -12013.677    9.4245897   0.26236947 
  490900    -676.3392    40.414593   -635.92461    1226.1212   -1661.1046    9.4957966   0.24870017 
  491000   -675.14767    45.458077   -629.68959    1379.1333   -7413.3963    9.3866941   0.31720101 
  491100   -668.43226    39.212989   -629.21928    1189.6662    181.24905    9.3430066    0.3305566 
  491200   -675.49027    40.624381   -634.86589    1232.4858   -34.495057    9.4890742   0.23457234 
  491300   -678.34795    40.239772   -638.10817    1220.8173    3247.9799    9.5729256   0.20868074 
  491400    -677.6302    38.364378   -639.26582    1163.9206    710.91489    9.5323215   0.23221977 
  491500   -672.23468    40.515898   -631.71878    1229.1946   -2998.3644    9.3963668   0.30633937 
  491600     -677.094    44.069232   -633.02477    1336.9977   -5450.5624     9.451814   0.27886396 
  491700   -678.34052    38.787811   -639.55271    1176.7669    1522.3637    9.5556175   0.24781638 
  491800   -678.05478    41.589601   -636.46518    1261.7692   -2848.9529    9.4992792   0.25041589 
  491900   -675.81785    41.118322   -634.69953    1247.4713   -7034.2385    9.4141674   0.29140807 
  492000   -681.88451     38.70737   -643.17714    1174.3265    4645.7928    9.6474221   0.22677256 
  492100   -680.51883    40.597763   -639.92107    1231.6783    3912.4754    9.6196663   0.20913012 
  492200   -676.20741    40.589445   -635.61796    1231.4259    5926.1262    9.5904048   0.21095402 
  492300   -682.30367    44.334652   -637.96902    1345.0502    -7534.782    9.5269416    0.1992188 
  492400   -681.31179     39.63165   -641.68014    1202.3678    454.76716    9.5974224   0.18656739 
  492500   -680.92817    45.613955   -635.31422    1383.8624    -2142.529    9.5443136    0.2303872 
  492600   -675.10417    39.623057   -635.48111    1202.1071    766.69259    9.4905994   0.26287957 
  492700   -678.52579    38.119055   -640.40674    1156.4778   -3397.0241    9.5054043   0.23827272 
  492800   -679.78399    40.336957   -639.44704    1223.7658    1504.2199    9.5772148   0.21802867 
  492900   -678.03124    44.979919   -633.05132    1364.6266    11098.946    9.6328238   0.22694897 
  493000   -679.02159    41.260749   -637.76084    1251.7923   -2153.1358    9.5348357   0.22491504 
  493100   -681.09722    39.349409   -641.74781     1193.805   -6571.7858    9.5254177   0.22010808 
  493200   -674.69718    39.868131   -634.82905    1209.5423   -2798.3591    9.4457798   0.26976568 
  493300   -675.60701    41.836583   -633.77042    1269.2623   -5132.1042    9.4228966    0.2677654 
  493400   -678.86486    37.771148   -641.09372    1145.9228    10950.152    9.6725365   0.22458265 
  493500   -679.94338    41.439436   -638.50394    1257.2135    2132.0226    9.5824182   0.22411214 
  493600   -675.31066    42.894779   -632.41588    1301.3665    -2373.007    9.4480572   0.24923695 
  493700   -677.45127    39.182871    -638.2684    1188.7525   -2561.3977    9.5019058   0.23975872 
  493800   -680.69563    40.349947   -640.34569    1224.1599    -4934.148    9.5428128     0.232109 
  493900   -676.13008    41.709334   -634.42075    1265.4018    5766.0335    9.5504395   0.23197977 
  494000   -676.49579    41.117449   -635.37834    1247.4448    4032.1684    9.5518469   0.22769011 
  494100   -679.62166    38.621562    -641.0001    1171.7232   -1453.8571    9.5406946   0.23582312 
  494200   -679.59215    41.787231   -637.80492     1267.765   -9357.1083    9.4501755   0.24671489 
  494300    -674.0635    40.633241   -633.43026    1232.7547   -2868.7116    9.4275028   0.29131042 
  494400   -673.73831    44.309126   -629.42918    1344.2757   -11415.229    9.3163235   0.30697137 
  494500   -679.62687    41.485936   -638.14093    1258.6242   -11629.168    9.4424828   0.22338523 
  494600   -678.53321    41.039817   -637.49339    1245.0896    16457.993    9.7256312   0.19236517 
  494700   -680.24168    44.301108   -635.94057    1344.0325    3807.0927    9.6103735   0.19000622 
  494800   -675.27326    43.578521   -631.69474    1322.1102    83.698898    9.4804949   0.24347104 
  494900   -673.06225    42.557808   -630.50444    1291.1433   -2955.9765    9.4133955   0.26473986 
  495000   -680.56947    43.802115   -636.76735    1328.8938   -9177.7795    9.4628885   0.22618238 
  495100   -680.49719    42.524071   -637.97312    1290.1197    5376.6492     9.626897   0.21561909 
  495200    -676.9166    39.043374   -637.87322    1184.5203    2944.0027    9.5586908   0.23205018 
  495300   -670.65653    41.048174   -629.60836    1245.3431   -3637.0993    9.3555897   0.31208832 
  495400   -677.65888    41.448205   -636.21068    1257.4795     866.0528    9.5295178   0.24784815 
  495500   -679.45786    40.395132   -639.06273    1225.5307    -2981.292    9.5367606   0.24562176 
  495600   -676.38515    38.270025   -638.11513     1161.058   -1525.1897    9.4944861   0.28309285 
  495700   -673.37959    41.349954   -632.02964    1254.4987    3484.8078    9.4740771   0.29323903 
  495800   -681.33386    42.554262    -638.7796    1291.0357     3209.453    9.6200735   0.21167957 
  495900   -676.73233    36.947594   -639.78474    1120.9374   -11791.077    9.3982059   0.25786047 
  496000   -673.40979    37.717433   -635.69235    1144.2932   -6306.8037    9.3943522   0.29815806 
  496100    -674.1243    40.874829   -633.24947    1240.0841    8516.4671    9.5656399   0.23437544 
  496200   -680.66473     39.63867   -641.02607    1202.5808    6468.6356      9.66738   0.21000273 
  496300   -680.83182    42.439943   -638.39187    1287.5674    -5647.781    9.5233936    0.2296267 
  496400   -674.95637    42.069488   -632.88688    1276.3283    4310.1484    9.5119953   0.22271526 
  496500   -679.48131    40.685018   -638.79629    1234.3255    -2328.892    9.5324856   0.22801944 
  496600   -679.26086    38.575177   -640.68568    1170.3159    6565.8479    9.6299583   0.21823512 
  496700   -674.47158    41.062774   -633.40881    1245.7861   -6977.1056    9.3803008   0.27142059 
  496800    -672.3012    40.810825   -631.49037    1238.1423   -8081.3459    9.3373066   0.28881544 
  496900   -680.95786    41.753805   -639.20405     1266.751    2848.9084    9.6123433    0.2062526 
  497000   -680.04366    42.202811   -637.84085    1280.3731    7005.0976    9.6393896   0.21508352 
  497100   -676.63669    39.930856   -636.70583    1211.4453    1178.8574    9.5202905   0.27210424 
  497200   -674.15834    42.490608   -631.66774    1289.1045   -6685.4919    9.3857671   0.27185227 
  497300    -680.1224    39.730983   -640.39142    1205.3814    2684.1904       9.5781   0.19777921 
  497400   -677.53714      38.7308   -638.80634    1175.0373    5890.9585    9.5882806   0.23409448 
  497500   -675.36608     40.01686   -635.34922    1214.0545   -4591.0447    9.4417187   0.28598616 
  497600    -673.8462    43.227508   -630.61869     1311.461   -4000.2763    9.4096315   0.27723747 
  497700   -678.57854    40.015878   -638.56266    1214.0247    1753.6315    9.5607834   0.21494697 
  497800   -677.48963    39.231129    -638.2585    1190.2166    3747.1589    9.5764643   0.25538812 
  497900   -674.25093    42.626888   -631.62404     1293.239   -1707.7159    9.4568751   0.30346495 
  498000   -679.86751    43.178142   -636.68936    1309.9633    5781.2382    9.6180832   0.23191168 
  498100   -678.26534    39.580752   -638.68459    1200.8236    17231.469    9.7430741   0.21506771 
  498200   -675.49542    40.471206   -635.02422    1227.8387   -3744.8304     9.444608   0.28169763 
  498300    -671.9279    40.438582   -631.48932     1226.849   -10330.138    9.3070551   0.29199404 
  498400   -678.16073    39.288716   -638.87201    1191.9637   -3199.5018    9.4963329   0.24324571 
  498500   -678.43988    40.298372   -638.14151    1222.5952    2757.3788    9.5769558   0.27001701 
  498600   -673.94076    42.024434   -631.91632    1274.9614    2809.9754     9.485038    0.2390208 
  498700   -679.00127    41.571499   -637.42977      1261.22    896.35925    9.5461923   0.23877117 
  498800   -678.63002    39.109945   -639.52007      1186.54    601.15451    9.5426035   0.22183264 
  498900   -674.32868    38.085534   -636.24315    1155.4608   -391.59622    9.4587278   0.27281106 
  499000   -676.94096    43.617469    -633.3235    1323.2919   -4010.8017    9.4469273   0.23464133 
  499100   -679.25997    39.166646   -640.09333    1188.2602    8472.5763    9.6433071   0.21498427 
  499200    -678.3588     40.62905   -637.72975    1232.6275    7213.5535    9.6254283   0.20827345 
  499300   -681.01757    42.518708   -638.49886     1289.957    1076.9652    9.5942945   0.21228982 
  499400   -684.66342    38.745076   -645.91834    1175.4704    1870.8315    9.6696852   0.18643782 
  499500   -677.29046    37.913894   -639.37657    1150.2535   -12390.169    9.3711993   0.27731082 
  499600   -675.48918    38.467276    -637.0219    1167.0423   -5453.3415    9.4380247    0.2656842 
  499700   -676.42882    40.157999   -636.27082    1218.3365    6766.3353    9.5747956   0.21767782 
  499800   -682.06474    39.847486   -642.21726    1208.9159    4574.1945    9.6493504    0.1957125 
  499900   -680.63457    38.564065   -642.07051    1169.9788   -4017.1681    9.5332028    0.2284432 
  500000   -678.58064    41.850535   -636.73011    1269.6856   -7493.9018    9.4567293   0.24121628 
Loop time of 350.692 on 1 procs for 500000 steps with 256 atoms

Performance: 615.926 ns/day, 0.039 hours/ns, 1425.754 timesteps/s
100.0% CPU use with 1 MPI tasks x no OpenMP threads

MPI task timing breakdown:
Section |  min time  |  avg time  |  max time  |%varavg| %total
---------------------------------------------------------------
Pair    | 210.53     | 210.53     | 210.53     |   0.0 | 60.03
Neigh   | 13.743     | 13.743     | 13.743     |   0.0 |  3.92
Comm    | 3.8559     | 3.8559     | 3.8559     |   0.0 |  1.10
Output  | 0.15107    | 0.15107    | 0.15107    |   0.0 |  0.04
Modify  | 121.6      | 121.6      | 121.6      |   0.0 | 34.67
Other   |            | 0.8082     |            |       |  0.23

Nlocal:    256 ave 256 max 256 min
Histogram: 1 0 0 0 0 0 0 0 0 0
Nghost:    1431 ave 1431 max 1431 min
Histogram: 1 0 0 0 0 0 0 0 0 0
Neighs:    11459 ave 11459 max 11459 min
Histogram: 1 0 0 0 0 0 0 0 0 0

Total # of neighbors = 11459
Ave neighs/atom = 44.7617
Neighbor list builds = 25081
Dangerous builds = 0
Total wall time: 0:05:50
