LAMMPS (3 Mar 2020)
Reading data file ...
  orthogonal box = (0 0 0) to (17.469 17.469 17.469)
  1 by 1 by 1 MPI processor grid
  reading atoms ...
  217 atoms
  read_data CPU = 0.00101753 secs
Reading potential file library.meam with DATE: 2012-06-29
Reading potential file LiSi.meam with DATE: 2020-11-07
1 atoms in group Li
216 atoms in group Si
Neighbor list info ...
  update every 1 steps, delay 10 steps, check yes
  max neighbors/atom: 2000, page size: 100000
  master list distance cutoff = 6
  ghost atom cutoff = 6
  binsize = 3, bins = 6 6 6
  2 neighbor lists, perpetual/occasional/extra = 2 0 0
  (1) pair meam/c, perpetual
      attributes: full, newton on
      pair build: full/bin/atomonly
      stencil: full/bin/3d
      bin: standard
  (2) pair meam/c, perpetual, half/full from (1)
      attributes: half, newton on
      pair build: halffull/newton
      stencil: none
      bin: none
Setting up Verlet run ...
  Unit style    : metal
  Current step  : 0
  Time step     : 0.003
Per MPI rank memory allocation (min/avg/max) = 8.895 | 8.895 | 8.895 Mbytes
Step Temp E_pair E_mol TotEng Press Volume 
       0         1800   -951.04357            0   -900.78722   -114161.75    5330.9442 
    3200    1887.5905   -943.58012            0   -890.87823    4266.3446    4644.1492 
Loop time of 2.26591 on 1 procs for 3200 steps with 217 atoms

Performance: 366.052 ns/day, 0.066 hours/ns, 1412.239 timesteps/s
100.0% CPU use with 1 MPI tasks x no OpenMP threads

MPI task timing breakdown:
Section |  min time  |  avg time  |  max time  |%varavg| %total
---------------------------------------------------------------
Pair    | 2.1592     | 2.1592     | 2.1592     |   0.0 | 95.29
Neigh   | 0.05699    | 0.05699    | 0.05699    |   0.0 |  2.52
Comm    | 0.015152   | 0.015152   | 0.015152   |   0.0 |  0.67
Output  | 2.6408e-05 | 2.6408e-05 | 2.6408e-05 |   0.0 |  0.00
Modify  | 0.029589   | 0.029589   | 0.029589   |   0.0 |  1.31
Other   |            | 0.004975   |            |       |  0.22

Nlocal:    217 ave 217 max 217 min
Histogram: 1 0 0 0 0 0 0 0 0 0
Nghost:    957 ave 957 max 957 min
Histogram: 1 0 0 0 0 0 0 0 0 0
Neighs:    4172 ave 4172 max 4172 min
Histogram: 1 0 0 0 0 0 0 0 0 0
FullNghs:  8344 ave 8344 max 8344 min
Histogram: 1 0 0 0 0 0 0 0 0 0

Total # of neighbors = 8344
Ave neighs/atom = 38.4516
Neighbor list builds = 97
Dangerous builds = 0
Setting up Verlet run ...
  Unit style    : metal
  Current step  : 3200
  Time step     : 0.003
Per MPI rank memory allocation (min/avg/max) = 9.664 | 9.664 | 9.664 Mbytes
Step PotEng KinEng TotEng Temp Press Density c_msdli[4] c_msdsi[4] 
    3200   -943.58012    52.701887   -890.87823    1887.5905    4266.3446    2.1716159            0 7.4030607e-32 
    3300   -945.10781    48.513859   -896.59395    1737.5905   -8533.9394    2.1496464   0.20479013   0.12108889 
    3400   -939.73745    53.428143    -886.3093    1913.6023   -2366.0506    2.1523459   0.39741908    0.1250033 
    3500    -939.7577    52.205048   -887.55265    1869.7955    11615.373    2.1837527    0.3378678   0.13701905 
    3600   -941.17024    47.685626   -893.48461    1707.9262   -5312.7719     2.144959   0.16927034   0.16226288 
    3700   -936.89576    51.288008   -885.60775    1836.9505    -4712.663    2.1368974  0.051126359   0.11929186 
    3800    -937.6769    53.045758   -884.63115    1899.9067    8134.6694     2.174136   0.23826726   0.12167146 
    3900   -941.23023    48.884229   -892.34601    1750.8558   -152.69265    2.1604376  0.064090565   0.13158904 
    4000   -941.93532    51.830679   -890.10464     1856.387   -6639.9293     2.144744   0.17284599   0.11478996 
    4100   -935.36193    52.927318   -882.43461    1895.6646    5302.2155    2.1554448   0.43674563   0.12784939 
    4200   -940.19137    48.294464   -891.89691    1729.7326    3726.3262    2.1641447  0.071516491     0.141682 
    4300   -938.93208    46.103079     -892.829    1651.2451    -7849.116    2.1408282  0.035120947   0.15363006 
    4400   -937.52002     50.23405   -887.28597    1799.2015    6415.4702    2.1657775   0.12980571   0.15690383 
    4500   -940.52404    48.434554   -892.08949    1734.7501    3219.5096    2.1678831  0.073232414   0.14642725 
    4600   -944.36019    47.296711   -897.06348    1693.9967   -5933.6414    2.1546323   0.16869132   0.14756651 
    4700    -940.8991    51.183837   -889.71526    1833.2194    1011.2997    2.1633732  0.098666758   0.12512941 
    4800   -936.76707    48.245427   -888.52164    1727.9762    6442.8701      2.16908   0.31417658   0.13684488 
    4900   -946.15179    47.893643   -898.25815    1715.3766   -6044.0225     2.160811   0.15971351   0.13572411 
    5000   -940.78019    48.495961   -892.28423    1736.9495   -1972.5692    2.1555437   0.41913482    0.1464693 
    5100   -938.46155    51.023022   -887.43853    1827.4596    7033.6923    2.1760511   0.61127335   0.15286307 
    5200   -940.61292     47.67407   -892.93885    1707.5123    -2788.191    2.1517441    1.6911723   0.17384768 
    5300    -941.1225    55.126621   -885.99587    1974.4356   -6350.0668    2.1433834    2.3918939    0.1630156 
    5400   -938.34403    55.309567   -883.03446    1980.9881    6038.1638    2.1730971    0.4187285     0.166346 
    5500   -937.38042    48.403555   -888.97687    1733.6398   -6080.1777    2.1459448    3.1919391   0.17800011 
    5600   -937.81686    51.303292   -886.51356    1837.4979   -1393.5571     2.155725    2.4617366   0.18079072 
    5700   -934.69526    57.724371   -876.97089    2067.4776    7882.3007     2.165431    10.209649   0.20341545 
    5800   -938.87902    52.198074   -886.68095    1869.5457   -3182.7912    2.1522657    3.3937847     0.177378 
    5900   -939.43351    49.556142   -889.87736    1774.9213   -8446.9052    2.1408647  0.083055985   0.15927424 
    6000   -942.84899    54.657225   -888.19177    1957.6236    2764.9134    2.1738143       5.5642    0.1332707 
    6100   -931.48839    55.033001   -876.45539    1971.0825    5025.3299    2.1557978    7.8730486   0.15419323 
    6200   -937.26716    53.332567   -883.93459    1910.1791   -5149.9693    2.1395153    7.9809651   0.13762815 
    6300   -941.19749    51.372266   -889.82523    1839.9683   -5171.8926    2.1498994    6.4549019   0.14149221 
    6400   -943.50542    53.031876   -890.47354    1899.4095    8788.9329    2.1894719    5.0201132   0.14470127 
    6500   -934.82644    48.545547   -886.28089    1738.7254    2440.9426    2.1590579    8.0152836   0.16722964 
    6600   -932.53378    49.732705   -882.80107    1781.2452   -15928.238    2.1053095    5.8525634   0.16392201 
    6700      -942.74    53.409729   -889.33027    1912.9428    4513.7664    2.1817589    5.6652037   0.16588355 
    6800   -940.46064      52.1717   -888.28894    1868.6011    10415.918    2.1840708    4.2154092   0.18967308 
    6900   -930.08498    47.646643   -882.43833      1706.53   -10045.561    2.1154984    4.0872923   0.20630209 
    7000   -939.14235     51.53741   -887.60494    1845.8831   -2249.4437    2.1565701    11.444011   0.19240266 
    7100   -939.54744     49.22796   -890.31948     1763.167    8317.7226     2.190277    4.9383847   0.20497267 
    7200   -934.88322    48.550234   -886.33299    1738.8933   -5093.2192    2.1359507    7.6924187   0.16701871 
    7300   -933.63606    50.882298   -882.75376    1822.4194    2776.7987    2.1512959    2.2465411   0.17991621 
    7400   -936.79644    44.320607   -892.47584    1587.4034    10050.112    2.1887193    4.7382431   0.20346579 
    7500   -936.21871    50.458441   -885.76027    1807.2384   -7885.6344     2.128135    7.9869943   0.20411368 
    7600   -935.56831    51.774418   -883.79389    1854.3719    1477.4271    2.1532499    3.4660269   0.18284344 
    7700   -937.77162    47.196033   -890.57559    1690.3908    1595.4228    2.1637323    2.7797611   0.20259726 
    7800   -937.52181    51.564091   -885.95771    1846.8387   -1161.4507    2.1509772    6.5975782   0.18526707 
    7900   -937.03908    55.946769   -881.09231    2003.8104   -1226.3767      2.14327    4.6905065   0.19885527 
    8000   -938.07992    48.865509   -889.21442    1750.1853     5982.778    2.1721649      5.75667   0.18891742 
    8100   -937.94577    50.514237   -887.43153    1809.2368    708.45309    2.1600405    5.9954219   0.18442221 
    8200   -933.66431    53.988742   -879.67557     1933.681   -6960.1886    2.1273861    7.9228084   0.18304884 
    8300   -943.66868    52.817943   -890.85073    1891.7472    2735.3606    2.1800036    3.6790602    0.1807603 
    8400   -939.29793    50.693905   -888.60402    1815.6718   -1857.9979    2.1555987    3.1235367   0.15324287 
    8500   -938.65868    52.122693   -886.53599    1866.8458   -7557.5317    2.1315602    6.2586523   0.15622585 
    8600   -942.99005    46.311385   -896.67867    1658.7058    7740.3376    2.1839997    6.0885746   0.16245057 
    8700   -940.26089    49.615862   -890.64503    1777.0603     654.5549    2.1646226      4.63549   0.14922217 
    8800   -938.99867    51.022696   -887.97597    1827.4479   -9479.9566    2.1352287    4.6679587   0.16071842 
    8900   -939.08824    47.055789   -892.03245    1685.3677    611.42397    2.1633911     7.354381   0.14530832 
    9000   -946.17078    51.079072    -895.0917    1829.4671    10770.935    2.1948173    5.6310775   0.11845916 
    9100   -938.56753    52.690265   -885.87727    1887.1742   -10696.555    2.1219449    5.7021014   0.14379715 
    9200   -939.66828    48.114514   -891.55377    1723.2874   -4421.9301    2.1451165    7.2198234   0.15247657 
    9300   -942.35937    50.943073    -891.4163    1824.5961    15370.508    2.2034438    8.6448425   0.13531104 
    9400   -937.35158    54.048762   -883.30282    1935.8306   -5359.8023     2.135105    5.4248428    0.1500897 
    9500    -941.9864    54.260012   -887.72639    1943.3968   -12931.784    2.1241047    6.9761983    0.1230205 
    9600   -945.03289    53.317098   -891.71579    1909.6251    6391.4178    2.1801332    6.9384116    0.1202129 
    9700   -941.74426    52.455101   -889.28916    1878.7515    2967.7705    2.1668128    6.4792699   0.12971994 
    9800   -935.90273    52.034892   -883.86784    1863.7011    -8574.992    2.1272899    9.0801891   0.14513417 
    9900   -943.06445    48.985422   -894.07903    1754.4802    3376.7419    2.1713392    8.5767222   0.13124797 
   10000   -943.42742    53.524246   -889.90318    1917.0444    1483.7625    2.1686864    6.9278943   0.13650246 
   10100   -937.00712    51.088706   -885.91842    1829.8122   -4739.9483    2.1394195    6.7444002   0.16272072 
   10200   -943.92307    47.361497   -896.56158    1696.3171      25.3853    2.1712791    8.2174675   0.13805256 
   10300   -943.54289    51.805893   -891.73699    1855.4992   -924.71627    2.1638816    7.9413715   0.14662623 
   10400    -939.4155    51.987764   -887.42773    1862.0132   -1801.7233      2.15564    6.3392719    0.1498517 
   10500   -944.06161     48.49139   -895.57022    1736.7857   -2490.1372       2.1659    7.9495731   0.12747471 
   10600   -940.69926    46.373195   -894.32607    1660.9197    2238.8554    2.1673997    6.5513235   0.12683567 
   10700   -940.36396    52.948963     -887.415    1896.4398    717.27574    2.1592534    6.8351572   0.14110988 
   10800   -941.66066    50.994593   -890.66607    1826.4414   -4404.4919    2.1567019    10.078017   0.16414335 
   10900   -946.58603    48.035959   -898.55007    1720.4738   -940.46544    2.1765041    12.340241   0.15849292 
   11000   -939.15341    50.875146   -888.27826    1822.1632    -4034.841    2.1493656    15.062896   0.16852707 
   11100    -936.7092    48.466614   -888.24258    1735.8984    5682.8793    2.1686739    21.412987   0.18197081 
   11200   -942.33808    50.555301   -891.78278    1810.7076    2024.1057    2.1691801     20.86138   0.16909602 
   11300   -944.96823    45.746344   -899.22188    1638.4681   -9081.3883    2.1501129    19.891469   0.13856236 
   11400   -943.85953    50.237575   -893.62195    1799.3278    -909.4289    2.1672946    25.892914   0.15778275 
   11500   -938.51004    50.105238    -888.4048    1794.5879    10441.144    2.1840982    19.962378   0.15746825 
   11600   -938.76775     48.95994   -889.80781    1753.5675   -8979.1042      2.13376    25.447291    0.1648094 
   11700   -937.94649    53.500794   -884.44569    1916.2044   -2538.2965    2.1483397    20.397355   0.15942489 
   11800   -933.95248    56.561095   -877.39139    2025.8133    8448.2765    2.1630269     14.61596    0.1687526 
   11900   -936.69678    49.019204   -887.67758    1755.6901    -3017.454    2.1484404    14.629965   0.16163123 
   12000   -942.32583    51.448832     -890.877    1842.7106   -7346.4034    2.1516923    15.525444   0.16060674 
   12100   -942.71603    52.463877   -890.25216    1879.0658    4852.4419    2.1797198    17.436946   0.13308253 
   12200   -931.88242    52.799013   -879.08341    1891.0692   -75.756481    2.1401947    18.081511   0.13790468 
   12300   -933.98797    47.044102   -886.94387    1684.9491   -282.45208    2.1487344    18.823719   0.13286381 
   12400   -939.33291    48.348353   -890.98456    1731.6627    815.24799    2.1620734    17.359658   0.14715106 
   12500   -940.70297    50.834931   -889.86804    1820.7229    2902.0583    2.1705504    17.542195   0.12822568 
   12600   -931.52514    52.697021   -878.82811    1887.4162   -4660.9375    2.1260117    16.691756   0.17423929 
   12700   -938.79693    50.573518   -888.22341      1811.36    2733.3889     2.164327    16.281049    0.1529624 
   12800   -941.77524    51.744595   -890.03065    1853.3038     3092.608     2.166807     20.45065   0.14266794 
   12900   -936.08435     45.59365    -890.4907    1632.9992   -337.56672    2.1484183    17.636344   0.14293172 
   13000   -942.26206    47.374022   -894.88803    1696.7657   -2867.2973    2.1589831     19.66291   0.13465797 
   13100   -942.49993    44.075602   -898.42433    1578.6282    11255.018    2.1946072    20.257795   0.12255992 
   13200   -940.72291    50.038643   -890.68426    1792.2027   -1892.5065    2.1524235     17.81152   0.13070251 
   13300   -939.38761    49.444571   -889.94303    1770.9252   -7240.3411    2.1413549    17.317588    0.1429869 
   13400   -941.67451    50.249374   -891.42514    1799.7503    8312.0745    2.1800556    15.995719   0.15487566 
   13500   -942.94478     44.14989   -898.79489     1581.289    10481.852     2.194168    15.685729   0.15536566 
   13600   -934.87925    45.226213   -889.65303    1619.8389   -10131.241    2.1293445    13.417934   0.19468522 
   13700     -939.145    51.544738   -887.60026    1846.1456    4.3666548    2.1592071     14.52756   0.17055368 
   13800   -943.14974    50.115908   -893.03383    1794.9701    8580.9541    2.1885073    15.783929   0.15863355 
   13900   -943.11546     45.11059   -898.00487    1615.6977    -1012.108    2.1635868    10.265667   0.16422158 
   14000   -937.11008    49.176317   -887.93377    1761.3173   -8267.8101    2.1360042    15.473261   0.17637342 
   14100   -938.97399    50.464629   -888.50936      1807.46    7841.1211    2.1774504    14.193852   0.15158654 
   14200   -943.28768     48.96212   -894.32556    1753.6456    3053.7099    2.1765024    12.110547   0.16406906 
   14300   -932.68263    49.039467   -883.64316    1756.4159    -6882.408    2.1305241    13.967397   0.17771953 
   14400   -938.79694    52.119831   -886.67711    1866.7433    4137.6514    2.1697299    12.058607   0.17290335 
   14500   -941.86064    50.181658   -891.67898     1797.325      1593.63    2.1720142    11.666304   0.16769309 
   14600    -933.5039     50.30934   -883.19456    1801.8981   -2829.7618    2.1515864    16.456648   0.24499189 
   14700   -935.80429    51.869423   -883.93486    1857.7746   -187.49894    2.1517213    19.405915   0.19880872 
   14800    -943.1782    52.284271   -890.89393     1872.633    238.66481    2.1738423     19.36268   0.17680892 
   14900   -935.83331    49.231428   -886.60189    1763.2912    734.05012    2.1542516    21.585563   0.18458339 
   15000   -933.04409    49.504118   -883.53997     1773.058   -4689.9369    2.1363902    21.415338   0.18437132 
   15100   -941.66531    49.636121   -892.02919    1777.7858    9719.9082    2.1831229    25.457356   0.15282519 
   15200   -941.58508    53.698155   -887.88692    1923.2732    328.97994    2.1605775     28.43227   0.14481898 
   15300   -935.67195    50.255719   -885.41623    1799.9776   -9856.2326     2.119779    25.628031   0.17473056 
   15400    -944.2346    49.128568   -895.10603    1759.6071    7713.1131    2.1851937    27.683144    0.1327948 
   15500   -943.07631    53.904135   -889.17218    1930.6506    4713.9764    2.1687742    10.868907   0.13485531 
   15600   -933.62408    46.210786    -887.4133    1655.1028   -4211.6918    2.1290558    11.944796   0.17412294 
   15700    -940.8876    46.818175   -894.06942    1676.8573    2240.4486    2.1675311    11.263481   0.16223477 
   15800   -940.38147    47.150736   -893.23074    1688.7684    9343.7567    2.1818786    10.919915   0.16166001 
   15900    -938.9979    52.574231   -886.42367    1883.0183   -6106.2397    2.1388423    15.034173   0.15791585 
   16000   -942.35258    50.667802   -891.68478    1814.7369   -2984.7111    2.1568967    13.117857   0.12411598 
   16100   -940.13893    45.676197   -894.46273    1635.9557     5447.963    2.1789634    13.068758   0.14355952 
   16200   -935.12774    50.349368   -884.77837    1803.3318   -919.88473     2.145417    15.350098    0.1302419 
   16300   -940.76595    49.305455    -891.4605    1765.9426   -1182.5145    2.1577184    14.700589   0.14672568 
   16400   -941.13511    47.811877   -893.32323     1712.448    3695.9823    2.1708134    14.600786   0.13746459 
   16500   -935.68588    51.639225   -884.04666    1849.5298    485.91796     2.146645    17.609284   0.14588306 
   16600   -938.98568    47.442328   -891.54336    1699.2121     1425.918    2.1609228    12.928829   0.15711603 
   16700   -941.37946    48.219027   -893.16043    1727.0307    -325.8134    2.1645418    11.147087   0.13747552 
   16800   -938.27432    53.709867   -884.56446    1923.6927    576.29237    2.1550161    14.081436    0.1374274 
   16900   -941.45339     49.61545   -891.83794    1777.0455    -1031.468    2.1576302    13.632665   0.11631692 
   17000   -941.22792    47.462633   -893.76529    1699.9394    -3008.927    2.1556353    15.567349   0.11782472 
   17100   -936.76279    51.409217   -885.35357    1841.2917    5898.2858    2.1657891     12.44185   0.14944013 
   17200   -940.83462     49.05713   -891.77749    1757.0485   -82.672689    2.1598146    12.471894   0.13051802 
   17300   -942.74465    46.218228   -896.52643    1655.3693    -8363.339    2.1482302    13.140259   0.14634146 
   17400   -935.94032    49.011049   -886.92927     1755.398    7316.3719    2.1670183    13.390031   0.14491227 
   17500   -939.73175    50.473827   -889.25792    1807.7895    8721.8681    2.1767224    13.799488    0.1301614 
   17600   -945.09115    47.802836   -897.28831    1712.1242    -10451.51    2.1460769    14.201728    0.1226573 
   17700   -933.92083    45.385634   -888.53519    1625.5488    893.62895    2.1515338     14.59586   0.13710444 
   17800   -939.64866    53.029378   -886.61928      1899.32    12347.677    2.1869562     14.12644   0.13355331 
   17900   -943.64305    48.643227   -894.99982     1742.224   -5712.3809    2.1550728    14.671582    0.1284909 
   18000   -939.47183    51.424146   -888.04768    1841.8264   -8209.3618    2.1342183    15.276611    0.1329162 
   18100   -937.25808    52.448961   -884.80912    1878.5316    7683.9381    2.1682928     14.16766    0.1324104 
   18200   -944.89986    51.484097   -893.41576    1843.9737    1083.2502    2.1746366     14.80672   0.13119689 
   18300   -940.29931    50.992456   -889.30686    1826.3648   -7804.7041    2.1391841    15.522409   0.15902899 
   18400   -934.99979    52.140078   -882.85971    1867.4685    2321.7904    2.1507511    18.391071   0.18372048 
   18500   -941.72623    50.203348   -891.52288    1798.1019    4504.7335    2.1821637    11.967476   0.16770056 
   18600   -938.66484    49.129916   -889.53492    1759.6554   -5146.6986    2.1429014    32.174549   0.12897181 
   18700   -938.52144    54.023167   -884.49828    1934.9139   -4333.3016    2.1426183    40.124393   0.13958522 
   18800   -945.44956    52.631987   -892.81757    1885.0869    3116.2119    2.1840878    39.310361   0.13360661 
   18900   -940.48806    49.461384   -891.02668    1771.5274    1191.6502    2.1616365    37.419754   0.12304023 
   19000   -940.29747    55.978032   -884.31944    2004.9301   -6522.8619    2.1370951    35.237624   0.14503053 
   19100   -944.44256    50.645224   -893.79733    1813.9283    4040.0779    2.1780923    37.092819   0.13532855 
   19200   -939.00277    47.906085   -891.09668    1715.8222    1514.7125    2.1637337    38.941788   0.14296873 
   19300     -936.071    50.199881   -885.87112    1797.9777   -4902.3586    2.1394126    35.188601   0.15984356 
   19400   -943.00276     47.28202   -895.72074    1693.4705    3521.2654    2.1775675    35.209908   0.13283666 
   19500   -939.06019      47.3324   -891.72779    1695.2749    3515.8686    2.1667458    36.933235   0.14268299 
   19600   -934.22538    47.297899   -886.92748    1694.0392   -1400.8562    2.1451532    38.422892   0.12946906 
   19700   -943.62792    47.982083   -895.64584    1718.5442   -626.40763    2.1694663    39.551281   0.12913325 
   19800   -941.16756    48.467952    -892.6996    1735.9463    2798.0701    2.1701064    35.727294   0.13233067 
   19900   -936.57513    49.899874   -886.67525    1787.2325   -949.33577    2.1462642    36.195792   0.14375191 
   20000   -943.16608    48.800304   -894.36578    1747.8499   -5931.5616    2.1507891    32.551199   0.14230743 
   20100   -941.17734    49.435139    -891.7422    1770.5874    5812.3127    2.1761002    36.942564   0.14465581 
   20200   -934.73766     49.76871   -884.96895    1782.5347    1566.7836    2.1472586      34.5193   0.14093638 
   20300   -941.84833    47.933433   -893.91489    1716.8018     -6352.74    2.1436186    35.729359   0.15025072 
   20400    -941.3791    49.621777   -891.75732    1777.2721       4138.1    2.1689949     36.78896   0.13175508 
   20500   -938.06253    54.785236   -883.27729    1962.2085    5189.8667    2.1631238    33.490712   0.13706701 
   20600   -941.98554    49.691162   -892.29438    1779.7572   -7064.0932    2.1443347    36.832513    0.1419526 
   20700    -940.0713    47.472384   -892.59891    1700.2886   -1235.6928    2.1569096    35.690148   0.13302499 
   20800   -937.98893    55.214221   -882.77471    1977.5732    7157.1663     2.168987    39.674193   0.14255311 
   20900   -940.41522    49.804538   -890.61068    1783.8179    530.71667    2.1567083    35.673396   0.15291625 
   21000   -943.24506    48.776818   -894.46824    1747.0087   -8113.0993    2.1406153    37.660805   0.14735727 
   21100   -942.39609    57.242144   -885.15395     2050.206    3592.8253     2.167904    37.920009    0.1391571 
   21200   -941.89697    51.987664   -889.90931    1862.0096      5975.51    2.1745943    39.947643   0.13842684 
   21300   -941.97394    45.667233   -896.30671    1635.6347    -7788.317    2.1417581      35.9115   0.13083387 
   21400   -941.64469    53.595919   -888.04877    1919.6115   -450.20538    2.1566555    35.812462   0.13633512 
   21500   -942.11446    53.734737   -888.37973    1924.5834    8296.5044    2.1811768    39.215893    0.1272205 
   21600   -944.56321    47.331956   -897.23125     1695.259   -5170.4565    2.1591813    33.653348   0.14410729 
   21700   -940.27208    51.076048   -889.19603    1829.3588   -5082.4301    2.1470049    40.243818   0.13544529 
   21800   -941.79863    54.723852   -887.07477    1960.0099    4901.8212    2.1701747    38.548259   0.13235592 
   21900   -942.26601     46.00797   -896.25804    1647.8386    2260.2572    2.1710126    34.868617   0.13998392 
   22000   -940.11045    51.454305   -888.65615    1842.9066   -3750.9594    2.1481642    35.275185   0.12769275 
   22100   -938.53058    51.497299   -887.03328    1844.4465    2413.8224    2.1631731    44.897001   0.13799667 
   22200   -943.40857    49.700084   -893.70849    1780.0768    2757.6794    2.1743372    45.084147   0.12729811 
   22300   -935.29951    50.290393   -885.00911    1801.2195   -4025.6314    2.1436773    41.560244    0.1321947 
   22400   -935.63069    49.486377   -886.14432    1772.4226   -3018.4476    2.1474651    48.449442   0.15969641 
   22500    -941.2968     49.49801   -891.79879    1772.8392    4569.4423      2.17088    44.767889   0.13758809 
   22600   -939.21574    52.096374   -887.11936    1865.9032    4411.9458    2.1671966    36.732338   0.12662164 
   22700   -934.12852    51.395305   -882.73321    1840.7935   -7192.0909    2.1269345    50.549422   0.18782213 
   22800   -936.40762    45.168463   -891.23916    1617.7705    4801.7387    2.1729141    65.425512   0.18423693 
   22900   -935.20492     48.29428   -886.91064     1729.726    10984.395    2.1833734    57.502608   0.17438625 
   23000   -932.93181    48.803589   -884.12822    1747.9676   -15680.436    2.1114438    64.068126   0.17907723 
   23100   -942.05093    46.711855   -895.33908    1673.0493    941.35306    2.1692264    63.723803   0.17087266 
   23200   -944.45961    55.157806    -889.3018    1975.5526    15220.111    2.2084155    66.678629   0.17005442 
   23300   -932.91789    47.500403   -885.41749    1701.2922   -3970.8179    2.1368448     51.06913   0.17967924 
   23400   -937.33484    52.297777   -885.03706    1873.1167    -9602.685    2.1374198    60.655105   0.20601492 
   23500   -939.02106    46.983084   -892.03797    1682.7637    10591.155    2.1946577    70.041432   0.15521823 
   23600   -935.17123    51.711774   -883.45946    1852.1282    3004.0292    2.1560909    59.688106   0.18071332 
   23700   -937.95715    52.420192   -885.53696    1877.5012   -10878.336    2.1384987    63.822295   0.20425785 
   23800   -942.86789    51.900254   -890.96763    1858.8789   -902.82749    2.1673863    48.091958   0.17489712 
   23900   -937.27755    51.592796   -885.68475    1847.8669    4694.1517    2.1740833    55.215006   0.18983275 
   24000   -931.70538     49.14411   -882.56127    1760.1638   -2999.2429    2.1366701    59.161733   0.25554427 
   24100   -940.84162    50.193462   -890.64816    1797.7478   -3090.0259    2.1569544    44.557871    0.1461346 
   24200   -935.11788    46.770029   -888.34785    1675.1328    10401.347    2.1809189    44.642056   0.18174765 
   24300   -932.08888    51.976957   -880.11192    1861.6261   -2978.0891    2.1375336    58.401705   0.16030822 
   24400   -942.09208    52.620171   -889.47191    1884.6637   -7282.3394    2.1457992    65.106191   0.15636274 
   24500    -941.3246     51.01746   -890.30714    1827.2604    3129.4716    2.1703308    75.503954   0.15460382 
   24600   -938.78386    51.396362    -887.3875    1840.8313    4781.4953    2.1628593    73.494401   0.17258536 
   24700    -929.3379    48.813477   -880.52442    1748.3217   -5830.7259    2.1244752    67.618366   0.18410698 
   24800   -941.91858    50.555785   -891.36279    1810.7249    2449.2491    2.1686112    72.914451   0.18411713 
   24900   -944.49078    54.603289   -889.88749    1955.6918    1815.8425    2.1696157    70.239126   0.15716244 
   25000   -940.37012    51.443741   -888.92638    1842.5282   -7207.3106     2.139736    72.558227   0.15032612 
   25100   -937.76633    51.892521   -885.87381    1858.6019     2770.296    2.1591659    76.665918   0.15389686 
   25200   -932.08678    58.443663   -873.64312      2093.24    4944.2932    2.1543859    76.990186   0.16858284 
   25300   -936.33824    52.408115   -883.93012    1877.0686   -1497.7082    2.1485988    77.571322   0.15456996 
   25400   -938.65056    50.031834   -888.61873    1791.9589   -6396.6476    2.1423428    79.209672   0.16783392 
   25500   -939.14053    48.946974   -890.19355    1753.1031    6465.6078    2.1736101    72.099587   0.16035074 
   25600   -948.89356    52.168699   -896.72487    1868.4936    -1436.354    2.1722985    74.110445   0.13859212 
   25700   -942.26625    49.615265   -892.65099    1777.0389   -7242.5428    2.1431583     67.25128   0.15956161 
   25800   -941.98612    54.233447   -887.75268    1942.4454    31.229706    2.1626747    71.227579   0.14600708 
   25900   -939.55825    51.119115   -888.43913    1830.9013    2280.1535    2.1606518    72.479427   0.16087305 
   26000   -941.40879    49.109331   -892.29946    1758.9182   -6009.9645     2.145936    72.055337   0.16244165 
   26100   -941.25638    44.500355   -896.75603    1593.8414     6824.627    2.1840528    95.855976   0.14837427 
   26200   -940.36169    54.640773   -885.72091    1957.0343   -3012.7706    2.1565906    93.643344   0.16185116 
   26300   -935.19471    47.790702     -887.404    1711.6896   -4364.7708    2.1386322    97.029888   0.17202408 
   26400   -939.78589    49.077896   -890.70799    1757.7923    3958.8676    2.1694683    99.412159   0.17582138 
   26500   -944.89072    50.998372   -893.89235    1826.5767    9092.8774    2.1870933    104.57699    0.1702193 
   26600    -931.6696    48.933862   -882.73574    1752.6335   -10648.543    2.1196658    100.97573   0.17092029 
   26700   -936.09813    47.109499   -888.98863    1687.2914    2842.2057    2.1607454     102.8308   0.18754073 
   26800    -940.5189    50.630225   -889.88867    1813.3911    13367.089    2.1920295    104.31802   0.15364188 
   26900   -939.42684    56.022022   -883.40482    2006.5057   -8385.2356    2.1256971    87.049276   0.15707576 
   27000   -935.69185    51.983881   -883.70797    1861.8741   -5143.1536    2.1401958    107.78309   0.20922495 
   27100    -943.1757    53.095492   -890.08021     1901.688    8530.5271    2.1890512    122.18963   0.15530502 
   27200      -944.01    54.206259   -889.80374    1941.4716   -7231.4743    2.1501505    143.72474   0.16925173 
   27300   -933.64005    51.519818   -882.12023    1845.2531    -11712.86    2.1185476    118.38226   0.18948837 
   27400   -939.70993    47.338533    -892.3714    1695.4946    15400.572    2.1954822    124.85583   0.17621562 
   27500   -941.61052    51.643423   -889.96709    1849.6801     10.87853    2.1628014    190.43479   0.16081708 
   27600    -938.3065    51.792697    -886.5138    1855.0266   -8764.3009    2.1306881    169.61794   0.16258263 
   27700   -940.76355    46.721987   -894.04156    1673.4121    4988.1259    2.1746781    183.32566   0.15505424 
   27800   -942.69107    49.349043   -893.34202    1767.5037    5151.3847    2.1748175    170.48703   0.15425724 
   27900   -934.83675    48.052407   -886.78434    1721.0629   -1228.7337    2.1443347    150.71168   0.17660741 
   28000   -941.90581    50.604761   -891.30105     1812.479   -1846.4611    2.1602352    156.72875   0.16747174 
   28100   -944.25407    49.408602   -894.84547    1769.6369    5718.0351    2.1833384    158.96997   0.15601257 
   28200   -938.65612    53.353363   -885.30276     1910.924   -6618.5504    2.1438057    160.83361    0.1884526 
   28300   -941.93461    51.706181   -890.22843    1851.9279   -5241.3538    2.1505564    154.24025   0.16782953 
   28400   -942.78472    50.207767   -892.57696    1798.2601    4162.0169    2.1750705    160.62929   0.15502727 
   28500   -936.34668    54.464291   -881.88239    1950.7134    2536.9366     2.149666    159.03958   0.15983842 
   28600   -941.32976     53.30223   -888.02753    1909.0926   -3887.1009    2.1472688    155.64394   0.16749669 
   28700   -943.71723    51.367278   -892.34995    1839.7896   -1900.6597    2.1613435    159.47215   0.16221126 
   28800    -940.7601    56.093121   -884.66698    2009.0522    8217.2342    2.1769669    154.88868   0.17025438 
   28900   -938.21599    52.415529   -885.80046    1877.3342   -4733.4275    2.1418209    165.45695   0.19766725 
   29000   -942.74614    48.723471   -894.02267     1745.098   -8835.2326    2.1482663    155.07953   0.16331188 
   29100   -939.35394    52.823427   -886.53051    1891.9436    10636.577     2.188397    145.56704   0.16389968 
   29200   -935.83786    47.697828   -888.14003    1708.3632    2334.7352    2.1603415    146.82589   0.16763175 
   29300   -945.93905    47.948918   -897.99013    1717.3563   -12637.917    2.1471975    160.70873    0.1458091 
   29400   -938.72624    47.912519   -890.81372    1716.0527    3876.5702     2.172678     167.5379   0.17714831 
   29500   -937.89959    51.611723   -886.28787    1848.5447    6119.6636    2.1726258    161.88007   0.17859009 
   29600   -940.77298    48.696313   -892.07667    1744.1253   -8595.8917    2.1427339    169.81554   0.16527001 
   29700   -941.06782    45.724663   -895.34316    1637.6916    3499.3219    2.1702534    164.16287   0.14543564 
   29800   -938.78109    53.039906   -885.74118    1899.6971    4279.0719    2.1691638    169.86794   0.16520434 
   29900   -940.37337     51.43386   -888.93951    1842.1743   -2812.4352    2.1528644     176.4734   0.15184487 
   30000   -940.57505    46.425809   -894.14924    1662.8041   -2437.0016    2.1554934    149.77003   0.17433857 
   30100   -944.37009       48.399   -895.97109    1733.4766    7357.6714    2.1851315    147.12719   0.15250712 
   30200   -940.11676    53.521201   -886.59556    1916.9353   -2247.2026    2.1482423    157.65927   0.16690526 
   30300   -938.13504    48.783255   -889.35179    1747.2393   -3079.5064    2.1478715    142.94167   0.14579668 
   30400   -942.01111     52.11279   -889.89832    1866.4912    3393.8492    2.1680137    159.30972   0.15372701 
   30500   -932.90739    54.227791    -878.6796    1942.2428    1401.8042    2.1458125    155.81329   0.18112173 
   30600   -936.44186    53.091917   -883.34994    1901.5599   -1060.0787    2.1450936    153.88297   0.16339148 
   30700   -939.19654    49.713496   -889.48305    1780.5571     -238.351    2.1565674    163.18705   0.16132464 
   30800   -941.51362    51.369584   -890.14403    1839.8722    3661.3945    2.1657874     159.6929   0.16552757 
   30900   -936.50265    45.835407   -890.66724    1641.6581    2050.4251     2.158493    153.88692    0.1660006 
   31000   -931.01478    52.600993   -878.41379    1883.9768   -4423.1573    2.1322328    160.98398   0.19106371 
   31100   -930.96243    46.563728    -884.3987    1667.7439    10677.114    2.1695638    155.54534   0.18739675 
   31200   -939.52508    50.892483    -888.6326    1822.7842   -2822.0732    2.1523895    156.13356   0.16258432 
   31300   -939.87525    47.013654   -892.86159    1683.8586   -5170.4388    2.1466321    157.91219   0.16585485 
   31400    -941.3231    52.780146   -888.54295    1890.3934    5938.9781     2.178817    164.06014   0.16477831 
   31500   -932.64625     49.97676   -882.66949    1789.9863    1456.4284     2.150065    166.24308   0.17944896 
   31600    -941.4758    50.993113   -890.48269    1826.3884   -11617.266    2.1295111     160.6918   0.16350161 
   31700    -941.2633    51.583284   -889.68002    1847.5262    6275.5453    2.1771486    149.47989   0.18623831 
   31800   -933.97375    51.705549    -882.2682    1851.9053    9183.1335    2.1697035    169.54663   0.16076009 
   31900   -937.75196    54.288153   -883.46381    1944.4048   -16832.615    2.1121607    157.63975   0.16493396 
   32000   -943.28028    51.099121   -892.18116    1830.1852   -2291.4927    2.1577146    155.51922   0.16896799 
   32100    -940.5761     52.69651   -887.87959    1887.3979    12949.658    2.1829964    155.48261    0.1464371 
   32200    -938.9926    54.554002    -884.4386    1953.9265   -5042.1923    2.1337524     155.9417   0.17129358 
   32300   -940.77602    45.332884   -895.44313    1623.6595    1725.4409    2.1622442     164.2598   0.17355088 
   32400   -939.07523    47.881508   -891.19373     1714.942    2836.8466    2.1605419    154.57471   0.16729637 
   32500   -940.73819    54.331221   -886.40697    1945.9473   -2186.1804    2.1512753    154.85563   0.16077474 
   32600   -941.43537    50.556573    -890.8788    1810.7531   -2603.1226    2.1489309    147.94168   0.15375891 
   32700    -944.0099    49.506212   -894.50369     1773.133    2926.3161    2.1719432    160.20336   0.16503423 
   32800   -938.21774    51.054696   -887.16305    1828.5941    1949.2183    2.1599203    162.14615   0.16894936 
   32900   -939.10291    49.941013   -889.16189     1788.706   -4508.4753    2.1453584    154.69783   0.17522533 
   33000   -943.81267     46.71831   -897.09436    1673.2805    2688.2113    2.1707865    165.02032   0.15057138 
   33100   -935.72813    48.663201   -887.06493    1742.9394    2923.4919     2.156947    157.45827   0.16383519 
   33200   -937.71955    49.116258    -888.6033    1759.1662   -2575.1573    2.1470166    158.26279   0.19364841 
   33300   -939.73354    44.578498   -895.15505    1596.6401   -557.47585    2.1616193    156.70859   0.18305355 
   33400   -937.61215    48.770055   -888.84209    1746.7665    9113.3969    2.1772751    140.81955   0.16498821 
   33500   -936.06065    50.065399   -885.99526     1793.161    1487.0107    2.1488374    144.33152   0.17427841 
   33600   -944.57112    51.804318   -892.76681    1855.4428    -12339.75     2.136845    138.51118   0.14544469 
   33700   -942.61739    52.162733   -890.45466    1868.2799    6654.9005    2.1833257    137.29966     0.128109 
   33800   -935.96786    55.083917   -880.88395    1972.9061    1883.6236    2.1553358    150.19414   0.14196278 
   33900   -939.44007    49.151083   -890.28899    1760.4135   -10037.535    2.1346327     144.6616   0.15484439 
   34000   -938.94156    48.997892   -889.94367    1754.9268     3922.267    2.1621429    135.30832   0.13922555 
   34100   -932.89219    50.289715   -882.60247    1801.1952    12215.123    2.1713212    143.60261   0.15730255 
   34200   -935.92624    48.871488   -887.05475    1750.3995   -6439.0409    2.1341508    139.14777   0.13882787 
   34300   -941.81871    48.248684   -893.57003    1728.0929   -5516.5614    2.1494498    141.41051   0.13077032 
   34400    -937.1098    49.790238   -887.31957    1783.3058    14781.906    2.1861762    142.79161   0.13636473 
   34500   -940.19092    50.946872   -889.24405    1824.7322   -3551.3351    2.1493519    143.53539   0.13839479 
   34600   -943.08848    45.028779    -898.0597    1612.7676   -5021.1512    2.1588397    143.22164   0.12815869 
   34700   -939.05757    48.836961   -890.22061    1749.1628    4209.4102    2.1672902    138.14961   0.13975265 
   34800    -936.5743    48.213092   -888.36121    1726.8181     3089.381    2.1601025    135.13816   0.13629105 
   34900   -942.25935    45.140368   -897.11898    1616.7643   -3834.7308    2.1573418    141.53449   0.14084669 
   35000   -942.30403    48.711632   -893.59239     1744.674    2657.7127    2.1664863    141.04985   0.13808474 
   35100   -939.25064    51.725171   -887.52547     1852.608    2740.9805    2.1626682    144.10988   0.13454068 
   35200   -937.58314    44.373354   -893.20979    1589.2926   -1519.7015    2.1505539    139.53065   0.12888725 
   35300   -944.65785    48.493342    -896.1645    1736.8556   -1260.6522    2.1644888    144.05949   0.12621468 
   35400   -936.87783    51.060647   -885.81718    1828.8072    2897.5092    2.1531721    140.08905   0.12837367 
   35500   -939.54391    49.417723   -890.12619    1769.9636    2397.3863    2.1583392    146.81298   0.15312422 
   35600   -944.59418    50.299996   -894.29418    1801.5634   -2866.9203    2.1608264    145.88806   0.13371353 
   35700   -937.80162    53.260214   -884.54141    1907.5877    1489.3517    2.1542881    142.71724   0.15207671 
   35800   -936.45942    49.796517    -886.6629    1783.5307     6942.497    2.1647601    140.29687   0.13333949 
   35900     -941.793    49.080624   -892.71238      1757.89   -9384.3173    2.1380021    138.32594   0.11963982 
   36000   -940.99472    52.928391   -888.06633     1895.703   -1746.7937    2.1555797    142.67838   0.15457522 
   36100   -932.25327    52.843585   -879.40969    1892.6656     11225.64    2.1686879    155.02639   0.15648077 
   36200   -935.44884    45.598849   -889.84999    1633.1854   -3258.9541    2.1406695     201.5924   0.17175231 
   36300     -940.336     49.30066   -891.03534    1765.7709   -13342.988    2.1300087    203.82072   0.18373153 
   36400   -939.78991    55.595287   -884.19462    1991.2216    11096.178    2.1823835    198.08705   0.14209565 
   36500   -938.62474    53.777817   -884.84693    1926.1264   -2931.4989    2.1465959    194.94021     0.151588 
   36600   -943.08744     49.76783   -893.31961    1782.5032   -11096.857    2.1408796    187.87086   0.15914093 
   36700   -939.10877    50.728017   -888.38075    1816.8936    8946.7363    2.1764624    197.93139   0.15466323 
   36800   -941.39991    53.723237   -887.67667    1924.1715   -176.42453    2.1622156     181.8254   0.17693661 
   36900   -934.82877    46.305789   -888.52298    1658.5054   -7008.5371    2.1341832    206.13012   0.18066164 
   37000   -945.38232    48.023615   -897.35871    1720.0317    6839.5513    2.1873494    191.34842   0.17277452 
   37100   -942.21412     51.20742    -891.0067    1834.0641    3594.9916     2.171461    185.27593   0.15622225 
   37200   -941.07375     52.36115    -888.7126    1875.3865   -9184.8051    2.1392343     216.3144    0.1714529 
   37300   -935.78802    52.327397   -883.46062    1874.1776    2646.1158    2.1570859    169.56611   0.18226622 
   37400    -941.6229    49.655865   -891.96703     1778.493    2498.1205    2.1695764    184.00488   0.16054464 
   37500   -939.63274    47.256362   -892.37637    1692.5515   -4033.1188    2.1468278    199.80145    0.1463153 
   37600   -941.69761     53.13342   -888.56419    1903.0464   -836.09629     2.159804    168.36374   0.16347262 
   37700   -932.20087    46.552645   -885.64823    1667.3469    6238.5812    2.1599719    188.76834   0.17216861 
   37800   -942.67705    46.229678   -896.44737    1655.7794   -2971.8717    2.1575799    197.90481   0.17164144 
   37900   -942.49995    49.601999   -892.89795    1776.5637   -4541.2611    2.1523502     190.8337   0.15157683 
   38000   -940.41892     53.19194   -887.22698    1905.1424    5466.0909    2.1721354    181.55037   0.17642392 
   38100   -943.18796    51.124333   -892.06363    1831.0882   -622.90291    2.1654322     228.6884   0.16155236 
   38200   -942.94796    45.660092   -897.28787    1635.3789   -4108.1808     2.160739    167.37064    0.1628463 
   38300   -938.95364    51.586371   -887.36727    1847.6367   -3309.0991    2.1526881    216.21161   0.18103774 
   38400   -941.63048    52.846204   -888.78427    1892.7594    4580.6867     2.171616    196.42151    0.1690735 
   38500   -944.35101    48.826015     -895.525    1748.7708   -3955.3815    2.1572887     228.3356    0.1522514 
   38600   -935.21208    48.776854   -886.43523      1747.01   -2565.1101    2.1429953     238.1361   0.16795157 
   38700   -937.27464    51.812013   -885.46263    1855.7184    14649.138    2.1889549    190.67943   0.15581237 
   38800   -941.00412    48.834727   -892.16939    1749.0828   -6266.6083    2.1438082    202.42666   0.15856304 
   38900   -934.53359    46.469265   -888.06432    1664.3606   -8610.2983    2.1285518    184.46324   0.18169128 
   39000   -931.43416    52.454879   -878.97928    1878.7435    11575.888    2.1718064    166.69133   0.17505927 
   39100   -937.72348    48.878527   -888.84496    1750.6516    4275.1679    2.1649134    166.08779   0.14699923 
   39200   -942.23249    50.270276   -891.96221     1800.499   -11093.476    2.1379796    160.25394   0.13009554 
   39300     -937.969    52.317086   -885.65192    1873.8083    3979.9341     2.167646    167.80588   0.15859004 
   39400   -935.21785    52.841592   -882.37626    1892.5942    3801.9038    2.1597198    172.10818   0.15158824 
   39500    -938.1214    46.381529   -891.73987    1661.2182   -5054.3518    2.1483424    163.79177   0.16812124 
   39600   -939.60258    49.297987    -890.3046    1765.6751    4574.1553    2.1677498    159.29969   0.14718807 
   39700   -941.25255    55.786765   -885.46578    1998.0796    4555.1966    2.1705862    159.20083   0.12781195 
   39800   -933.59167    52.201814   -881.38985    1869.6797   -7795.5901    2.1275942    159.65985   0.15025571 
   39900   -937.10769    45.114017   -891.99367    1615.8205    4669.0138    2.1728631    165.24905   0.14403592 
   40000   -937.81491    48.539178   -889.27574    1738.4973    11539.115    2.1860928    167.35757   0.14510759 
   40100   -936.16879    46.400128   -889.76867    1661.8843    -7444.446    2.1405727      175.122   0.13570228 
   40200   -945.70107    44.974999   -900.72607    1610.8414   -4796.4817    2.1688934    167.72387    0.1425036 
   40300    -943.6616    49.243681   -894.41792    1763.7301    7671.0564    2.1906154    171.12668    0.1370713 
   40400   -939.05221    49.593693   -889.45851    1776.2662    212.61882    2.1605958    172.40297   0.15648963 
   40500   -938.52016    48.634787   -889.88537    1741.9217   -10283.234    2.1327002    167.82801   0.15671005 
   40600   -948.95542    49.218339   -899.73708    1762.8224     7710.699    2.2021986    160.18274    0.1342846 
   40700   -943.47884    50.780836     -892.698    1818.7854    8409.4846     2.187917    165.22843   0.13075727 
   40800   -940.84663    50.962425    -889.8842    1825.2893   -21167.659    2.1061584    178.85878   0.14341602 
   40900   -943.04983    53.898216   -889.15161    1930.4386   -298.06469     2.171276    165.45069   0.16124933 
   41000   -940.20515    46.513136   -893.69202    1665.9318    18412.263    2.2107643    164.71086   0.15285621 
   41100   -938.28425    53.607821   -884.67643    1920.0377   -8804.3761    2.1285815     167.1816   0.16841457 
   41200   -936.61529    50.572687   -886.04261    1811.3302   -1830.4173    2.1476485    169.32699   0.16489694 
   41300    -940.8079    50.656924   -890.15097    1814.3473    6830.9398    2.1813696    167.47871   0.14979303 
   41400   -941.10438    47.043076    -894.0613    1684.9124   -1722.8131    2.1593978    169.22959   0.14950034 
   41500   -935.58699    52.143346   -883.44364    1867.5855   -4608.8448    2.1364288    167.84684    0.1611544 
   41600   -938.02329    49.865567   -888.15773    1786.0038     8668.412    2.1788257    157.56026   0.14888276 
   41700   -943.76803    51.215595   -892.55244    1834.3569   -3304.3236    2.1584769    164.20463   0.14767151 
   41800   -939.09047    51.578644   -887.51183      1847.36   -6663.3555    2.1403195    167.35001   0.15290026 
   41900   -934.13467    52.983845   -881.15083    1897.6892    3198.8489    2.1585888    165.72463   0.15966388 
   42000   -942.91955    51.348243   -891.57131    1839.1079    4485.9972      2.17317    165.76575   0.13487683 
   42100     -940.273    49.349758   -890.92324    1767.5294   -8118.6305    2.1401726    162.42655   0.15564321 
   42200   -935.80522    50.895787   -884.90943    1822.9025   -817.66976    2.1525149    161.15266   0.16409456 
   42300    -947.1283     52.01853   -895.10977    1863.1151    8344.6127    2.1942366    169.35101   0.12038073 
   42400   -944.49422    51.305753   -893.18847     1837.586   -15024.801    2.1339519    164.83842   0.13727912 
   42500   -940.64144    51.308456   -889.33298    1837.6828   -4794.7331    2.1502352    162.38082   0.14293093 
   42600    -940.4204    52.290307   -888.13009    1872.8492    18154.181    2.2015992    164.05504   0.12811129 
   42700    -943.7584    45.038086   -898.72031    1613.1009    -7430.519    2.1508179    171.74995   0.14416204 
   42800   -938.16166    45.426523   -892.73514    1627.0133    -11289.18     2.131966    172.96641   0.13608531 
   42900   -940.12866    53.221387   -886.90727    1906.1971    10015.032    2.1845991    166.00047   0.14812295 
   43000   -939.12846    46.294516   -892.83394    1658.1017    2369.7778     2.167574    165.47446    0.1347431 
   43100   -939.88289    45.231912   -894.65098     1620.043   -3446.3869    2.1521764    166.24272   0.12795086 
   43200   -938.07488    53.378402   -884.69647    1911.8208   -1553.5384    2.1513555    168.27715   0.13706738 
   43300   -940.71204    51.458291   -889.25375    1843.0494    5861.8776    2.1750917    159.05426   0.13886464 
   43400   -944.98374     51.49646   -893.48728    1844.4165   -6267.4219    2.1575047    164.52363   0.12765331 
   43500   -936.49414    52.769837    -883.7243    1890.0242   -3037.1663    2.1430566    170.56111   0.14046728 
   43600   -940.57417    53.190666    -887.3835    1905.0967     5843.226    2.1753764    160.57767   0.14113788 
   43700   -939.19815    46.536404   -892.66174    1666.7652   -1471.3132    2.1560917    152.91944   0.14493705 
   43800   -942.90409    54.625735   -888.27836    1956.4957   -6027.3152    2.1510733    163.50191   0.15056835 
   43900   -936.56544    55.683169   -880.88227    1994.3692    6752.7067    2.1656856    171.99373   0.16335659 
   44000   -938.52325    46.521405   -892.00184     1666.228    3445.6967    2.1694312    162.85274   0.15558245 
   44100   -936.41881    45.004968   -891.41384    1611.9148   -6078.0406    2.1382834    168.01359   0.15312292 
   44200   -941.15088    55.354813   -885.79606    1982.6087     1699.738    2.1661517    169.98875   0.15016103 
   44300   -945.49425    50.596184   -894.89807    1812.1718    7447.4535    2.1871952    159.65282   0.13458719 
   44400   -939.14991    44.901564   -894.24834    1608.2112   -10664.147    2.1358674    166.91639    0.1530698 
   44500    -940.4793    51.608708   -888.87059    1848.4367    187.76664    2.1584877    163.30984   0.17035492 
   44600   -939.18473    49.927423   -889.25731    1788.2192    11241.382    2.1871865    164.63559   0.14089237 
   44700   -944.55569    45.608574   -898.94712    1633.5337   -5615.0498    2.1573389    173.10354   0.14098721 
   44800   -937.99865    47.186105   -890.81255    1690.0352   -5059.9125    2.1441905    164.24822   0.15994844 
   44900   -933.06916    46.064598   -887.00456    1649.8668    10977.932    2.1790837     172.5937   0.15828227 
   45000   -943.33713    48.788615   -894.54852    1747.4313    -897.1001    2.1660278    166.58231   0.16200204 
   45100   -940.99145    50.822701   -890.16875    1820.2848   -4816.1395    2.1521035    169.25024   0.15460055 
   45200   -934.49017     48.87093   -885.61924    1750.3795      973.253    2.1539528    163.21332   0.15650956 
   45300   -941.22336    49.066112   -892.15725    1757.3702    2397.9712    2.1672547    161.67716   0.14939573 
   45400   -943.30553    51.073271   -892.23225    1829.2594   -624.54233    2.1658109     167.6157   0.15254914 
   45500   -937.00348    53.985064   -883.01842    1933.5492   -4177.4846    2.1367667    175.29429   0.13516713 
   45600   -940.36775    48.721278   -891.64647    1745.0195    4476.0767    2.1703844    166.63293   0.14633313 
   45700   -940.21442    48.546239   -891.66818    1738.7502    4848.7368    2.1694467    160.71677   0.13606596 
   45800   -935.57135    52.314188   -883.25716    1873.7045   -3966.9889     2.138342    164.57114   0.12275358 
   45900   -941.63527    50.105019   -891.53025    1794.5801   -38.803654    2.1631664    161.05155   0.12994988 
   46000   -940.15062    47.922623     -892.228    1716.4146    4182.3638    2.1685568    156.63047   0.13514778 
   46100   -939.45906    52.902745   -886.55631    1894.7845   -2656.8983     2.153528    167.10627   0.14368673 
   46200    -934.7254    46.861423   -887.86398    1678.4062   -2150.1024    2.1487268    162.41779   0.16237718 
   46300   -941.77266    47.211975   -894.56069    1690.9617    6546.5922    2.1869597    167.91545   0.13283583 
   46400    -934.1268    46.849375   -887.27742    1677.9747    4923.0218    2.1613464    166.29273    0.1450951 
   46500   -938.04922    49.518403   -888.53082    1773.5696   -9139.5703    2.1308329    171.91024   0.14074906 
   46600   -944.12331    48.003601   -896.11971    1719.3149    6088.5021    2.1882284    167.45537    0.1445542 
   46700   -940.80047    52.572501   -888.22797    1882.9563    4393.5722    2.1782891    152.62203   0.15841554 
   46800    -936.4171     48.59595   -887.82115    1740.5307   -8414.6184    2.1285961    159.33511   0.16990481 
   46900   -938.52778      47.8123   -890.71548    1712.4632    206.49725    2.1571951     152.3879   0.16246525 
   47000   -939.83096    47.511597   -892.31936    1701.6931    13139.182    2.1951304    157.17363   0.14072548 
   47100   -937.21869    55.495112   -881.72358    1987.6337   -6907.3051    2.1268065    183.19954   0.16217138 
   47200   -941.69168     52.91252   -888.77916    1895.1346   -5535.3287    2.1482008    183.33681   0.14654928 
   47300   -939.63008     48.41168    -891.2184    1733.9308    6839.0296     2.179763    182.87866   0.14640875 
   47400    -942.2667    51.273374   -890.99332    1836.4263   -1226.1851     2.162299     190.0547   0.16028762 
   47500   -939.30264    57.524562   -881.77808    2060.3212   -11648.427    2.1214831    181.04087   0.15214734 
   47600   -940.50515       49.456   -891.04915    1771.3346    7231.5355    2.1780279    180.35226   0.13427659 
   47700   -940.08068    48.584977   -891.49571    1740.1377    2476.0215     2.169587    191.31986   0.15958419 
   47800   -935.04629    50.858522   -884.18776    1821.5678   -3648.6863    2.1364224    187.95561   0.14495389 
   47900   -942.87553    53.250417   -889.62511    1907.2368   -1860.3882     2.156043    179.71074   0.12118917 
   48000     -946.612    53.655339   -892.95666    1921.7397   -1661.2441    2.1681281    183.84942   0.13514614 
   48100   -937.63868    48.867928   -888.77075     1750.272     269.5035    2.1536618    183.06514    0.1551709 
   48200   -935.57268    51.444619   -884.12806    1842.5597   -2430.2142    2.1420275    181.20376   0.14910062 
   48300   -943.58223    48.218906   -895.36332    1727.0264    4082.8887    2.1762396      177.215   0.14556971 
   48400   -944.37943    52.469589   -891.90984    1879.2704   -4920.2663    2.1509261    184.81477   0.13324385 
   48500   -936.45325    48.565361   -887.88789    1739.4351   -1174.1992    2.1452563    184.22127   0.15871348 
   48600   -941.84804    49.500624   -892.34742    1772.9328    5455.9293    2.1737521    181.15634   0.13243936 
   48700    -941.2793    44.855612   -896.42369    1606.5654    4172.9907    2.1706152    172.86702    0.1289773 
   48800   -942.15495    52.298938   -889.85601    1873.1583   -6772.4722    2.1440638    189.07861   0.13079422 
   48900   -937.61989    49.122759   -888.49713    1759.3991    3569.9655    2.1618329    189.15393   0.14612064 
   49000   -945.99574    48.382937   -897.61281    1732.9013    6791.7503    2.1919359    176.68025   0.14014935 
   49100   -940.33439    50.523731   -889.81066    1809.5768   -10023.509    2.1334214    188.47879   0.15926365 
   49200   -941.99396    53.388343   -888.60561    1912.1768   -831.43118    2.1607619    178.70294   0.14939684 
   49300   -942.10632    50.779227   -891.32709    1818.7277    10002.208    2.1851432    180.47516   0.13707034 
   49400   -947.05947    48.393883   -898.66559    1733.2934   -10705.401    2.1506141    177.98027    0.1387836 
   49500   -939.63826    48.809236   -890.82903    1748.1698   -2270.2652    2.1534861    185.06043   0.13447887 
   49600   -944.00331    56.347478   -887.65583    2018.1623    9319.9112    2.1906969    172.77788   0.14141797 
   49700   -937.28174     46.10624    -891.1755    1651.3583    -4720.077    2.1432973    179.34075   0.13643866 
   49800   -935.00605    47.696285   -887.30977     1708.308   -4146.0558     2.141542     185.3993   0.14672035 
   49900   -934.13313    55.236527    -878.8966    1978.3721    6836.1484    2.1617867     176.2013   0.14696833 
   50000   -944.51408     55.89122   -888.62286    2001.8208   -578.31769     2.164246    191.83083   0.13967444 
   50100   -939.30266    47.709356   -891.59331    1708.7761   -4366.2722    2.1482371    179.61054   0.14331513 
   50200   -938.89569    50.416173   -888.47952    1805.7245    2247.7279    2.1621377     185.3301   0.14534377 
   50300   -934.93127    55.130113   -879.80116    1974.5607   -1560.5986    2.1419482     181.2734   0.14404261 
   50400   -941.01738    50.663156   -890.35422    1814.5705   -754.17525    2.1580547    185.11633   0.14587782 
   50500   -940.35773    49.476073   -890.88166    1772.0535    589.63257    2.1602276    182.61378   0.13696984 
   50600    -939.2621    51.426787   -887.83532     1841.921     1083.811    2.1604216    189.45938   0.13239303 
   50700   -935.43642     56.05376   -879.38266    2007.6424   -5472.5532    2.1317296    196.30312   0.14236789 
   50800   -940.31127    50.586843   -889.72443    1811.8373    4113.1873    2.1688511    172.11446   0.15784287 
   50900   -939.46103    50.296779   -889.16425    1801.4482    2772.9512    2.1609131    151.59999    0.1733216 
   51000   -937.58066    50.090607   -887.49006    1794.0639   -6968.4775     2.133557    163.83366   0.17346999 
   51100   -942.72097     44.59223   -898.12874     1597.132    1112.8409     2.171512     146.3908   0.15512067 
   51200   -943.57965    49.923669   -893.65598    1788.0848    4076.6277    2.1720009    145.16525   0.17076035 
   51300   -941.13359    51.979272   -889.15432     1861.709   -2958.2786    2.1527352    154.40464   0.13812298 
   51400   -939.07373    48.843534   -890.23019    1749.3983   -5747.3292    2.1441356    156.70438   0.15191904 
   51500   -941.59923    42.760443   -898.83879     1531.524    10420.407    2.1905515    152.39184    0.1215946 
   51600   -939.07548    49.874024   -889.20145    1786.3067   -1477.0024    2.1548149     155.9435   0.12356777 
   51700   -940.06215    50.475918   -889.58624    1807.8643    -5908.277    2.1428428    155.25046   0.14689042 
   51800   -943.25547    50.745874    -892.5096    1817.5332    5902.9002    2.1743747    164.45674   0.12775013 
   51900   -943.59641    43.838051   -899.75836      1570.12    5964.7936    2.1832614    159.84467   0.15484708 
   52000   -938.56549    49.769956   -888.79554    1782.5793   -11330.388    2.1289902    158.80201   0.16424878 
   52100   -942.94264    53.152417   -889.79022    1903.7268    3104.3661    2.1704578     154.2376   0.15478894 
   52200   -940.87367     48.15881   -892.71486    1724.8739    9252.5971    2.1837223    160.34617   0.13451429 
   52300   -937.72246    56.194312   -881.52815    2012.6765   -10244.063    2.1248232    168.63202   0.14927413 
   52400    -941.7682    55.025475   -886.74272     1970.813   -1443.1814     2.159499    164.81878   0.12852207 
   52500   -942.78628    51.953263   -890.83301    1860.7775    2436.8654     2.170121    155.65143   0.12116147 
   52600   -941.40089    49.482514   -891.91838    1772.2842   -4499.7861    2.1513935    162.48449   0.13838388 
   52700   -935.66744    54.305324   -881.36212    1945.0198   -3784.2848    2.1418176    162.90545   0.15095446 
   52800   -938.99838    49.660585   -889.33779    1778.6621    9019.8227    2.1875423    146.95338   0.17064354 
   52900   -938.12569     46.85744   -891.26825    1678.2636   -7923.6696    2.1438398    191.31668   0.16665424 
   53000   -936.19274    51.261162   -884.93158    1835.9889   -9642.6995    2.1332528    177.16582    0.1558957 
   53100   -939.23386    55.600346   -883.63351    1991.4028    13758.036    2.1955808     158.0634   0.15684714 
   53200   -942.88763    49.899498   -892.98813    1787.2191    2140.8155    2.1712024    124.94156    0.1512412 
   53300   -940.44772    50.052764   -890.39495    1792.7085   -14619.448    2.1234531    148.36339   0.17039654 
   53400   -934.85839    50.421784   -884.43661    1805.9254    7616.8073    2.1699542    153.91476   0.15611693 
   53500   -944.19818    50.141572   -894.05661    1795.8893    4522.8282     2.181217     143.7882   0.15067147 
   53600    -940.2583    50.564516   -889.69378    1811.0376   -5737.4738     2.144546    146.90676   0.16851532 
   53700   -937.82994      52.4332   -885.39674    1877.9671   -2817.5152    2.1488284    162.12895   0.16778631 
   53800   -944.88641    52.929969   -891.95644    1895.7595    906.35124    2.1722069    153.05405   0.15544755 
   53900   -940.43721    48.790363   -891.64685    1747.4939     336.0013    2.1683957     123.4271   0.16709841 
   54000   -934.41432    51.021925   -883.39239    1827.4203   -6247.4776    2.1317043    141.33548   0.19530104 
   54100   -939.83725    48.262365   -891.57489    1728.5829    3410.5766    2.1706251    144.75302   0.16916782 
   54200   -940.09952    49.154649   -890.94487    1760.5413    3873.7098    2.1700507    136.52919   0.17101924 
   54300   -932.67355    49.359571   -883.31398    1767.8808    -4877.145     2.133184    143.17362   0.17945788 
   54400   -938.26018    47.236624   -891.02355    1691.8446    843.84383    2.1607044    124.02936   0.16990796 
   54500   -939.35039     48.52133   -890.82906    1737.8581     6116.052    2.1774338    169.66624    0.1615518 
   54600   -935.54204    50.276931   -885.26511    1800.7373   -3506.7632    2.1454211    169.03229   0.15896773 
   54700   -937.87023    52.485353   -885.38488     1879.835   -9145.1402    2.1354112    164.96447   0.15963045 
   54800   -941.05232    48.228834   -892.82348    1727.3819    12004.444    2.1956289    155.60985   0.14824711 
   54900   -935.74581    49.713321   -886.03249    1780.5509    3055.5567    2.1633892    174.29538   0.18702329 
   55000   -939.00974    52.297322   -886.71242    1873.1004   -19316.822    2.1103701     156.7544    0.1724753 
   55100   -943.13782    49.174629   -893.96319    1761.2569    10036.855    2.1959834    167.51514    0.1376613 
   55200   -939.03679    47.444482   -891.59231    1699.2893    11976.388    2.1886741    167.63437   0.16530174 
   55300   -937.25836    50.481043   -886.77732    1808.0479   -7751.4701    2.1312271    168.51911   0.17339339 
   55400   -938.94729    48.590704   -890.35659    1740.3428   -1128.7316    2.1544301    155.38838   0.16180807 
   55500   -942.13338    47.808681    -894.3247    1712.3336    12056.301    2.1903723    152.11245   0.15501281 
   55600   -938.46102    54.228538   -884.23248    1942.2696   -4452.4872    2.1440995    133.89679   0.17669822 
   55700    -940.3701     50.70963   -889.66047    1816.2351   -5192.4059     2.153054    124.57823    0.1561057 
   55800   -939.37861    46.843114   -892.53549    1677.7505    6250.6665    2.1770029    147.13171   0.17105301 
   55900   -934.66752    51.695306   -882.97222    1851.5384    2771.5287    2.1512163    146.02177   0.17484403 
   56000   -934.66858    48.367703   -886.30088    1732.3557   -2139.1226    2.1432513    121.11274    0.1616033 
   56100   -939.08308    47.231621   -891.85146    1691.6654    2248.8248     2.164894    123.65977   0.15335128 
   56200   -937.19565    49.831802   -887.36385    1784.7944    5527.3307    2.1744634    107.16155   0.15599913 
   56300   -934.56354     51.58794    -882.9756    1847.6929   -6944.9642    2.1336983    112.47901   0.15918414 
   56400   -941.90746    48.568984   -893.33848    1739.5649   -584.89434    2.1608946    110.25089   0.12675314 
   56500   -942.49671    53.325562   -889.17115    1909.9282    12192.209    2.1899761    110.26163   0.12379453 
   56600   -940.91973    53.732419   -887.18732    1924.5004   -6852.1599    2.1408348    110.31085   0.13174731 
   56700   -933.42696    54.135179   -879.29179    1938.9258   -11891.891    2.1166803    119.16856   0.13857216 
   56800   -934.16278    56.167716   -877.99507    2011.7239    8896.6882    2.1704894    116.90129   0.16016119 
   56900   -939.78927     54.23239   -885.55688    1942.4076   -862.84123    2.1586005    109.06193   0.13496352 
   57000    -937.9292    48.786938   -889.14226    1747.3712   -6166.0648    2.1378494    114.56965   0.15420882 
   57100   -942.85174    51.774433    -891.0773    1854.3724    4702.0352     2.176576    111.46142   0.14760623 
   57200   -943.43872    46.487483   -896.95123    1665.0131    7765.6424    2.1909328     115.1837   0.13960005 
   57300   -939.41443    51.503619   -887.91081    1844.6729    -10809.55    2.1333214    116.10206   0.15678512 
   57400   -939.94344    52.029232   -887.91421    1863.4984    2238.5513    2.1657755    113.36089   0.12677693 
   57500   -938.82855    49.991422   -888.83713    1790.5114    14102.916    2.1932707    107.51126   0.12739696 
   57600   -945.88647    51.460221   -894.42625    1843.1185   -18568.092    2.1251657    110.06547   0.12708864 
   57700   -937.04541    50.945544   -886.09986    1824.6846   -7533.2018    2.1370304    109.70872   0.13935169 
   57800   -937.58715     54.29084   -883.29631     1944.501    18191.025    2.1987507    104.38407   0.14247915 
   57900   -940.06717    48.426559   -891.64061    1734.4637   -4552.2831    2.1484547    104.55274   0.13014275 
   58000    -938.9318    47.811183   -891.12062    1712.4232   -7362.4631    2.1397983    116.37456    0.1469735 
   58100   -939.16551    55.617145   -883.54837    1992.0044    7085.5524    2.1743864    115.33938   0.13675295 
   58200   -939.93564    52.190503   -887.74513    1869.2745   -1022.5674    2.1549718    114.67115   0.12031231 
   58300   -939.43439    45.999874   -893.43451    1647.5487   -4138.1037    2.1461281    119.44685   0.15058832 
   58400    -940.7025    52.423224   -888.27928    1877.6098    5649.3174    2.1702718    110.38664   0.13698033 
   58500   -941.00639    53.625709   -887.38068    1920.6784    44.376728    2.1605231     108.8869   0.15001204 
   58600   -946.13563    48.048099   -898.08754    1720.9086    -6738.638     2.160715    110.38103   0.13100664 
   58700   -942.65774    50.045693   -892.61205    1792.4552   -689.58128    2.1635549    108.62038   0.13905191 
   58800   -937.42545    49.603437   -887.82201    1776.6152    4171.0186    2.1684563    113.75588   0.14665871 
   58900   -942.09912     48.84446   -893.25466    1749.4314   -3099.1674    2.1533117    108.41738   0.14093797 
   59000   -945.92748    48.679388   -897.24809    1743.5192   -2141.6142    2.1657283    109.36028   0.13281018 
   59100   -935.89926    47.788331   -888.11092    1711.6047    10488.487    2.1760776    110.89801   0.15096947 
   59200   -937.94435    47.508295   -890.43606    1701.5749   -2692.9461    2.1524985    112.11822   0.14663112 
   59300   -943.43071    46.401988   -897.02872    1661.9509    -9303.801    2.1474456    115.78238   0.12985929 
   59400   -945.64935    52.233982   -893.41537    1870.8318    12558.925    2.2018327    109.09312    0.1362045 
   59500    -941.9764    55.010102    -886.9663    1970.2623    589.84022    2.1639884    112.67026   0.13353243 
   59600    -942.0613    49.839389   -892.22191    1785.0662   -18483.257    2.1202711    106.32246   0.14737175 
   59700   -942.08369    52.114025   -889.96966    1866.5354    4678.2408     2.177865    108.46211   0.13161528 
   59800   -933.73499    53.789617   -879.94538     1926.549    7194.8729     2.160189    112.87811   0.14553108 
   59900   -943.64361     54.18534   -889.45827    1940.7224   -9298.2491    2.1434668    116.99815   0.12857809 
   60000   -941.54416    50.221619   -891.32254    1798.7563   -1543.0292     2.160618    119.29943   0.13172471 
   60100   -935.06155    47.055748    -888.0058    1685.3662    8961.6197    2.1743794    106.30324   0.14875754 
   60200   -935.20697    53.499778   -881.70719     1916.168   -6159.2897    2.1360755    115.08845   0.13974242 
   60300   -941.29753    49.541952   -891.75558     1774.413   -869.82254    2.1604101    101.24026   0.13395918 
   60400   -941.15551    51.005817   -890.14969    1826.8434    7685.0053    2.1783776    112.64824   0.12631805 
   60500   -933.63676    50.022616   -883.61415    1791.6287    1320.9804    2.1471395    113.64287   0.14562444 
   60600   -936.52881    50.500497   -886.02831    1808.7446   -7364.4883     2.129157    115.36674   0.14260404 
   60700    -940.4211    48.652223   -891.76888    1742.5462    7803.3799    2.1774779    106.42038   0.13448343 
   60800   -944.38674    55.916318   -888.47042    2002.7197    5524.2453    2.1782417    108.95393   0.14303586 
   60900    -938.9587    52.436805   -886.52189    1878.0962   -12685.548    2.1214896    115.64884   0.13530203 
   61000   -942.93934    45.269988   -897.66935    1621.4068    5304.0357    2.1799104    118.28346   0.12055129 
   61100   -937.60698    46.916905   -890.69008    1680.3934     11654.13    2.1794813    110.80387   0.13463149 
   61200   -937.00321    48.348586   -888.65462     1731.671   -2896.7337    2.1439537    111.05055   0.14036359 
   61300   -940.71721    49.321546   -891.39567    1766.5189   -1818.1937     2.156036    110.84772   0.13454658 
   61400   -946.66311    49.792963   -896.87015    1783.4034    6270.6152     2.189261     100.7274   0.14471109 
   61500   -938.49426    49.255327   -889.23894    1764.1472   -1611.3869    2.1590091    113.90987   0.14789064 
   61600   -938.78372    49.537886   -889.24584    1774.2674   -3174.4676    2.1526259    111.88813   0.16325918 
   61700   -946.41575    48.097306   -898.31844    1722.6711     3546.402    2.1836505    108.36801    0.1316116 
   61800   -941.43971    51.130188   -890.30953    1831.2979    200.38178    2.1604435    110.28066   0.14059553 
   61900   -939.64255    51.421615   -888.22093    1841.7358   -1052.2373    2.1564264    111.10589   0.14440418 
   62000   -944.10909    50.659336   -893.44976    1814.4337   -3407.7229    2.1593257    108.28501   0.12589531 
   62100   -946.03464    49.275761   -896.75888    1764.8791    653.53869    2.1739814    108.30899    0.1453007 
   62200   -940.18376    53.956415   -886.22734    1932.5231   -3860.7524    2.1489229     106.7215   0.16608382 
   62300   -942.87845    52.640736   -890.23772    1885.4003   -2577.2382    2.1578228     107.5279   0.14523038 
   62400   -942.91996    49.352917   -893.56705    1767.6425    4199.3971    2.1738598    112.06665   0.14267242 
   62500   -937.88408    54.348062   -883.53602    1946.5505   -676.85143    2.1534999    112.23859    0.1569319 
   62600   -933.72051    47.222451   -886.49806    1691.3369    870.30304    2.1534201     118.0569   0.14346077 
   62700   -940.57181    48.333733   -892.23807     1731.139    -1100.827     2.158928    107.69053   0.13440136 
   62800   -939.47213    50.414161   -889.05797    1805.6524     5386.128    2.1712284    106.35004   0.14082709 
   62900    -938.2299    56.328831   -881.90107    2017.4945   -4384.0851    2.1405729    102.31948   0.15854224 
   63000   -940.86739    48.245457   -892.62193    1727.9773    -1625.083    2.1585264    111.39742   0.15338236 
   63100   -939.47648    48.956896   -890.51958    1753.4585    6655.7661    2.1748841    111.92835   0.15299714 
   63200   -936.79905    51.130645    -885.6684    1831.3143    1841.0166    2.1518388    120.85051   0.13311232 
   63300   -935.82617    53.468428   -882.35774    1915.0452   -11136.488    2.1251853    121.46723   0.15248124 
   63400   -940.40658    48.310049   -892.09653    1730.2908    10711.045    2.1879606    109.67111   0.14391034 
   63500   -940.01432    50.947505   -889.06682    1824.7549     5220.354    2.1761998    112.37165   0.13254719 
   63600    -940.1237    51.323666   -888.80003    1838.2276   -15598.687    2.1207244    112.90501   0.11531118 
   63700   -949.44284    49.756702   -899.68614    1782.1046    3691.7588    2.1922115    104.81651   0.14467178 
   63800   -943.24574     51.78893   -891.45681    1854.8917     4820.635    2.1827081     106.3346   0.14079874 
   63900   -940.56636    50.980309   -889.58605    1825.9298   -8524.9041    2.1408857    112.01809   0.15025792 
   64000   -941.47284     52.26901   -889.20383    1872.0864   -2393.8297    2.1581167    112.05138   0.14723544 
   64100   -947.02459    48.242463   -898.78213    1727.8701    8429.3767     2.198937     111.9336   0.13937266 
   64200   -938.00135    48.138689   -889.86266    1724.1533   -5925.9891    2.1453729    112.66364   0.15140664 
   64300   -939.57019    50.290452   -889.27974    1801.2216   -2646.5481     2.150891    104.69419    0.1390857 
   64400   -940.70618    46.860834   -893.84535    1678.3851    5044.3911    2.1757963    112.07587   0.12378369 
   64500   -946.90127     47.87394   -899.02733    1714.6709   -1239.0915    2.1683267    117.50597   0.12901995 
   64600   -941.57213    53.218089   -888.35404    1906.0789   -7260.3591    2.1409643    115.76844   0.12896051 
   64700   -938.31511     48.39576   -889.91935    1733.3606    5799.5352    2.1717492    103.54503    0.1346499 
   64800   -943.16057     51.22802   -891.93255    1834.8019    3035.4549    2.1720777    110.03645   0.14707278 
   64900   -933.18384    52.110191   -881.07364    1866.3981    -655.8509     2.133979     116.2144   0.14351793 
   65000   -940.79756    54.705302   -886.09226    1959.3455   -290.02182    2.1575123    103.02501    0.1533491 
   65100   -943.35061    52.161803    -891.1888    1868.2466   -1807.8209    2.1580956    113.16761   0.13120423 
   65200   -942.25398    52.317143   -889.93683    1873.8103   -1353.9255    2.1576695    105.71634   0.13241855 
   65300   -931.81345    52.409709   -879.40374    1877.1257   -1452.9719    2.1388787    92.754403   0.17134875 
   65400   -937.06683    48.501224   -888.56561     1737.138    2805.0505    2.1612769    104.96263   0.16213393 
   65500   -939.20148    48.462261   -890.73922    1735.7424   -4505.8515    2.1403526    92.505469   0.15870691 
   65600   -935.88988    50.348869   -885.54101    1803.3139    2484.8144    2.1550609    107.00973   0.16360366 
   65700     -938.111    52.467435   -885.64357    1879.1932    12068.612    2.1846339     110.0972   0.13241308 
   65800   -943.51347    49.175819   -894.33765    1761.2995   -10365.719    2.1446472    113.38886    0.1366019 
   65900   -941.66289    49.918315   -891.74457     1787.893   -4301.1097    2.1544411    113.36999   0.13953242 
   66000   -943.08331    56.742956   -886.34035    2032.3269    9396.5671    2.1856674    109.40019   0.12267589 
   66100   -938.63202    44.653355   -893.97867    1599.3213   -5117.8979     2.149442    115.77886   0.14148094 
   66200   -945.14488    49.162324   -895.98256    1760.8161     -9135.21    2.1474479    115.80489   0.12714015 
   66300   -942.12134    55.049487   -887.07185     1971.673    9595.3904    2.1796103    108.41545    0.1194935 
   66400   -946.27038    55.666692   -890.60369     1993.779   -1706.4355    2.1613063    110.18957   0.14108107 
   66500   -941.83913    44.529848   -897.30928    1594.8977   -6972.8965    2.1465827    114.64426   0.14283746 
   66600   -942.15023    50.937318   -891.21292      1824.39    7883.3197    2.1782102    109.43177   0.12297119 
   66700   -937.66891    50.660997   -887.00792    1814.4932    7412.9826    2.1677803      110.653   0.13014386 
   66800   -943.04838    49.587678    -893.4607    1776.0508   -10688.688    2.1361305    111.85756   0.12443351 
   66900   -944.22286    54.209733   -890.01312    1941.5961    904.09239    2.1652686    117.72304   0.12444742 
   67000   -939.35422    56.673636   -882.68058    2029.8441    3305.8423    2.1625715    104.98776   0.15901163 
   67100   -941.13889     49.31749    -891.8214    1766.3736   -4107.6309    2.1514665    114.63273   0.12738452 
   67200   -943.21355     52.07695    -891.1366    1865.2075   -3507.9538    2.1552679    113.37304     0.124811 
   67300   -932.87803    51.304609   -881.57342     1837.545    6690.3193    2.1554551    104.53375   0.14970018 
   67400   -938.60637    48.366423   -890.23994    1732.3099     1941.716    2.1574037    109.77659   0.13540045 
   67500   -938.75763    46.136091   -892.62153    1652.4275   -3962.4984     2.147129    106.17129   0.14482798 
   67600   -939.90015    54.105792   -885.79436    1937.8732    1009.6504    2.1603429    107.05734   0.17037299 
   67700   -942.77737    51.497009   -891.28036    1844.4361    234.30064    2.1629966    110.57601   0.12864038 
   67800   -945.66814    50.596071   -895.07206    1812.1678   -4880.8613    2.1590977    109.39339   0.12681776 
   67900   -939.08007    51.144941   -887.93513    1831.8263    1563.5703    2.1583836    112.75747   0.14376257 
   68000   -938.96601    48.726424   -890.23959    1745.2038    2326.4373    2.1595096    109.89153   0.13278902 
   68100   -945.65188    48.132092   -897.51979     1723.917     344.4628    2.1688469    115.78723   0.14036744 
   68200   -937.36297    49.018871    -888.3441    1755.6782    311.62244    2.1510115    109.77705   0.14071317 
   68300   -940.48231    50.887859   -889.59445    1822.6186   -1228.7968     2.155036    110.30792    0.1323539 
   68400   -944.30538    46.642126   -897.66325    1670.5518    2619.7553    2.1735623    108.63056   0.11975532 
   68500   -937.91121    49.617015    -888.2942    1777.1016    -101.0909    2.1529181    112.80812   0.15752241 
   68600    -939.8602    51.348094   -888.51211    1839.1025     1562.462    2.1617696    103.34887   0.13279655 
   68700   -943.97492    49.461032   -894.51389    1771.5148    -675.2145    2.1674046    112.54658   0.13633756 
   68800   -936.92953    47.137413   -889.79212    1688.2912    1309.5752    2.1547041    108.22801   0.13177521 
   68900   -939.07136    53.263597   -885.80776    1907.7089    194.44526    2.1560931    116.58913    0.1249793 
   69000   -941.82577    49.941195   -891.88458    1788.7125   -2400.1828    2.1570582    106.60489   0.13179773 
   69100   -940.68423    48.596823    -892.0874     1740.562   -1151.4155    2.1633871    105.68741   0.13038653 
   69200   -934.61941    52.762621   -881.85679    1889.7657    810.24869    2.1456408    112.78579   0.14694845 
   69300   -939.18692    48.892628   -890.29429    1751.1566    4778.0257    2.1658106    109.26074   0.14071687 
   69400   -938.62377    46.178163    -892.4456    1653.9343    499.32811    2.1574688    103.95548   0.13529088 
   69500   -938.04179     54.71745   -883.32434    1959.7806   -596.25131     2.147809    114.70475   0.13192148 
   69600   -939.94469    49.937259   -890.00743    1788.5715    4135.7727    2.1661396    108.99257   0.13238272 
   69700   -940.11707    46.813994   -893.30307    1676.7075   -3084.1374    2.1535886    111.83901    0.1232715 
   69800   -939.37618    52.244621   -887.13156    1871.2128    521.09487    2.1559874    113.41725   0.14390536 
   69900   -940.22239    51.576078   -888.64631    1847.2681     4508.321    2.1665763    113.43394   0.12556483 
   70000   -941.78469    45.999494   -895.78519    1647.5351    571.77204    2.1621968    117.93611   0.13036556 
   70100    -937.2435    47.817334   -889.42617    1712.6435   -202.22123    2.1549981     116.8434   0.13920082 
   70200   -936.35156    49.342449   -887.00911    1767.2676    2569.3767    2.1619539    117.53193   0.15472323 
   70300   -943.30623    45.924706   -897.38152    1644.8564    -359.0651    2.1728634    109.94607    0.1549258 
   70400   -940.29918    49.344182     -890.955    1767.3296   -7543.5379    2.1401539    116.43101    0.1440857 
   70500   -941.91152    54.609106   -887.30242    1955.9001    2872.8404    2.1673974    110.61991   0.13837506 
   70600   -940.92989    46.939311   -893.99057    1681.1959    6554.0229    2.1784182    104.04908   0.15516786 
   70700   -945.86387     51.93977    -893.9241    1860.2942   -11161.979    2.1428294    111.81233   0.12929107 
   70800   -939.19228     52.95846   -886.23382      1896.78   -4750.0927    2.1432245      105.016   0.15594698 
   70900    -939.3451    49.585189   -889.75991    1775.9616    11165.475     2.183279    114.41818   0.13870051 
[...]
  186800    -943.5471    48.892575   -894.65452    1751.1547   -2081.9794    2.1623924    546.16928    0.1475397 
  186900   -939.57841    51.129786   -888.44863    1831.2835   -3478.5818    2.1477639    559.96509   0.14909002 
  187000   -944.68753    54.476183   -890.21135    1951.1393     1564.823    2.1720821    539.07325   0.15496354 
  187100   -944.91375    47.561717   -897.35203    1703.4882    4515.9861    2.1824826    531.35917   0.14666736 
  187200   -940.25203    52.046594   -888.20543    1864.1203   -8428.2594    2.1386202    556.29066   0.14971162 
  187300   -935.51255    47.176602   -888.33595    1689.6948    2785.2749    2.1582379    548.19227   0.16377227 
  187400   -945.80357    50.007593   -895.79598    1791.0906     8680.213     2.194743    545.41516   0.15523023 
  187500   -941.95988    53.358118   -888.60176    1911.0943   -7394.3902    2.1460198    561.45604   0.15266852 
  187600   -935.48117    47.764672    -887.7165    1710.7573   -4948.8961    2.1418586    554.71704   0.15779567 
  187700   -940.41833    49.207277   -891.21105    1762.4262    8964.3669    2.1892143    535.51468   0.13547161 
  187800   -943.97333    48.208907   -895.76442    1726.6682    -1178.046    2.1705423    523.50396   0.12319366 
  187900   -936.72438    51.850392   -884.87399     1857.093   -15954.801    2.1107569    532.37242   0.14423207 
  188000   -940.92944    51.298731   -889.63071    1837.3345    12030.224     2.191207    524.97624   0.13591796 
  188100   -940.49576    48.487818   -892.00794    1736.6578    10788.569    2.1858494    524.29593   0.13464425 
  188200   -937.66564    49.922301   -887.74333    1788.0358   -13822.578    2.1183823    544.07032   0.14108102 
  188300   -939.78983    56.587818   -883.20201    2026.7704   -2564.9818    2.1507459    535.11222   0.14754425 
  188400   -943.32658    51.405819   -891.92076      1841.17     10061.43    2.1934941    531.39934   0.14909848 
  188500   -940.49583    49.669839   -890.82599    1778.9935    -5974.726     2.151004    539.77832   0.11996815 
  188600   -936.44716    52.857402   -883.58975    1893.1604   -7236.3202    2.1388584    526.59494   0.15085413 
  188700   -943.52611    49.993615   -893.53249      1790.59    7545.0353     2.186554    520.83434   0.13314042 
  188800   -942.74872    51.377297   -891.37143    1840.1484   -3486.0966    2.1581889    523.18807   0.12392176 
  188900   -940.21398    54.091993   -886.12198     1937.379   -7119.2562    2.1378155    532.60722   0.15700551 
  189000   -942.83404    47.246537   -895.58751    1692.1996    6003.4851    2.1810946    532.36926   0.13609963 
  189100    -943.0879    50.773116   -892.31479    1818.5089    1808.6867    2.1682803    545.04055   0.13403833 
  189200    -937.6422    50.034844   -887.60735    1792.0667    -4727.894    2.1411324    546.52093   0.14389562 
  189300   -944.76542    50.750551   -894.01487    1817.7007   -1360.2808    2.1671992    532.02502   0.13543951 
  189400   -946.64688    52.011174    -894.6357    1862.8516    4350.0974    2.1850569    541.84006   0.12499804 
  189500   -940.76035    53.904389   -886.85596    1930.6597    -6333.376      2.14296    536.65742   0.14683169 
  189600   -940.98394    49.156304   -891.82763    1760.6005   -6540.9202    2.1475109    539.70946   0.14395955 
  189700   -941.14665    47.635997   -893.51065    1706.1487    12061.721     2.195028    541.89612   0.14726635 
  189800   -938.43597    54.736279    -883.6997     1960.455   -4069.7783    2.1490384    546.58598   0.16208958 
  189900   -938.08198    47.478856   -890.60313    1700.5204   -10190.592    2.1321481    553.11053   0.16863488 
  190000   -938.28821    46.566859   -891.72135     1667.856    10265.099    2.1853013    530.27724   0.15415027 
  190100   -936.91318    53.642272   -883.27091    1921.2716    5658.3715    2.1693821     539.9614   0.16102226 
  190200   -939.15891    52.129917   -887.02899    1867.1046     -14300.9    2.1186542    544.84656   0.16729856 
  190300   -941.67239    48.046237   -893.62616     1720.842    2172.3895    2.1638184    558.13804   0.14213767 
  190400   -938.97807    50.549029   -888.42904    1810.4829    15245.475    2.1945852    523.10993   0.14834516 
  190500   -939.57866    52.942795   -886.63586    1896.2189   -11925.834    2.1258926    544.57206   0.14828213 
  190600   -939.84278    42.708709   -897.13407    1529.6711    -1346.626    2.1562222    544.20822   0.14136671 
  190700   -942.77986    51.007583   -891.77228    1826.9066    5093.0125    2.1776862    539.44452   0.14681833 
  190800   -939.52426    52.367514   -887.15675    1875.6144   -1735.6129    2.1508126    530.74202   0.13736995 
  190900   -941.79591    49.177405   -892.61851    1761.3563   -4908.5768    2.1484148    546.27648   0.12540796 
  191000   -944.36802    49.433224   -894.93479    1770.5188    2389.7407    2.1755948    524.16364   0.13089151 
  191100   -939.50103     52.54374   -886.95729    1881.9262    315.03188    2.1577646    526.73225   0.13351926 
  191200   -941.34289     49.85375   -891.48914    1785.5805    -4189.929    2.1461709     523.8473   0.13334599 
  191300   -945.34037    49.059518   -896.28085     1757.134    2027.2661    2.1746727    546.64494   0.13058588 
  191400   -941.97496    55.970886   -886.00407    2004.6742   -1175.3126    2.1581969    529.24818   0.12625866 
  191500   -940.79893     50.51871   -890.28022     1809.397   -2822.6246    2.1497946    534.39392   0.12622207 
  191600   -944.01655     49.04021   -894.97634    1756.4425   -234.15836    2.1636767    532.15799   0.12524881 
  191700   -940.04222    54.618808   -885.42341    1956.2476    4110.2616    2.1687387    538.93359   0.13077439 
  191800   -940.71623    53.150782   -887.56545    1903.6682   -1748.0044    2.1549331     527.0072   0.13527463 
  191900   -939.70748    45.391477     -894.316    1625.7581   -8014.6662    2.1403781    549.78975   0.14184572 
  192000   -940.44177    52.996095   -887.44567    1898.1279    4955.8782    2.1740966    537.20361   0.12407925 
  192100   -938.54965    54.130933   -884.41872    1938.7737    6420.0815    2.1732423     540.6498   0.13792884 
  192200   -942.96715    48.816122   -894.15103    1748.4165   -13082.184    2.1327851    531.29704   0.12804105 
  192300   -941.09841     49.85272   -891.24569    1785.5437    572.06979    2.1619854    543.61819   0.12735435 
  192400   -942.44565    58.166699   -884.27895    2083.3202    9330.5811     2.184346    529.27475   0.13499314 
  192500   -938.82666    46.966433   -891.86023    1682.1673   -8272.3277    2.1419462    543.47874   0.15150166 
  192600   -941.13563     46.70018   -894.43545    1672.6311   -6127.8806    2.1487898    526.04587   0.14048004 
  192700   -938.55023    53.133904   -885.41633    1903.0637    6716.7099    2.1737147    535.83235   0.13071229 
  192800   -936.81426    45.426758    -891.3875    1627.0217    1698.0929    2.1591811     529.1086    0.1360389 
  192900   -942.44943    45.804437   -896.64499    1640.5488   -4754.3397    2.1558047    548.76215   0.14972708 
  193000   -935.97445    49.552471   -886.42198    1774.7898    3531.2975    2.1604177    546.45618   0.13993095 
  193100    -940.6033    51.551852   -889.05145    1846.4004    4487.9274    2.1681473     550.1441   0.13363991 
  193200   -941.28534    45.596787   -895.68855    1633.1115   -4268.7402    2.1556853    533.63823   0.13825307 
  193300    -937.0047     50.52937   -886.47533    1809.7788   -1476.7861    2.1473908    529.38561   0.12692597 
  193400   -938.77286    51.134755   -887.63811    1831.4615    7706.2461    2.1726449    524.29223   0.14002497 
  193500   -941.95808    47.389043   -894.56903    1697.3037   -3410.2175    2.1573923    542.31606   0.13609723 
  193600   -938.89313    51.427671   -887.46546    1841.9527   -5173.8977    2.1451223     528.1651   0.14927696 
  193700   -936.00663    50.808273   -885.19836    1819.7681    6323.1029    2.1673094    536.25452   0.13830154 
  193800   -945.22213    51.212563   -894.00956    1834.2483     2202.202    2.1745698    542.70553   0.12441252 
  193900   -939.86656    50.662768   -889.20379    1814.5566   -7935.6988    2.1400778    559.08042   0.12613953 
  194000   -936.33617     51.00491   -885.33126    1826.8109    2989.0716    2.1578372    520.76367   0.13214839 
  194100   -940.87005     47.22148   -893.64857    1691.3022    16225.868    2.2030434     540.4073   0.12849411 
  194200   -938.70601    48.835562   -889.87045    1749.1127   -14439.907    2.1229177    539.39641   0.13332605 
  194300   -937.07448     50.02466   -887.04982    1791.7019   -6505.4828    2.1366882      536.021   0.14211325 
  194400   -942.65151    53.459383   -889.19213    1914.7212    14103.039    2.1989904    490.45287   0.16796558 
  194500   -943.73955    47.964358    -895.7752    1717.9094   -3251.1881    2.1578478    510.48658   0.17073705 
  194600   -935.78886    50.218786   -885.57007    1798.6548    -8975.066    2.1334986    494.00373   0.18173018 
  194700   -938.20893    52.456512   -885.75242     1878.802    10230.063    2.1802789    542.83111   0.14991899 
  194800   -940.77672    49.679768   -891.09695    1779.3491    650.07388    2.1647029    544.80604   0.13831256 
  194900   -944.16493     51.09175   -893.07318    1829.9212   -9968.2762    2.1447583    535.37493     0.137186 
  195000   -934.85982    52.784442   -882.07538    1890.5473    3488.2901      2.15556    524.80417   0.14456486 
  195100    -936.8193     49.67825   -887.14105    1779.2948    8532.6772    2.1751014    535.69994   0.13573152 
  195200   -941.26197    48.397803   -892.86417    1733.4338   -7580.2436    2.1433045    537.50347   0.12632446 
  195300   -941.27231    54.284392   -886.98792    1944.2701   -4997.7771    2.1513717    555.55178   0.13769823 
  195400   -933.10183    51.081868   -882.01996    1829.5673    8235.1293    2.1670626    533.95339   0.14171431 
  195500   -945.40656    52.769371   -892.63718    1890.0075   -1069.6916    2.1673235    536.09217   0.14045706 
  195600   -943.24083    52.455727   -890.78511    1878.7739   -7370.6056    2.1470053    562.18196   0.11856384 
  195700   -943.63482    59.051557   -884.58327    2115.0126    238.66246    2.1639012    527.00852   0.13137227 
  195800   -945.37471    51.495133   -893.87957    1844.3689    2083.5725    2.1734347    526.85533   0.12006071 
  195900   -938.12624     44.57091   -893.55533    1596.3684   -2796.5302    2.1487095    540.87291   0.12036213 
  196000   -935.28931    48.503181   -886.78612     1737.208    5016.0663    2.1619344    533.20906    0.1455837 
  196100   -941.81634    49.340659   -892.47568    1767.2035    2584.6762    2.1715045    539.76677   0.13428661 
  196200   -943.85133    47.353251   -896.49808    1696.0217   -993.46574    2.1654327    532.78151   0.13276957 
  196300   -935.67492    47.981337   -887.69359    1718.5175    594.71364    2.1542149    551.07412   0.15324496 
  196400   -939.40604    49.285549   -890.12049    1765.2296    1235.0172    2.1672602    536.56743   0.14451031 
  196500   -943.12699    45.592288    -897.5347    1632.9504    438.89403    2.1749836    541.17043   0.14095366 
  196600   -938.67926    51.333196   -887.34607    1838.5689   -964.64282    2.1524848     541.1009   0.14478437 
  196700   -943.93023    54.970262   -888.95996    1968.8354    927.05463    2.1666795    536.12591   0.13466335 
  196800   -942.98269    48.087963   -894.89473    1722.3364    26.840795    2.1661829    543.42101   0.13817494 
  196900   -936.95025    51.846987   -885.10326     1856.971   -1713.5342    2.1474046    532.05524   0.13880793 
  197000   -939.59657     51.96239   -887.63418    1861.1044     4171.733    2.1677437    539.09062   0.16147859 
  197100   -939.67054    46.167177   -893.50336    1653.5408    18.989738    2.1603187    551.56855   0.15708896 
  197200   -938.46784    52.233048   -886.23479    1870.7983    -3433.478    2.1474038    540.80884   0.16347493 
  197300   -941.26943    55.174604   -886.09483    1976.1542    1658.1573    2.1618794    522.98481   0.14179337 
  197400   -941.64845    48.388915   -893.25953    1733.1155    1815.7258    2.1685259    533.52039   0.13769643 
  197500   -937.08137    48.759939   -888.32144    1746.4042   -2883.8242    2.1451089    540.18644   0.13784535 
  197600   -935.83762    51.316315   -884.52131    1837.9643     327.7091    2.1480473    541.31411    0.1556321 
  197700   -941.97649    47.708871   -894.26762    1708.7587    11159.477     2.192982    523.15305   0.13649797 
  197800    -941.9568    52.699596    -889.2572    1887.5084   -5661.1169    2.1457877    547.69741   0.13819581 
  197900    -936.4458    49.200052   -887.24575    1762.1675   -6071.9876    2.1365717    534.33768     0.148811 
  198000   -942.88975    47.627295   -895.26245     1705.837    9899.9791    2.1959116    524.72504   0.13760672 
  198100   -945.90893    55.924338   -889.98459     2003.007   -479.84895    2.1662793    526.52531   0.12282196 
  198200    -938.1789    50.422078   -887.75682     1805.936   -9474.8382    2.1319315    530.53024   0.14958131 
  198300   -942.68643    49.096282   -893.59015    1758.4508    1571.5863    2.1737415    525.62936   0.13994499 
  198400   -943.89621    50.240339   -893.65588    1799.4268    10492.585    2.1929935    534.56914   0.13540153 
  198500   -938.19747    52.509278    -885.6882    1880.6919   -11597.573    2.1319761    542.35215   0.15321497 
  198600   -942.16529    49.267161   -892.89813     1764.571   -3929.9538    2.1565868    532.64672   0.13534569 
  198700   -943.95019    52.122208   -891.82798    1866.8285    10057.142    2.1927681    537.37997   0.13940448 
  198800   -931.54558    47.486066   -884.05952    1700.7787   -2356.9617    2.1460371    513.24945   0.17981333 
  198900   -940.15532    48.366154   -891.78917    1732.3003   -7839.7782    2.1452511    535.55888   0.15397076 
  199000   -943.36925    51.185658   -892.18359    1833.2846    6291.5953    2.1817822    531.29201    0.1284143 
  199100   -933.27606     48.43914   -884.83692    1734.9143    4518.1948    2.1624118    532.69645   0.15821029 
  199200   -937.24613    48.328215   -888.91792    1730.9414    -8426.296    2.1383377    539.15856   0.15671545 
  199300   -944.63449    50.799667   -893.83482    1819.4598     997.7204    2.1712649    538.42572   0.13483134 
  199400   -937.42666    51.707215   -885.71945    1851.9649    4315.8043    2.1634858    541.37444   0.15405136 
  199500   -937.29855    47.979252   -889.31929    1718.4428   -1499.8163    2.1477122    550.84701   0.14160524 
  199600   -945.14635     49.96653   -895.17982    1789.6199   -1621.6613    2.1650487    531.90269   0.13735018 
  199700   -937.61997    51.721716   -885.89825    1852.4843    2613.8233    2.1596134    539.48082   0.15056672 
  199800   -942.56373    53.054373   -889.50936    1900.2152   -3339.2042    2.1553139     533.3891   0.14486789 
  199900   -947.12151    51.388661   -895.73285    1840.5555   -3954.8652    2.1641615     536.6704   0.12455995 
  200000   -936.41025    50.075814   -886.33444    1793.5341   -7.7206549    2.1549229    551.55646   0.15959044 
  200100   -942.06044    53.040329   -889.02011    1899.7122    426.60461    2.1622178    553.54415   0.14029811 
  200200   -944.60624    49.068251   -895.53799    1757.4468   -1804.2672    2.1633246     544.9073    0.1244946 
  200300   -938.53924    51.857029   -886.68221    1857.3307   -1337.0769    2.1497892    537.35696   0.14974662 
  200400   -941.87559    53.139816   -888.73578    1903.2755    1763.1011    2.1648929    526.14626   0.12870886 
  200500   -942.45451     47.35832   -895.09619    1696.2033    823.58885     2.164617     538.4863   0.13396928 
  200600   -940.39384    53.529604   -886.86423    1917.2363    -7225.845    2.1414438    548.58762   0.15067842 
  200700   -939.77997    51.765247   -888.01472    1854.0434    6573.3158    2.1667568    546.46281   0.13977168 
  200800   -944.18671    49.790755   -894.39596    1783.3243    4979.8782    2.1784191    539.15822   0.13283103 
  200900   -937.61543     50.33782   -887.27761    1802.9182   -6908.1179    2.1348395    540.96962   0.13816862 
  201000   -940.37585    53.470071   -886.90578     1915.104   -1747.5192    2.1533206    530.94868   0.13097883 
  201100   -939.49678    46.073265   -893.42351    1650.1773    12866.946     2.188191    514.45096   0.14449553 
  201200   -938.32378    51.107472   -887.21631    1830.4843   -5396.4309    2.1400346    530.79858   0.14823578 
  201300   -939.16722    52.285165   -886.88206     1872.665   -7506.2389    2.1366203     545.5009    0.1575881 
  201400   -943.44123    50.082845   -893.35839    1793.7859    8080.7197    2.1855797    532.30896      0.14101 
  201500   -940.55432     51.78495   -888.76937    1854.7491    3852.5677     2.166099    546.21254   0.13963017 
  201600   -939.57322    53.118589   -886.45463    1902.5152   -13911.867    2.1219113    536.63198   0.16716015 
  201700   -944.25564    49.122981   -895.13266     1759.407    4280.5358    2.1766641    542.33485   0.14782496 
  201800    -942.0919    51.896661   -890.19524    1858.7502    9900.5951    2.1886379    532.88565   0.14637079 
  201900   -938.27882    51.410706   -886.86812     1841.345   -8214.9703    2.1355629    533.12171   0.14720283 
  202000   -944.71628    48.895065   -895.82122    1751.2439   -6351.6238    2.1564873    537.90176   0.13726271 
  202100   -942.86116    50.056012   -892.80514    1792.8248    7413.4095    2.1858816    539.32249   0.13575042 
  202200    -942.6203    55.798792   -886.82151    1998.5104   -4911.3971    2.1530944    537.01307   0.15925599 
  202300   -939.10222    46.838547   -892.26367    1677.5869   -5756.9073    2.1466974    542.19057   0.14951189 
  202400   -946.44924     51.86178   -894.58746    1857.5009    2350.1707    2.1785247    532.27717   0.14531794 
  202500   -939.81738    54.265093   -885.55229    1943.5788     1050.535    2.1583688    537.76773   0.14832224 
  202600   -940.08679    48.320475   -891.76632    1730.6642   -3129.4318    2.1534371    541.87394   0.14652334 
  202700   -940.77843    46.418295   -894.36013     1662.535    2991.8707    2.1675138    529.25659   0.14055179 
  202800   -933.51788    49.307383   -884.21049    1766.0117    2095.6116    2.1514178    543.90342   0.15008448 
  202900   -942.16934    51.225485   -890.94386    1834.7111   -2460.1705     2.159466    547.41684   0.13553175 
  203000   -941.97476    48.316433   -893.65833    1730.5194   -497.77877    2.1627449    537.39051   0.13927553 
  203100   -931.61015    48.068481   -883.54167    1721.6387    3093.5066    2.1498789    555.65676   0.14938533 
  203200    -941.1953     50.78682   -890.40848    1818.9997    3115.9906    2.1664589    524.89357    0.1437118 
Loop time of 141.846 on 1 procs for 200000 steps with 217 atoms

Performance: 365.466 ns/day, 0.066 hours/ns, 1409.976 timesteps/s
100.0% CPU use with 1 MPI tasks x no OpenMP threads

MPI task timing breakdown:
Section |  min time  |  avg time  |  max time  |%varavg| %total
---------------------------------------------------------------
Pair    | 134.96     | 134.96     | 134.96     |   0.0 | 95.14
Neigh   | 3.6885     | 3.6885     | 3.6885     |   0.0 |  2.60
Comm    | 0.95825    | 0.95825    | 0.95825    |   0.0 |  0.68
Output  | 0.06931    | 0.06931    | 0.06931    |   0.0 |  0.05
Modify  | 1.8593     | 1.8593     | 1.8593     |   0.0 |  1.31
Other   |            | 0.3156     |            |       |  0.22

Nlocal:    217 ave 217 max 217 min
Histogram: 1 0 0 0 0 0 0 0 0 0
Nghost:    957 ave 957 max 957 min
Histogram: 1 0 0 0 0 0 0 0 0 0
Neighs:    4123 ave 4123 max 4123 min
Histogram: 1 0 0 0 0 0 0 0 0 0
FullNghs:  8246 ave 8246 max 8246 min
Histogram: 1 0 0 0 0 0 0 0 0 0

Total # of neighbors = 8246
Ave neighs/atom = 38
Neighbor list builds = 6267
Dangerous builds = 106
Total wall time: 0:02:24
