LAMMPS (3 Mar 2020)

# ---------- 1. Initialize simulation ----------
units metal
atom_style atomic
dimension 3
boundary p p p
read_data /home/modeler/RemLabs/Project/eval_timestep_nve_fluc/n3_T1800_timestep9.164904e-04_steps21823/20201206-085613/lammps.data
  orthogonal box = (0 0 0) to (17.469 17.469 17.469)
  1 by 1 by 1 MPI processor grid
  reading atoms ...
  217 atoms
  read_data CPU = 0.000955211 secs

pair_style meam/c
pair_coeff * * library.meam Li Si LiSi.meam Li Si
Reading potential file library.meam with DATE: 2012-06-29
Reading potential file LiSi.meam with DATE: 2020-11-07

group Li type 1
1 atoms in group Li

velocity all create 1800 3320 dist gaussian

# ---------- 2. Describe computed properties----------
compute msdli Li msd
thermo_style custom step pe ke etotal temp press density c_msdli[4]
thermo 100

# ---------- 3. Specify ensemble  ----------
#fix 1 all npt temp 1800 1800 0.04582451777081088 tchain 2 iso 1.0 1.0 1.0 pchain 2
# fix 1 all nvt temp 1800 1800 0.04582451777081088
fix 1 all nve

# ---------- 4. Run -------------
timestep 0.0009164903554162177
run 21823
Neighbor list info ...
  update every 1 steps, delay 10 steps, check yes
  max neighbors/atom: 2000, page size: 100000
  master list distance cutoff = 6
  ghost atom cutoff = 6
  binsize = 3, bins = 6 6 6
  2 neighbor lists, perpetual/occasional/extra = 2 0 0
  (1) pair meam/c, perpetual
      attributes: full, newton on
      pair build: full/bin/atomonly
      stencil: full/bin/3d
      bin: standard
  (2) pair meam/c, perpetual, half/full from (1)
      attributes: half, newton on
      pair build: halffull/newton
      stencil: none
      bin: none
Per MPI rank memory allocation (min/avg/max) = 9.27 | 9.27 | 9.27 Mbytes
Step PotEng KinEng TotEng Temp Press Density c_msdli[4] 
       0   -951.04357    50.256344   -900.78722         1800   -114161.75    1.8918427            0 
     100   -927.52006    26.753907   -900.76616    958.22792   -90425.216    1.8918427   0.16651304 
     200   -927.20825    26.442742   -900.76551    947.08311   -91475.599    1.8918427  0.043700597 
     300   -927.32936     26.56286    -900.7665    951.38532   -92367.915    1.8918427   0.12304413 
     400   -923.93198    23.166304   -900.76568      829.733   -90634.259    1.8918427  0.072193769 
     500   -924.03809    23.271683    -900.7664    833.50731   -90928.352    1.8918427   0.11323039 
     600   -926.83757    26.073506   -900.76407    933.85843   -92165.772    1.8918427  0.072363673 
     700   -927.26734    26.501555   -900.76579    949.18958   -92794.086    1.8918427  0.018559431 
     800   -927.21151    26.446619   -900.76489    947.22198   -93484.741    1.8918427 0.0096684586 
     900   -928.22452    27.458174   -900.76635    983.45221   -93401.043    1.8918427  0.071893106 
    1000   -924.20663     23.44426   -900.76237    839.68838   -90982.782    1.8918427  0.054666569 
    1100   -927.46188    26.694428   -900.76745    956.09761   -93449.347    1.8918427  0.079339828 
    1200   -927.99863    27.232513   -900.76612    975.36984   -94058.411    1.8918427  0.078830477 
    1300   -926.02384    25.256889   -900.76695    904.61017   -91061.869    1.8918427  0.016658077 
    1400   -928.26867    27.502297   -900.76637    985.03255   -93563.895    1.8918427  0.029427595 
    1500   -926.41877    25.654132   -900.76464    918.83796   -91336.861    1.8918427  0.017456066 
    1600   -925.78758     25.02261   -900.76497    896.21914   -92067.465    1.8918427 0.0082212285 
    1700   -926.80549    26.039621   -900.76587    932.64478   -92720.877    1.8918427  0.074415714 
    1800   -924.96166    24.201064    -900.7606    866.79433   -90810.716    1.8918427   0.10422558 
    1900   -926.94083    26.175139    -900.7657    937.49857   -92775.124    1.8918427  0.012947216 
    2000   -929.88292    29.116351   -900.76657    1042.8421   -94004.478    1.8918427  0.072039695 
    2100   -927.64531     26.88042   -900.76489    962.75916   -92454.992    1.8918427  0.023087085 
    2200   -926.04141    25.276687   -900.76472    905.31927   -92508.958    1.8918427  0.030527233 
    2300   -926.56364    25.798565   -900.76508    924.01102    -92157.02    1.8918427   0.01043981 
    2400   -925.94465    25.177625   -900.76703    901.77123   -91128.045    1.8918427  0.057381006 
    2500   -925.36475    24.600377   -900.76437    881.09629   -91643.725    1.8918427  0.078498778 
    2600   -925.69491    24.929306    -900.7656    892.87735   -91632.396    1.8918427     0.053695 
    2700   -926.87737    26.114208   -900.76317    935.31622    -92224.94    1.8918427   0.01485477 
    2800   -927.05789    26.294494   -900.76339    941.77341   -92600.758    1.8918427 0.0060440132 
    2900    -927.7295    26.961605    -900.7679     965.6669   -92958.122    1.8918427  0.042782985 
    3000   -925.97112    25.206701   -900.76442    902.81261   -91409.378    1.8918427   0.09205267 
    3100   -924.00021    23.239644   -900.76057    832.35978   -89239.711    1.8918427  0.080015834 
    3200   -925.71558    24.951752   -900.76383    893.68126   -91913.878    1.8918427   0.05966907 
    3300   -926.25178    25.486215   -900.76557    912.82381   -92179.432    1.8918427  0.013668987 
    3400   -927.66695    26.899795   -900.76716    963.45312   -93010.221    1.8918427   0.17493818 
    3500   -927.49131    26.725773   -900.76554    957.22027    -92787.33    1.8918427  0.012959364 
    3600   -926.91387    26.149733   -900.76413     936.5886   -91842.166    1.8918427  0.061497135 
    3700   -925.96765    25.201529   -900.76613    902.62736   -91993.763    1.8918427  0.058461787 
    3800   -926.54799     25.78241   -900.76558    923.43241   -91859.921    1.8918427   0.07411715 
    3900   -927.23241    26.466052   -900.76636    947.91801   -92984.841    1.8918427 0.0076536932 
    4000   -925.85725    25.091025   -900.76622    898.66952   -90899.964    1.8918427  0.090635187 
    4100   -927.74878     26.98342   -900.76536    966.44823   -93281.299    1.8918427  0.073159868 
    4200   -927.68016    26.914145   -900.76602    963.96706   -91433.102    1.8918427  0.017470479 
    4300   -925.85231    25.089075   -900.76323     898.5997   -90983.688    1.8918427  0.035787246 
    4400   -926.88285     26.11753   -900.76532     935.4352   -91928.741    1.8918427  0.060553587 
    4500   -928.14324    27.373529   -900.76971    980.42052   -93242.182    1.8918427   0.07361201 
    4600   -926.21143    25.445988   -900.76545      911.383   -91689.583    1.8918427  0.077665927 
    4700   -929.25257    28.483852   -900.76872    1020.1883   -94990.792    1.8918427 0.0070991909 
    4800   -930.13842    29.370193   -900.76822    1051.9338     -94154.9    1.8918427  0.056423428 
    4900   -926.28492    25.521752   -900.76317    914.09659   -90809.985    1.8918427 0.0024093812 
    5000   -927.28149    26.517009   -900.76448    949.74309   -92232.314    1.8918427  0.078606915 
    5100   -927.19692    26.431387   -900.76553    946.67643   -93773.577    1.8918427  0.078536864 
    5200   -924.88186    24.119067    -900.7628     863.8575   -91460.878    1.8918427  0.043580635 
    5300   -926.39194    25.626999   -900.76494    917.86615   -93051.691    1.8918427  0.077046798 
    5400   -928.45015    27.682082   -900.76807    991.47179   -93099.962    1.8918427  0.010242457 
    5500   -925.60923    24.845111   -900.76411    889.86179    -91517.08    1.8918427  0.073350981 
    5600    -928.1795    27.414886   -900.76462    981.90178   -92651.077    1.8918427  0.077999338 
    5700   -927.04779    26.281012   -900.76677    941.29054   -92933.833    1.8918427  0.088939994 
    5800   -926.45653    25.690327    -900.7662    920.13436   -92681.825    1.8918427  0.056603542 
    5900   -927.51449    26.748856   -900.76564    958.04703   -94345.102    1.8918427   0.10691095 
    6000   -928.24507    27.477425   -900.76765    984.14171   -93963.424    1.8918427  0.022899554 
    6100   -927.34112    26.574182   -900.76693    951.79082   -93207.681    1.8918427 0.0083562015 
    6200   -928.22998    27.463606   -900.76638    983.64677   -93307.574    1.8918427  0.056209019 
    6300   -927.50382     26.73957   -900.76425    957.71444   -92586.512    1.8918427   0.10822619 
    6400   -924.84671    24.084557   -900.76215    862.62148    -91623.26    1.8918427  0.041573238 
    6500   -925.44236    24.680416   -900.76194    883.96301   -91717.669    1.8918427  0.039849831 
    6600   -927.95759    27.191798   -900.76579    973.91158   -93517.687    1.8918427   0.03335566 
    6700   -926.85144    26.084426   -900.76702    934.24954   -92231.438    1.8918427  0.058424968 
    6800   -928.02434    27.257353   -900.76698    976.25954   -93376.813    1.8918427   0.12416832 
    6900   -925.86726    25.102745   -900.76452    899.08928    -90433.27    1.8918427   0.12491543 
    7000   -925.20002    24.434147   -900.76587    875.14253   -91515.907    1.8918427  0.053421477 
    7100    -928.0175    27.250546   -900.76695    976.01574   -92771.131    1.8918427  0.034820436 
    7200   -927.16329    26.397217   -900.76608     945.4526   -92436.721    1.8918427  0.057788368 
    7300   -925.32372    24.559814   -900.76391    879.64347   -91308.418    1.8918427  0.052843584 
    7400   -928.63334    27.867473   -900.76586    998.11183   -94025.383    1.8918427  0.026213129 
    7500   -926.81363    26.047019   -900.76661    932.90975   -90979.245    1.8918427  0.058951472 
    7600   -926.77941    26.015187   -900.76422    931.76966   -92607.283    1.8918427  0.052116199 
    7700   -927.31957    26.555443   -900.76412    951.11968   -91910.654    1.8918427   0.15345125 
    7800   -927.01615    26.251451    -900.7647    940.23176   -91987.066    1.8918427   0.04298993 
    7900    -927.9954    27.229066   -900.76633    975.24641   -93394.736    1.8918427  0.025264449 
    8000   -926.90639    26.142833   -900.76356    936.34146   -92098.985    1.8918427 0.0050756082 
    8100   -927.97902    27.209732   -900.76929    974.55393   -94595.662    1.8918427  0.068378492 
    8200    -927.1228    26.357988   -900.76481    944.04754   -92973.329    1.8918427  0.032647354 
    8300   -926.62543    25.860087   -900.76534    926.21455   -93256.021    1.8918427  0.090922329 
    8400   -927.18781    26.419363   -900.76844    946.24579   -93350.985    1.8918427   0.12624711 
    8500   -929.07612    28.306996   -900.76912    1013.8539   -94604.872    1.8918427  0.063863498 
    8600   -927.26424    26.498209   -900.76603    949.06973   -93319.241    1.8918427   0.09873596 
    8700     -925.463    24.700557   -900.76244    884.68438   -92580.168    1.8918427   0.13626317 
    8800   -927.85931    27.093418   -900.76589    970.38797   -93963.201    1.8918427  0.092732473 
    8900   -926.68274    25.918719   -900.76402    928.31451   -92741.017    1.8918427   0.12762188 
    9000   -927.03642    26.270785   -900.76564    940.92426   -92979.713    1.8918427   0.14699683 
    9100   -928.66997    27.903413   -900.76656    999.39905   -93564.774    1.8918427  0.053266611 
    9200   -926.40115    25.634765   -900.76639    918.14432   -92716.696    1.8918427   0.11568628 
    9300   -927.69076    26.924447   -900.76631    964.33605   -93574.079    1.8918427  0.076837974 
    9400   -928.31107    27.544653   -900.76642    986.54958   -94551.365    1.8918427  0.099201179 
    9500   -926.00088    25.236969   -900.76391     903.8967   -91841.469    1.8918427  0.026014112 
    9600   -927.63203    26.863365   -900.76867    962.14833   -94828.591    1.8918427  0.022061574 
    9700   -926.92626     26.15981   -900.76645    936.94951   -92807.993    1.8918427  0.010113623 
    9800   -927.33729    26.570677   -900.76661    951.66529   -92719.586    1.8918427  0.043006777 
    9900   -925.05419    24.289828   -900.76436    869.97353   -91786.015    1.8918427    0.1210058 
   10000   -928.38381     27.61551    -900.7683    989.08742   -94920.599    1.8918427  0.046430742 
   10100   -925.70425      24.9392   -900.76505     893.2317   -92399.792    1.8918427   0.11089708 
   10200   -927.39319    26.627774   -900.76542    953.71031   -93409.152    1.8918427   0.03367544 
   10300   -926.41311    25.648439   -900.76468    918.63409   -91675.279    1.8918427  0.033494535 
   10400   -928.64038    27.874065   -900.76631    998.34794   -93761.477    1.8918427 0.0052142752 
   10500   -928.49761    27.728679   -900.76893    993.14073   -94318.046    1.8918427  0.045523769 
   10600   -927.31312    26.548577   -900.76455    950.87373     -93306.8    1.8918427   0.11871516 
   10700   -926.42219    25.656297   -900.76589     918.9155   -93448.154    1.8918427  0.048056522 
   10800   -926.59688    25.831948   -900.76493     925.2067   -92787.195    1.8918427  0.037031943 
   10900   -928.32331    27.556571   -900.76674    986.97645   -93383.075    1.8918427   0.12198464 
   11000   -928.26388     27.49739   -900.76649    984.85679   -94982.674    1.8918427  0.046985046 
   11100   -926.47618    25.711413   -900.76476    920.88958   -91371.722    1.8918427   0.15972967 
   11200    -925.1475    24.386029   -900.76147    873.41911   -90635.158    1.8918427  0.012867438 
   11300   -927.95957    27.192949   -900.76662    973.95282   -93021.779    1.8918427   0.13607104 
   11400   -928.00645    27.239866   -900.76658    975.63321   -94532.807    1.8918427  0.022806226 
   11500    -927.2493    26.482564   -900.76673    948.50941   -93733.939    1.8918427  0.076741385 
   11600   -925.83774    25.073538    -900.7642     898.0432   -91082.345    1.8918427  0.025248571 
   11700   -925.65149     24.88801   -900.76348    891.39828    -91588.26    1.8918427  0.016699468 
   11800    -928.2104    27.442341   -900.76806    982.88514   -93988.792    1.8918427   0.04674054 
   11900   -926.83263    26.066929    -900.7657    933.62288   -92938.768    1.8918427   0.11874966 
   12000   -925.86273     25.09725   -900.76548    898.89248   -92134.166    1.8918427   0.11961705 
   12100   -926.15545     25.39148   -900.76397    909.43073   -93181.014    1.8918427    0.1046005 
   12200   -925.73285    24.967741   -900.76511    894.25394   -91277.991    1.8918427   0.11348629 
   12300   -926.48083    25.716791   -900.76404    921.08219   -92113.913    1.8918427  0.035932711 
   12400   -928.82942    28.062249   -900.76717     1005.088    -92730.74    1.8918427  0.046474298 
   12500   -926.31764    25.555051   -900.76259    915.28924   -91312.148    1.8918427  0.034332031 
   12600   -927.26049    26.495665   -900.76483    948.97863   -92575.196    1.8918427 0.0049976038 
   12700   -928.05064    27.285574   -900.76507    977.27031   -94416.061    1.8918427  0.042146346 
   12800   -924.99095    24.226939   -900.76401    867.72108   -92872.344    1.8918427  0.093524252 
   12900   -925.14658    24.384275    -900.7623     873.3563   -92315.339    1.8918427   0.09840484 
   13000    -925.7764    25.012064   -900.76433    895.84143   -93009.507    1.8918427  0.067574819 
   13100   -927.42952    26.663193   -900.76633    954.97889   -93633.098    1.8918427  0.031912098 
   13200    -928.0609    27.294993   -900.76591    977.60766   -94007.253    1.8918427   0.13233823 
   13300   -928.41246    27.646212   -900.76624    990.18705   -93738.511    1.8918427    0.2174141 
   13400   -926.26927    25.504429   -900.76484    913.47615   -92999.292    1.8918427  0.018475258 
   13500    -927.8407    27.075164   -900.76554     969.7342   -94147.592    1.8918427   0.11893192 
   13600    -926.3445    25.579737   -900.76476    916.17343   -91962.629    1.8918427  0.089752028 
   13700    -927.4968    26.730997    -900.7658    957.40737   -95173.244    1.8918427   0.16312538 
   13800   -926.21215    25.448241   -900.76391     911.4637    -91692.09    1.8918427   0.20931725 
   13900   -925.27504    24.512827   -900.76222    877.96055   -92017.038    1.8918427   0.29071235 
   14000   -925.94832    25.183501   -900.76482    901.98167   -92126.071    1.8918427  0.088210745 
   14100   -927.18661    26.421753   -900.76485    946.33138   -94069.721    1.8918427   0.10214771 
   14200   -925.49631    24.734183   -900.76212    885.88875   -90788.978    1.8918427  0.032324556 
   14300   -928.28525    27.515721   -900.76953    985.51333   -96079.516    1.8918427  0.083841338 
   14400   -928.04357    27.277207   -900.76637    976.97062   -95028.308    1.8918427   0.03862281 
   14500    -925.0518    24.289063   -900.76274    869.94614   -92779.798    1.8918427  0.014852976 
   14600    -926.5947    25.828809   -900.76589    925.09428   -93946.886    1.8918427  0.070806041 
   14700   -926.83351    26.068522   -900.76499    933.67991   -93904.996    1.8918427   0.15302762 
   14800   -925.44284    24.680252   -900.76258    883.95714   -92848.241    1.8918427   0.29970181 
   14900   -927.22432    26.457764   -900.76656    947.62114   -93316.297    1.8918427  0.035833469 
   15000   -928.58868     27.82277   -900.76591    996.51073   -95223.987    1.8918427   0.03397425 
   15100   -927.46656    26.698298   -900.76826    956.23622   -95198.699    1.8918427  0.072880385 
   15200   -925.80575    25.040757   -900.76499    896.86911   -93332.296    1.8918427   0.10177928 
   15300   -927.68433    26.919557   -900.76478     964.1609   -94764.194    1.8918427   0.14000134 
   15400   -925.09521    24.331304    -900.7639    871.45908   -92168.089    1.8918427 0.0031143974 
   15500   -926.94537    26.180241   -900.76513    937.68128   -92252.925    1.8918427  0.066197332 
   15600   -928.77847    28.012487   -900.76599    1003.3057    -94132.13    1.8918427   0.13255441 
   15700   -924.98396     24.22047    -900.7635    867.48939   -91857.246    1.8918427  0.045343551 
   15800   -926.56676    25.802373   -900.76439    924.14743    -93801.93    1.8918427  0.098874932 
   15900   -926.02491    25.260015   -900.76489    904.72212   -92008.535    1.8918427   0.24129286 
   16000   -928.78811    28.021522   -900.76658    1003.6293   -94504.916    1.8918427 0.0039564516 
   16100   -926.09511    25.331834   -900.76327    907.29444   -91438.607    1.8918427  0.037345309 
   16200   -927.08737    26.322234   -900.76513    942.76697   -92698.263    1.8918427   0.18296482 
   16300   -927.40205    26.634928   -900.76713    953.96652   -95258.982    1.8918427   0.23051655 
   16400   -926.56597    25.800831   -900.76514    924.09219   -93558.779    1.8918427   0.29592106 
   16500   -928.09024    27.324674   -900.76556    978.67074   -94616.872    1.8918427  0.088782413 
   16600   -926.08368    25.318812   -900.76487    906.82804   -93145.375    1.8918427  0.039343099 
   16700   -926.20724    25.442665   -900.76458    911.26398   -92886.293    1.8918427  0.071067192 
   16800   -927.26196    26.494933   -900.76703    948.95242   -94596.094    1.8918427   0.12316763 
   16900    -926.4003    25.635435   -900.76486    918.16831   -92567.177    1.8918427   0.13195791 
   17000   -928.60408    27.838927   -900.76515     997.0894   -95525.336    1.8918427   0.05552556 
   17100   -927.64467    26.878602   -900.76607    962.69405   -92943.833    1.8918427  0.070492978 
   17200   -927.04903    26.281784   -900.76724    941.31819   -94221.742    1.8918427  0.051364593 
   17300   -925.69633    24.932696   -900.76364    892.99876   -92251.361    1.8918427  0.040016316 
   17400   -927.25586    26.490635   -900.76523    948.79848   -93986.904    1.8918427 0.0099958851 
   17500   -926.89596    26.131269   -900.76469    935.92729   -92598.927    1.8918427  0.045066926 
   17600   -926.08942    25.323325    -900.7661    906.98965   -91840.357    1.8918427  0.028287371 
   17700   -927.33912    26.574789   -900.76433    951.81256   -93415.652    1.8918427  0.017744192 
   17800   -927.81475    27.047465   -900.76728     968.7421    -94464.22    1.8918427  0.028978037 
   17900   -927.86106    27.094969   -900.76609    970.44351   -94145.265    1.8918427  0.043175735 
   18000   -926.69753    25.932709   -900.76482    928.81559   -93648.176    1.8918427  0.034046641 
   18100    -925.2631    24.502438   -900.76066    877.58847    -92272.07    1.8918427  0.053645918 
   18200   -926.72864    25.963739    -900.7649    929.92698   -93215.279    1.8918427 0.0025954056 
   18300   -926.85621    26.090803   -900.76541    934.47796   -94176.824    1.8918427  0.073841713 
   18400   -926.69741    25.934054   -900.76336    928.86376   -92225.501    1.8918427  0.035783758 
   18500   -927.75436    26.987256    -900.7671    966.58563   -93801.795    1.8918427   0.11480218 
   18600   -926.24008    25.475542   -900.76454    912.44153   -94127.856    1.8918427   0.19677104 
   18700   -926.26824    25.504227   -900.76401    913.46893   -93832.771    1.8918427   0.13345877 
   18800   -927.41512    26.648776   -900.76634    954.46252   -94080.289    1.8918427   0.12612377 
   18900   -926.96777    26.200427   -900.76734    938.40428   -93970.377    1.8918427  0.087833161 
   19000   -926.09307    25.328845   -900.76422    907.18737   -92444.524    1.8918427  0.020059704 
   19100   -928.37113    27.605622    -900.7655    988.73327   -94745.901    1.8918427  0.038960781 
   19200   -925.62791    24.863791   -900.76412    890.53081   -92013.339    1.8918427  0.056853491 
   19300   -927.93182    27.165709   -900.76612    972.97718   -94111.504    1.8918427  0.069266921 
   19400   -926.60161    25.836789   -900.76482    925.38008    -93478.11    1.8918427    0.1029881 
   19500   -929.21591    28.447025   -900.76889    1018.8693   -95241.019    1.8918427  0.082903949 
   19600   -926.58433    25.819488   -900.76484    924.76044   -93302.214    1.8918427  0.033993422 
   19700   -927.11855     26.35373   -900.76482    943.89504   -93684.022    1.8918427  0.034937258 
   19800   -928.02475    27.259015   -900.76574    976.31906   -94417.929    1.8918427  0.044575396 
   19900   -926.69632    25.930806   -900.76551    928.74745    -92856.59    1.8918427 0.0069029644 
   20000   -926.55282    25.785114    -900.7677    923.52928   -93602.903    1.8918427 0.0070616764 
   20100   -924.78457    24.017984   -900.76659     860.2371   -93350.717    1.8918427  0.021891916 
   20200   -927.48781    26.721097   -900.76672     957.0528   -94008.097    1.8918427  0.029427446 
   20300   -925.48619     24.72165   -900.76454    885.43985   -92969.988    1.8918427  0.041354472 
   20400   -927.50325    26.736558   -900.76669    957.60654   -93152.097    1.8918427 0.0093313132 
   20500   -928.06864     27.30167   -900.76697     977.8468   -94469.702    1.8918427  0.063797889 
   20600   -928.43427    27.667839   -900.76643    990.96165   -94465.906    1.8918427   0.10779595 
   20700   -926.69913    25.936158   -900.76297    928.93911   -93533.763    1.8918427   0.11069015 
   20800   -926.58898    25.823307   -900.76567     924.8972   -92957.141    1.8918427  0.063720602 
   20900   -927.89179    27.126752   -900.76504    971.58189    -94310.85    1.8918427  0.045210444 
   21000    -925.9443    25.180569   -900.76373    901.87666   -93102.899    1.8918427  0.020306709 
   21100   -925.63308    24.870518   -900.76257    890.77176   -92602.081    1.8918427  0.066925853 
   21200   -927.83626    27.069858    -900.7664    969.54415   -95068.006    1.8918427   0.14519621 
   21300   -929.07885    28.311487   -900.76736    1014.0148   -94294.278    1.8918427  0.088259505 
   21400   -925.40836    24.644812   -900.76355     882.6878    -92284.87    1.8918427  0.066674832 
   21500   -925.85882    25.093734   -900.76509    898.76656   -91712.791    1.8918427  0.031035785 
   21600   -927.15872    26.393278   -900.76545    945.31149   -95149.662    1.8918427  0.044553715 
   21700   -926.38715    25.621214   -900.76594    917.65898   -93597.826    1.8918427  0.022890598 
   21800    -927.2661    26.500215   -900.76589    949.14161   -93244.363    1.8918427    0.1320454 
   21823   -927.02156    26.257199   -900.76436    940.43766   -93418.758    1.8918427  0.077135597 
Loop time of 11.4884 on 1 procs for 21823 steps with 217 atoms

Performance: 150.417 ns/day, 0.160 hours/ns, 1899.571 timesteps/s
100.0% CPU use with 1 MPI tasks x no OpenMP threads

MPI task timing breakdown:
Section |  min time  |  avg time  |  max time  |%varavg| %total
---------------------------------------------------------------
Pair    | 11.313     | 11.313     | 11.313     |   0.0 | 98.48
Neigh   | 0.0010932  | 0.0010932  | 0.0010932  |   0.0 |  0.01
Comm    | 0.089309   | 0.089309   | 0.089309   |   0.0 |  0.78
Output  | 0.0063721  | 0.0063721  | 0.0063721  |   0.0 |  0.06
Modify  | 0.047637   | 0.047637   | 0.047637   |   0.0 |  0.41
Other   |            | 0.03073    |            |       |  0.27

Nlocal:    217 ave 217 max 217 min
Histogram: 1 0 0 0 0 0 0 0 0 0
Nghost:    911 ave 911 max 911 min
Histogram: 1 0 0 0 0 0 0 0 0 0
Neighs:    3601 ave 3601 max 3601 min
Histogram: 1 0 0 0 0 0 0 0 0 0
FullNghs:  7202 ave 7202 max 7202 min
Histogram: 1 0 0 0 0 0 0 0 0 0

Total # of neighbors = 7202
Ave neighs/atom = 33.1889
Neighbor list builds = 2
Dangerous builds = 0
Total wall time: 0:00:11
