
     Program PWSCF v.6.4.1 starts on 14Dec2020 at  2:49:35 

     This program is part of the open-source Quantum ESPRESSO suite
     for quantum simulation of materials; please cite
         "P. Giannozzi et al., J. Phys.:Condens. Matter 21 395502 (2009);
         "P. Giannozzi et al., J. Phys.:Condens. Matter 29 465901 (2017);
          URL http://www.quantum-espresso.org", 
     in publications or presentations arising from this work. More details at
     http://www.quantum-espresso.org/quote

     Parallel version (MPI), running on     1 processors

     MPI processes distributed on     1 nodes
     Waiting for input...
     Reading input from standard input
Warning: card &IONS ignored
Warning: card / ignored
Warning: card &CELL ignored
Warning: card / ignored

     Current dimensions of program PWSCF are:
     Max number of different atomic species (ntypx) = 10
     Max number of k-points (npk) =  40000
     Max angular momentum in pseudopotentials (lmaxx) =  3

     Subspace diagonalization in iterative solution of the eigenvalue problem:
     a serial algorithm will be used


     G-vector sticks info
     --------------------
     sticks:   dense  smooth     PW     G-vecs:    dense   smooth      PW
     Sum         621     621    185                11753    11753    1863



     bravais-lattice index     =            0
     lattice parameter (alat)  =       8.8817  a.u.
     unit-cell volume          =     700.6323 (a.u.)^3
     number of atoms/cell      =           10
     number of atomic types    =            4
     number of electrons       =        32.00
     number of Kohn-Sham states=           16
     kinetic-energy cutoff     =      25.0000  Ry
     charge density cutoff     =     100.0000  Ry
     convergence threshold     =      1.0E-07
     mixing beta               =       0.5000
     number of iterations used =            8  plain     mixing
     Exchange-correlation      =  SLA  PW   PBX  PBC ( 1  4  3  4 0 0)

     celldm(1)=   8.881713  celldm(2)=   0.000000  celldm(3)=   0.000000
     celldm(4)=   0.000000  celldm(5)=   0.000000  celldm(6)=   0.000000

     crystal axes: (cart. coord. in units of alat)
               a(1) = (   1.000000   0.000000   0.000000 )  
               a(2) = (   0.000000   1.000000   0.000000 )  
               a(3) = (   0.000000   0.000000   1.000000 )  

     reciprocal axes: (cart. coord. in units 2 pi/alat)
               b(1) = (  1.000000  0.000000  0.000000 )  
               b(2) = (  0.000000  1.000000  0.000000 )  
               b(3) = (  0.000000  0.000000  1.000000 )  


     PseudoPot. # 1 for B  read from file:
     /home/modeler/qe_pseudo/b_pbe_v1.4.uspp.F.UPF
     MD5 check sum: cc6de2960df11db49a60e589f9ebb39b
     Pseudo is Ultrasoft + core correction, Zval =  3.0
     Generated by new atomic code, or converted to UPF format
     Using radial grid of  781 points,  4 beta functions with: 
                l(1) =   0
                l(2) =   0
                l(3) =   1
                l(4) =   1
     Q(r) pseudized with  8 coefficients,  rinner =    1.100   1.100   1.100


     PseudoPot. # 2 for H  read from file:
     /home/modeler/qe_pseudo/H.pbe-rrkjus_psl.1.0.0.UPF
     MD5 check sum: f52b6d4d1c606e5624b1dc7b2218f220
     Pseudo is Ultrasoft, Zval =  1.0
     Generated using "atomic" code by A. Dal Corso v.5.1
     Using radial grid of  929 points,  2 beta functions with: 
                l(1) =   0
                l(2) =   0
     Q(r) pseudized with 0 coefficients 


     PseudoPot. # 3 for N  read from file:
     /home/modeler/qe_pseudo/N.pbe-n-radius_5.UPF
     MD5 check sum: 16739722b17309cd8fe442a2ace49922
     Pseudo is Ultrasoft + core correction, Zval =  5.0
     Generated using "atomic" code by A. Dal Corso v.5.1
     Using radial grid of 1085 points,  4 beta functions with: 
                l(1) =   0
                l(2) =   0
                l(3) =   1
                l(4) =   1
     Q(r) pseudized with 0 coefficients 


     PseudoPot. # 4 for Na read from file:
     /home/modeler/qe_pseudo/na_pbe_v1.5.uspp.F.UPF
     MD5 check sum: 44600605ef58000f06b90626533354dc
     Pseudo is Ultrasoft, Zval =  9.0
     Generated by new atomic code, or converted to UPF format
     Using radial grid of  819 points,  5 beta functions with: 
                l(1) =   0
                l(2) =   0
                l(3) =   1
                l(4) =   1
                l(5) =   2
     Q(r) pseudized with  8 coefficients,  rinner =    1.250   1.250   1.250
                                                       1.250   1.250

     atomic species   valence    mass     pseudopotential
        B              3.00    10.81000     B ( 1.00)
        H              1.00     1.00800     H ( 1.00)
        N              5.00    14.00700     N ( 1.00)
        Na             9.00    22.98977     Na( 1.00)

     No symmetry found



   Cartesian axes

     site n.     atom                  positions (alat units)
         1           Na  tau(   1) = (   0.5000000   0.0000000   0.5000000  )
         2           Na  tau(   2) = (   0.0000000   0.5000000   0.5000000  )
         3           N   tau(   3) = (   0.5000000   0.5000000   0.5000000  )
         4           H   tau(   4) = (   0.6965851   0.5000000   0.4304957  )
         5           H   tau(   5) = (   0.4017064   0.6702489   0.4304957  )
         6           B   tau(   6) = (   0.0000000   0.0000000   0.0000000  )
         7           H   tau(   7) = (   0.2347000   0.0000000  -0.0829787  )
         8           H   tau(   8) = (  -0.1173489   0.2032553  -0.0829787  )
         9           H   tau(   9) = (  -0.1173489  -0.2032553  -0.0829787  )
        10           H   tau(  10) = (   0.0000000   0.0000000   0.2489362  )

     number of k points=    14
                       cart. coord. in units 2pi/alat
        k(    1) = (   0.0000000   0.0000000   0.0000000), wk =   0.0740741
        k(    2) = (   0.0000000   0.0000000   0.3333333), wk =   0.1481481
        k(    3) = (   0.0000000   0.3333333   0.3333333), wk =   0.1481481
        k(    4) = (   0.3333333   0.3333333   0.3333333), wk =   0.1481481
        k(    5) = (   0.3333333   0.0000000   0.0000000), wk =   0.1481481
        k(    6) = (   0.0000000   0.3333333   0.0000000), wk =   0.1481481
        k(    7) = (   0.0000000  -0.3333333   0.3333333), wk =   0.1481481
        k(    8) = (   0.3333333   0.0000000  -0.3333333), wk =   0.1481481
        k(    9) = (  -0.3333333   0.0000000  -0.3333333), wk =   0.1481481
        k(   10) = (   0.3333333  -0.3333333   0.0000000), wk =   0.1481481
        k(   11) = (  -0.3333333  -0.3333333   0.0000000), wk =   0.1481481
        k(   12) = (  -0.3333333  -0.3333333   0.3333333), wk =   0.1481481
        k(   13) = (  -0.3333333   0.3333333  -0.3333333), wk =   0.1481481
        k(   14) = (   0.3333333  -0.3333333  -0.3333333), wk =   0.1481481

     Dense  grid:    11753 G-vectors     FFT dimensions: (  30,  30,  30)

     Estimated max dynamical RAM per process >      41.84 MB

     Check: negative core charge=   -0.000058

     Initial potential from superposition of free atoms

     starting charge   31.98707, renormalised to   32.00000
     Starting wfcs are   24 randomized atomic wfcs

     total cpu time spent up to now is        1.6 secs

     Self-consistent Calculation

     iteration #  1     ecut=    25.00 Ry     beta= 0.50
     Davidson diagonalization with overlap
     ethr =  1.00E-02,  avg # of iterations =  2.0

     total cpu time spent up to now is        3.0 secs

     total energy              =    -223.74467302 Ry
     Harris-Foulkes estimate   =    -224.64462833 Ry
     estimated scf accuracy    <       1.58717758 Ry

     iteration #  2     ecut=    25.00 Ry     beta= 0.50
     Davidson diagonalization with overlap
     ethr =  4.96E-03,  avg # of iterations =  2.2

     total cpu time spent up to now is        4.4 secs

     total energy              =    -224.05663736 Ry
     Harris-Foulkes estimate   =    -224.16218391 Ry
     estimated scf accuracy    <       0.23385382 Ry

     iteration #  3     ecut=    25.00 Ry     beta= 0.50
     Davidson diagonalization with overlap
     ethr =  7.31E-04,  avg # of iterations =  2.4

     total cpu time spent up to now is        5.7 secs

     total energy              =    -224.09592345 Ry
     Harris-Foulkes estimate   =    -224.10723811 Ry
     estimated scf accuracy    <       0.02991491 Ry

     iteration #  4     ecut=    25.00 Ry     beta= 0.50
     Davidson diagonalization with overlap
     ethr =  9.35E-05,  avg # of iterations =  2.2

     total cpu time spent up to now is        7.0 secs

     total energy              =    -224.09931877 Ry
     Harris-Foulkes estimate   =    -224.09984986 Ry
     estimated scf accuracy    <       0.00243536 Ry

     iteration #  5     ecut=    25.00 Ry     beta= 0.50
     Davidson diagonalization with overlap
     ethr =  7.61E-06,  avg # of iterations =  2.0

     total cpu time spent up to now is        8.3 secs

     total energy              =    -224.09947836 Ry
     Harris-Foulkes estimate   =    -224.09949856 Ry
     estimated scf accuracy    <       0.00010738 Ry

     iteration #  6     ecut=    25.00 Ry     beta= 0.50
     Davidson diagonalization with overlap
     ethr =  3.36E-07,  avg # of iterations =  3.0

     total cpu time spent up to now is        9.7 secs

     total energy              =    -224.09950507 Ry
     Harris-Foulkes estimate   =    -224.09950434 Ry
     estimated scf accuracy    <       0.00001081 Ry

     iteration #  7     ecut=    25.00 Ry     beta= 0.50
     Davidson diagonalization with overlap
     ethr =  3.38E-08,  avg # of iterations =  2.0

     total cpu time spent up to now is       11.1 secs

     total energy              =    -224.09950658 Ry
     Harris-Foulkes estimate   =    -224.09950653 Ry
     estimated scf accuracy    <       0.00000109 Ry

     iteration #  8     ecut=    25.00 Ry     beta= 0.50
     Davidson diagonalization with overlap
     ethr =  3.41E-09,  avg # of iterations =  2.6

     total cpu time spent up to now is       12.5 secs

     End of self-consistent calculation

          k = 0.0000 0.0000 0.0000 (  1419 PWs)   bands (ev):

   -51.5554 -50.8225 -23.5513 -23.3390 -23.2693 -22.7320 -22.6189 -22.5652
   -14.9229  -7.5042  -6.2755  -2.4116  -1.9235  -1.7118  -1.0943   0.6062

          k = 0.0000 0.0000 0.3333 (  1458 PWs)   bands (ev):

   -51.5628 -50.8299 -23.5691 -23.3574 -23.3081 -22.7479 -22.6479 -22.5921
   -14.9189  -7.3774  -6.2638  -2.9786  -1.7698  -1.7238  -1.2981   0.3713

          k = 0.0000 0.3333 0.3333 (  1498 PWs)   bands (ev):

   -51.5692 -50.8363 -23.5946 -23.3806 -23.3169 -22.7906 -22.6715 -22.6126
   -14.8467  -7.2935  -6.3439  -2.9863  -2.3580  -1.6408  -1.2819   0.4011

          k = 0.3333 0.3333 0.3333 (  1463 PWs)   bands (ev):

   -51.5637 -50.8309 -23.5999 -23.3637 -23.2978 -22.7764 -22.6454 -22.5941
   -14.7386  -7.1990  -6.5418  -2.8772  -2.2419  -2.0544  -1.5441   0.3950

          k = 0.3333 0.0000 0.0000 (  1458 PWs)   bands (ev):

   -51.5628 -50.8299 -23.6057 -23.3515 -23.2867 -22.7664 -22.6467 -22.5834
   -14.8175  -7.5292  -6.3562  -2.3602  -2.2018  -1.7827  -1.3308   0.4985

          k = 0.0000 0.3333 0.0000 (  1458 PWs)   bands (ev):

   -51.5627 -50.8300 -23.5662 -23.3783 -23.2847 -22.7745 -22.6443 -22.5922
   -14.8505  -7.4592  -6.2981  -2.4025  -2.2243  -1.7076  -1.4548   0.4500

          k = 0.0000-0.3333 0.3333 (  1498 PWs)   bands (ev):

   -51.5692 -50.8363 -23.5939 -23.3857 -23.3125 -22.7869 -22.6665 -22.6214
   -14.8476  -7.3003  -6.3364  -2.9439  -2.3328  -1.6624  -1.4113   0.4924

          k = 0.3333 0.0000-0.3333 (  1498 PWs)   bands (ev):

   -51.5691 -50.8364 -23.6082 -23.3811 -23.3186 -22.7795 -22.6709 -22.6102
   -14.8153  -7.3286  -6.4722  -2.8293  -2.3031  -1.6937  -1.3550   0.4929

          k =-0.3333 0.0000-0.3333 (  1498 PWs)   bands (ev):

   -51.5691 -50.8364 -23.6126 -23.3816 -23.3130 -22.7830 -22.6627 -22.6150
   -14.8152  -7.3354  -6.4592  -2.8516  -2.3136  -1.6724  -1.3078   0.4350

          k = 0.3333-0.3333 0.0000 (  1498 PWs)   bands (ev):

   -51.5690 -50.8362 -23.6142 -23.3846 -23.3158 -22.7775 -22.6715 -22.6165
   -14.7483  -7.4123  -6.4645  -2.4829  -2.3175  -2.1115  -1.3095   0.4684

          k =-0.3333-0.3333 0.0000 (  1498 PWs)   bands (ev):

   -51.5690 -50.8362 -23.6157 -23.3829 -23.3148 -22.7913 -22.6632 -22.6124
   -14.7490  -7.3357  -6.5745  -2.3899  -2.2457  -2.1224  -1.4163   0.4453

          k =-0.3333-0.3333 0.3333 (  1463 PWs)   bands (ev):

   -51.5638 -50.8309 -23.5960 -23.3674 -23.2983 -22.7709 -22.6477 -22.5973
   -14.7403  -7.1946  -6.5487  -2.8609  -2.3187  -2.0658  -1.4158   0.3137

          k =-0.3333 0.3333-0.3333 (  1463 PWs)   bands (ev):

   -51.5637 -50.8309 -23.5987 -23.3689 -23.2951 -22.7612 -22.6487 -22.6048
   -14.7401  -7.2255  -6.5230  -2.7538  -2.3187  -2.1286  -1.4679   0.3432

          k = 0.3333-0.3333-0.3333 (  1463 PWs)   bands (ev):

   -51.5638 -50.8309 -23.5957 -23.3649 -23.3024 -22.7613 -22.6593 -22.5938
   -14.7384  -7.2299  -6.5182  -2.7712  -2.3070  -2.1033  -1.5139   0.3468

     highest occupied level (ev):     0.6062

!    total energy              =    -224.09950678 Ry
     Harris-Foulkes estimate   =    -224.09950679 Ry
     estimated scf accuracy    <       0.00000006 Ry

     The total energy is the sum of the following terms:

     one-electron contribution =    -196.15791355 Ry
     hartree contribution      =     104.12926806 Ry
     xc contribution           =     -41.72997898 Ry
     ewald contribution        =     -90.34088232 Ry

     convergence has been achieved in   8 iterations

     Forces acting on atoms (cartesian axes, Ry/au):

     atom    1 type  4   force =     0.01869512    0.07986507    0.02069592
     atom    2 type  4   force =     0.12907193   -0.01279470    0.04034280
     atom    3 type  3   force =    -0.04707365   -0.08779772    0.07811693
     atom    4 type  2   force =    -0.06938570    0.01568159   -0.07931163
     atom    5 type  2   force =    -0.03269206    0.00824059   -0.06791006
     atom    6 type  1   force =     0.00667648   -0.00331447   -0.02763366
     atom    7 type  2   force =     0.05085323   -0.00014224   -0.00989805
     atom    8 type  2   force =    -0.02786933    0.04530514   -0.01303868
     atom    9 type  2   force =    -0.02844860   -0.04474595   -0.01361441
     atom   10 type  2   force =     0.00017258   -0.00029731    0.07225084

     Total force =     0.271021     Total SCF correction =     0.000355


     Computing stress (Cartesian axis) and pressure

          total   stress  (Ry/bohr**3)                   (kbar)     P= -127.66
  -0.00045122   0.00013879   0.00008594        -66.38     20.42     12.64
   0.00013879  -0.00075348  -0.00000136         20.42   -110.84     -0.20
   0.00008594  -0.00000136  -0.00139866         12.64     -0.20   -205.75


     init_run     :      1.23s CPU      1.26s WALL (       1 calls)
     electrons    :     10.82s CPU     10.89s WALL (       1 calls)
     forces       :      0.25s CPU      0.25s WALL (       1 calls)
     stress       :      0.55s CPU      0.55s WALL (       1 calls)

     Called by init_run:
     wfcinit      :      0.63s CPU      0.64s WALL (       1 calls)
     potinit      :      0.03s CPU      0.03s WALL (       1 calls)
     hinit0       :      0.54s CPU      0.54s WALL (       1 calls)

     Called by electrons:
     c_bands      :      8.78s CPU      8.83s WALL (       8 calls)
     sum_band     :      1.66s CPU      1.67s WALL (       8 calls)
     v_of_rho     :      0.17s CPU      0.17s WALL (       9 calls)
     newd         :      0.24s CPU      0.26s WALL (       9 calls)
     mix_rho      :      0.02s CPU      0.02s WALL (       8 calls)

     Called by c_bands:
     init_us_2    :      0.22s CPU      0.22s WALL (     266 calls)
     cegterg      :      8.42s CPU      8.46s WALL (     112 calls)

     Called by sum_band:
     sum_band:bec :      0.00s CPU      0.00s WALL (     112 calls)
     addusdens    :      0.21s CPU      0.22s WALL (       8 calls)

     Called by *egterg:
     h_psi        :      6.90s CPU      6.94s WALL (     384 calls)
     s_psi        :      0.64s CPU      0.65s WALL (     384 calls)
     g_psi        :      0.03s CPU      0.03s WALL (     258 calls)
     cdiaghg      :      0.19s CPU      0.19s WALL (     370 calls)

     Called by h_psi:
     h_psi:pot    :      6.89s CPU      6.92s WALL (     384 calls)
     h_psi:calbec :      0.72s CPU      0.72s WALL (     384 calls)
     vloc_psi     :      5.52s CPU      5.55s WALL (     384 calls)
     add_vuspsi   :      0.65s CPU      0.65s WALL (     384 calls)

     General routines
     calbec       :      1.14s CPU      1.14s WALL (     566 calls)
     fft          :      0.16s CPU      0.16s WALL (     124 calls)
     ffts         :      0.01s CPU      0.01s WALL (       8 calls)
     fftw         :      6.03s CPU      6.07s WALL (   11316 calls)

     Parallel routines

     PWSCF        :     13.22s CPU     13.32s WALL


   This run was terminated on:   2:49:48  14Dec2020            

=------------------------------------------------------------------------------=
   JOB DONE.
=------------------------------------------------------------------------------=
