LAMMPS (3 Mar 2020)

    # ---------- Initialize simulation ---------------------
    units metal
    atom_style atomic
    dimension  3
    boundary   p p p
    read_data /home/modeler/RemLabs/Lab4/Problem2A_v1_size_3/temp_2260/lammps.data
  orthogonal box = (0 0 0) to (12.27 12.27 12.27)
  1 by 1 by 1 MPI processor grid
  reading atoms ...
  108 atoms
  read_data CPU = 0.000879994 secs

    pair_style eam
    pair_coeff * * /usr/share/lammps-stable/potentials/Ag_u3.eam
Reading potential file /usr/share/lammps-stable/potentials/Ag_u3.eam with DATE: 2007-06-11

    velocity  all create 2260 87287 dist gaussian

    # ---------- Describe computed properties------------------
    compute msdall all msd
    thermo_style custom step pe ke etotal temp press density c_msdall[4]
    thermo 100

    # ---------- Specify ensemble  ---------------------
    #fix  1 all nve
    fix  1 all nvt temp 2260 2260 0.25

    # --------- Compute RDF ---------------
    compute rdfall all rdf 100 1 1
    fix 2 all ave/time 1 125000 125000 c_rdfall[*] file /home/modeler/RemLabs/Lab4/Problem2A_v1_size_3/temp_2260/lammps.rdf mode vector

    # --------- Run -------------
    timestep 0.005
    run 500000
Neighbor list info ...
  update every 1 steps, delay 10 steps, check yes
  max neighbors/atom: 2000, page size: 100000
  master list distance cutoff = 7.55
  ghost atom cutoff = 7.55
  binsize = 3.775, bins = 4 4 4
  2 neighbor lists, perpetual/occasional/extra = 1 1 0
  (1) pair eam, perpetual
      attributes: half, newton on
      pair build: half/bin/atomonly/newton
      stencil: half/bin/3d/newton
      bin: standard
  (2) compute rdf, occasional, copy from (1)
      attributes: half, newton on
      pair build: copy
      stencil: none
      bin: none
Per MPI rank memory allocation (min/avg/max) = 3.723 | 3.723 | 3.723 Mbytes
Step PotEng KinEng TotEng Temp Press Density c_msdall[4] 
       0       -307.8    31.257688   -276.54231         2260    18073.442    10.472245            0 
     100   -287.75047    22.800353   -264.95012    1648.5159    82436.724    10.472245   0.11081009 
     200   -276.98696    29.576833   -247.41012    2138.4705    118737.62    10.472245   0.15090343 
     300   -274.77708    36.562425   -238.21466    2643.5442    128932.23    10.472245   0.24777588 
     400   -274.28139    29.285278   -244.99612    2117.3904    125018.18    10.472245   0.25365308 
     500   -280.32352    32.896357   -247.42717    2378.4794    111468.29    10.472245   0.14518437 
     600   -274.40046    33.407607   -240.99285    2415.4438    128923.58    10.472245   0.20561019 
     700   -275.38584    29.227979   -246.15786    2113.2475     122118.9    10.472245   0.20949485 
     800   -280.73958    32.464387   -248.27519     2347.247    109527.62    10.472245   0.15502764 
     900   -272.89931    28.168271   -244.73103    2036.6283    127491.79    10.472245   0.19507906 
    1000   -274.39624    29.335297   -245.06095    2121.0068    127639.41    10.472245   0.20396186 
    1100   -277.14011    31.861775   -245.27834    2303.6768    120698.16    10.472245   0.19821003 
    1200   -271.90458    33.581616   -238.32296    2428.0251    137405.34    10.472245   0.23708079 
    1300   -280.25556    34.972574   -245.28299    2528.5945    112013.52    10.472245   0.16883233 
    1400   -277.03108    29.548543   -247.48254     2136.425    119032.73    10.472245   0.17395102 
    1500   -274.76217    35.711028   -239.05114    2581.9863    131003.08    10.472245   0.20871827 
    1600   -275.36005    33.372232   -241.98782    2412.8862    127775.54    10.472245    0.1970304 
    1700     -273.032    28.268916   -244.76309    2043.9052    132105.97    10.472245   0.23425396 
    1800   -279.49353    34.285153   -245.20838    2478.8924    115111.85    10.472245   0.16618248 
    1900   -279.46331       30.431   -249.03231    2200.2286    111659.62    10.472245   0.18860102 
    2000   -270.94385     29.44033   -241.50352     2128.601    139690.03    10.472245   0.22916156 
    2100   -273.93087    28.357772    -245.5731    2050.3296    128163.35    10.472245   0.25727945 
    2200   -280.70959    26.660009   -254.04958    1927.5776    103445.65    10.472245   0.14230668 
    2300   -278.01208    30.312095   -247.69998    2191.6315    118129.01    10.472245   0.18584119 
    2400   -275.75765    32.576096   -243.18155    2355.3238    124360.29    10.472245   0.16538461 
    2500   -274.91918    25.909086   -249.01009    1873.2842    122221.33    10.472245   0.25719971 
    2600   -274.66584    30.585958   -244.07988    2211.4324     124949.6    10.472245   0.19279904 
    2700   -271.57146    30.129215   -241.44224    2178.4089    135548.97    10.472245   0.21721187 
    2800   -277.24182    29.529815     -247.712     2135.071    119308.28    10.472245   0.18098274 
    2900   -277.75871    33.652644   -244.10606    2433.1606    121510.74    10.472245   0.16019602 
    3000   -270.27343    35.705566   -234.56786    2581.5914     142606.2    10.472245   0.22768008 
    3100   -277.46367    31.184175   -246.27949    2254.6848    120482.58    10.472245   0.20425402 
    3200   -276.67118    29.736586   -246.93459     2150.021    120840.53    10.472245   0.18432757 
    3300   -272.38086    33.405955    -238.9749    2415.3244    137074.88    10.472245   0.18952295 
    3400   -276.84037    32.397409   -244.44296    2342.4043    120507.51    10.472245   0.19133198 
    3500   -276.32869    30.237551   -246.09114    2186.2418    121312.01    10.472245   0.22232234 
    3600   -271.83486    32.406961    -239.4279     2343.095    136163.54    10.472245   0.25394242 
    3700   -272.20483    29.321334    -242.8835    2119.9973    133168.37    10.472245    0.2265682 
    3800   -274.55036    27.784551   -246.76581    2008.8845    127988.47    10.472245   0.20967868 
    3900    -275.1729    35.135276   -240.03762    2540.3582     128192.1    10.472245   0.19154672 
    4000   -275.17699    35.639221   -239.53777    2576.7945    127497.69    10.472245    0.2075475 
    4100   -277.35469    30.302206   -247.05249    2190.9165    121305.52    10.472245    0.1951052 
    4200   -271.72219    31.448173   -240.27402    2273.7724    134650.22    10.472245    0.2193297 
    4300   -276.98281    30.353432   -246.62938    2194.6203    119514.41    10.472245   0.25780666 
    4400   -277.91471    30.539107   -247.37561     2208.045    115377.21    10.472245   0.20991858 
    4500   -274.84976    33.419381   -241.43038    2416.2952    127454.96    10.472245   0.20623287 
    4600   -275.09909    29.378344   -245.72074    2124.1192    122716.48    10.472245    0.2072587 
    4700   -276.64452    30.773753   -245.87076    2225.0104    123045.56    10.472245    0.1721631 
    4800   -273.31372     29.75081   -243.56291    2151.0494    131793.26    10.472245   0.19217558 
    4900   -279.33357    32.888982   -246.44459    2377.9462    113638.97    10.472245   0.18236442 
    5000   -278.68045    29.190221   -249.49023    2110.5175    114323.41    10.472245   0.18661349 
    5100   -275.10667    34.554135   -240.55254    2498.3404    126608.93    10.472245   0.25290229 
    5200   -274.95634     30.79567   -244.16067    2226.5951     124995.5    10.472245   0.18624198 
    5300   -278.54396    29.605254   -248.93871    2140.5254    115610.57    10.472245   0.15475038 
    5400   -275.88861    33.868877   -242.01973    2448.7947    126513.22    10.472245   0.21489179 
    5500   -273.51798    32.397753   -241.12023    2342.4292    130790.04    10.472245   0.22204558 
    5600   -279.51647    29.282079   -250.23439    2117.1591    109632.37    10.472245    0.1759165 
    5700    -275.0879    31.753612   -243.33428    2295.8564    127711.62    10.472245   0.21251727 
    5800   -273.25838    29.063279   -244.19511    2101.3393    129965.59    10.472245   0.20349306 
    5900   -280.04684    32.614411   -247.43243    2358.0941    109856.04    10.472245   0.18330585 
    6000     -278.293     30.82882   -247.46418    2228.9919    115669.27    10.472245   0.18419845 
    6100   -275.28204    34.433953   -240.84809    2489.6509     129509.6    10.472245   0.16463927 
    6200   -276.17349    27.528216   -248.64527    1990.3509    123099.55    10.472245   0.16558105 
    6300   -277.59105    30.352191   -247.23885    2194.5306    117955.96    10.472245    0.1838059 
    6400   -276.30065    31.346258   -244.95439    2266.4038    122407.94    10.472245   0.21100406 
    6500   -274.02007    28.722252   -245.29782    2076.6823     128024.5    10.472245   0.20150989 
    6600    -275.2137    33.560028   -241.65368    2426.4642    124249.46    10.472245   0.22283456 
    6700   -275.44706    33.265593   -242.18147     2405.176    124607.29    10.472245   0.19831745 
    6800   -280.53527    33.520568   -247.01471    2423.6112    109801.87    10.472245    0.1708226 
    6900   -272.28138    33.432788   -238.84859    2417.2645    136026.78    10.472245   0.22140388 
    7000   -269.38045    36.485921   -232.89453    2638.0128    146585.65    10.472245   0.38905907 
    7100   -276.94234    33.307498   -243.63484    2408.2058    121893.23    10.472245   0.19430071 
    7200   -276.03428    27.911475    -248.1228    2018.0614    121594.72    10.472245   0.19817395 
    7300   -276.50179    36.925647   -239.57615     2669.806    124635.31    10.472245   0.18779087 
    7400   -275.95854    33.526792   -242.43175    2424.0612    125805.42    10.472245   0.17163636 
    7500   -276.77219    31.415733   -245.35646     2271.427    119156.26    10.472245   0.16862877 
    7600   -275.68792    29.116434   -246.57149    2105.1826    124486.99    10.472245   0.21032839 
    7700   -270.81753    31.707305   -239.11023    2292.5083    136458.26    10.472245   0.24137721 
    7800   -276.97616    29.952531   -247.02363    2165.6342    119596.95    10.472245   0.19631897 
    7900   -277.53317     30.67156   -246.86161    2217.6216    115521.85    10.472245   0.18229002 
    8000   -276.10514    33.339511   -242.76563    2410.5204    123684.95    10.472245   0.19916952 
    8100   -276.88262    29.144168   -247.73845    2107.1878    119980.75    10.472245   0.17701819 
    8200   -273.72257    26.321578   -247.40099    1903.1083    127286.26    10.472245   0.21074273 
    8300   -277.65487    35.265967    -242.3889    2549.8074       118270    10.472245   0.20459152 
    8400   -278.39612    32.259037   -246.13708    2332.3997    115826.53    10.472245   0.14721208 
    8500   -279.79886     25.26799   -254.53087    1826.9315     108897.3    10.472245    0.1801039 
    8600   -275.97751    28.648249   -247.32926    2071.3318    120911.54    10.472245   0.19215542 
    8700   -273.70597     31.93986   -241.76611    2309.3225    130348.82    10.472245   0.26304975 
    8800   -273.42207     33.29547    -240.1266    2407.3361    133112.75    10.472245   0.22141805 
    8900   -280.25194    31.769448   -248.48249    2297.0014    112065.59    10.472245   0.17469373 
    9000   -274.22432    32.461423   -241.76289    2347.0327    126740.63    10.472245   0.20476758 
    9100   -271.42985     30.17686   -241.25299    2181.8537    135571.11    10.472245   0.23440816 
    9200   -279.05449    32.588941   -246.46555    2356.2525    115259.39    10.472245   0.15087822 
    9300   -277.03432    31.043634   -245.99069    2244.5234    119602.29    10.472245   0.15825714 
    9400   -271.09468    31.530893   -239.56379    2279.7533    139300.93    10.472245   0.23977084 
    9500   -276.66783    30.013467   -246.65436      2170.04    119282.71    10.472245   0.17274828 
    9600   -275.04114    29.500116   -245.54103    2132.9236    126829.39    10.472245   0.16940004 
    9700   -272.04515    28.737598   -243.30756    2077.7919    133341.92    10.472245   0.22499826 
    9800   -275.51171    36.204816   -239.30689    2617.6882    127550.75    10.472245   0.17847525 
    9900   -276.19547    28.963317   -247.23215    2094.1119    119921.44    10.472245   0.16215491 
   10000   -273.47194    28.449839    -245.0221    2056.9863    129640.31    10.472245   0.23473506 
   10100   -271.73888    30.799409   -240.93947    2226.8654    133015.95    10.472245   0.26118083 
   10200   -277.89093     31.52232   -246.36861    2279.1334    118154.04    10.472245   0.20576767 
   10300   -273.44403     29.69911   -243.74492    2147.3114    128862.17    10.472245   0.18240248 
   10400   -272.69614    27.566016   -245.13013     1993.084    130493.79    10.472245   0.21314304 
   10500   -278.12173    31.289213   -246.83251    2262.2793    115255.18    10.472245   0.19152926 
   10600   -272.35505    32.272208   -240.08285     2333.352    135184.67    10.472245    0.1877667 
   10700   -278.69465    32.674575   -246.02007    2362.4441    116563.12    10.472245    0.1619356 
   10800   -279.47493     32.00292   -247.47201    2313.8819    111622.12    10.472245   0.15919951 
   10900   -276.14127    35.527501   -240.61376    2568.7169    124601.18    10.472245   0.18763722 
   11000   -276.85135    28.930413   -247.92093    2091.7329    120090.79    10.472245    0.1635585 
   11100   -277.88169    30.016826   -247.86487    2170.2829       114243    10.472245   0.14960279 
   11200   -273.49095    32.273441   -241.21751    2333.4412     134371.4    10.472245   0.21582333 
   11300   -276.35265     30.80232   -245.55033    2227.0759    121267.95    10.472245   0.19065838 
   11400   -278.33017    27.763859   -250.56631    2007.3884    111657.85    10.472245   0.15945349 
   11500   -274.60169     32.13586   -242.46583    2323.4938    130301.96    10.472245   0.20847983 
   11600   -281.04324    36.629936    -244.4133    2648.4254    111500.33    10.472245   0.15104349 
   11700   -278.95906    28.949974   -250.00908    2093.1472    112101.55    10.472245   0.15760011 
   11800   -278.01137    33.644565   -244.36681    2432.5765    118891.37    10.472245   0.15564137 
   11900   -273.29094    28.528557   -244.76239    2062.6778    129607.59    10.472245   0.23966242 
   12000   -271.40373    35.019774   -236.38396    2532.0071    138307.75    10.472245   0.22691953 
   12100   -277.82008      33.3181   -244.50198    2408.9723    120393.28    10.472245   0.14771964 
   12200   -277.63428    31.045687    -246.5886    2244.6719    117366.86    10.472245   0.18066719 
   12300   -269.85256    31.923052   -237.92951    2308.1073    142487.53    10.472245   0.20944416 
   12400    -278.0749    31.864858   -246.21004    2303.8997    117191.45    10.472245   0.18830599 
   12500     -276.727    30.867216   -245.85979     2231.768    119315.75    10.472245   0.22343128 
   12600    -277.3583       36.344    -241.0143    2627.7516     124149.7    10.472245   0.16565552 
   12700   -278.07182    33.085081   -244.98674    2392.1245    117235.95    10.472245   0.15452743 
   12800   -278.01513     33.71354   -244.30159    2437.5635    117705.17    10.472245   0.15540097 
   12900   -269.77234    32.786118   -236.98623    2370.5088    143785.19    10.472245   0.26314722 
   13000   -274.63519    28.972098   -245.66309    2094.7467    126808.59    10.472245   0.22523361 
   13100    -274.9598    29.143481   -245.81631    2107.1382     123137.8    10.472245   0.18072446 
   13200   -273.42675    35.244367   -238.18238    2548.2457    133662.44    10.472245   0.19305117 
   13300   -276.38709    30.789141   -245.59795     2226.123    121513.77    10.472245   0.20806312 
   13400   -275.12043    29.051574   -246.06885     2100.493    126563.08    10.472245   0.19277811 
   13500    -273.0795    34.586312   -238.49319    2500.6668    134205.07    10.472245    0.2137254 
   13600   -276.62108    28.794783    -247.8263    2081.9265    119167.09    10.472245   0.18645232 
   13700   -276.73802     31.22204   -245.51598    2257.4226    120525.78    10.472245   0.17696167 
   13800   -271.22078    29.528522   -241.69226    2134.9775    136211.71    10.472245   0.22688932 
   13900   -281.06043    30.538276   -250.52215    2207.9849    106366.25    10.472245   0.18416154 
   14000   -283.54704    30.779507   -252.76753    2225.4264    98327.853    10.472245   0.15194457 
   14100   -276.38057    32.240526   -244.14004    2331.0613    121441.81    10.472245   0.21088517 
   14200   -274.43506    32.823469   -241.61159    2373.2094    127830.92    10.472245   0.24115663 
   14300   -278.33973    28.448847   -249.89089    2056.9145    112979.62    10.472245   0.19635225 
   14400   -275.19009    30.486881   -244.70321     2204.269    126185.22    10.472245   0.23030555 
   14500   -276.41036    33.384894   -243.02547    2413.8017    122635.21    10.472245   0.20960781 
   14600   -278.60105    31.628973   -246.97208    2286.8447    113366.71    10.472245   0.21439648 
   14700   -278.02465    27.648802   -250.37585    1999.0695    115819.15    10.472245    0.1767887 
   14800   -275.89484    33.854513   -242.04032    2447.7562    125242.16    10.472245   0.19280574 
   14900   -277.27041     30.30707   -246.96334    2191.2682    117935.42    10.472245   0.15330433 
   15000   -278.22678    28.650611   -249.57617    2071.5026    116022.23    10.472245   0.16655068 
   15100   -277.82159    35.424215   -242.39738    2561.2491    118392.83    10.472245   0.19950581 
   15200   -275.83202    27.990238   -247.84179    2023.7561    121437.92    10.472245   0.17085634 
   15300   -274.60717    27.930996   -246.67617    2019.4728    122971.99    10.472245   0.24518595 
   15400   -275.07603    32.903041   -242.17299    2378.9627    127015.69    10.472245   0.22673475 
   15500   -274.09195    25.194758   -248.89719    1821.6367    126568.75    10.472245   0.25417287 
   15600   -273.31792    33.288137   -240.02979    2406.8059    132641.95    10.472245   0.20280085 
   15700   -275.01965    32.031842   -242.98781    2315.9731     124915.3    10.472245   0.18909551 
   15800   -276.55385    29.324106   -247.22974    2120.1977    120565.55    10.472245   0.18412281 
   15900   -275.64423     30.57617   -245.06806    2210.7247     124809.2    10.472245   0.20299421 
   16000   -276.62781    32.063019   -244.56479    2318.2272    124136.64    10.472245   0.15592796 
   16100   -277.91313    32.023934    -245.8892    2315.4012    117803.93    10.472245   0.15808114 
   16200   -275.22373    27.347864   -247.87587     1977.311    124488.37    10.472245   0.19869213 
   16300   -273.07871    32.354432   -240.72428     2339.297    133722.76    10.472245   0.21563353 
   16400   -276.10514    30.160151   -245.94499    2180.6456    123966.98    10.472245   0.16945068 
   16500   -277.86262    30.629397   -247.23322    2214.5732    117099.95    10.472245    0.1753604 
   16600    -273.9749    32.375604    -241.5993    2340.8278    130857.43    10.472245     0.230249 
   16700   -277.09679    32.681477   -244.41531    2362.9431    118528.16    10.472245   0.20940029 
   16800   -273.79693    26.424798   -247.37213    1910.5714    125576.09    10.472245   0.19842239 
   16900   -274.39549    34.706648   -239.68884    2509.3674    129914.83    10.472245   0.21647087 
   17000   -277.22588     29.33919   -247.88669    2121.2883    117546.85    10.472245   0.18402007 
   17100   -276.61801    30.480778   -246.13723    2203.8277    117979.05    10.472245   0.18605071 
   17200   -274.13915    33.774043   -240.36511     2441.938    130796.66    10.472245   0.20019222 
   17300   -274.19789       29.925   -244.27289    2163.6437    126384.84    10.472245   0.22396579 
   17400   -275.67784    30.841364   -244.83647    2229.8989    122209.33    10.472245   0.16419091 
   17500   -281.58992    31.132841   -250.45708    2250.9733    105437.62    10.472245   0.14702544 
   17600   -277.99709    34.062222   -243.93487     2462.774    120594.83    10.472245   0.15670232 
   17700   -276.49857    32.549097   -243.94947    2353.3717    122131.63    10.472245   0.20039796 
   17800    -276.2642    31.555534   -244.70867    2281.5349    120577.16    10.472245    0.1815822 
   17900   -271.94348    33.365605   -238.57787     2412.407    135621.46    10.472245   0.23145697 
   18000   -279.16718    31.792902   -247.37427    2298.6971    113231.66    10.472245   0.18981952 
   18100   -281.93689    37.022216   -244.91467    2676.7881    107565.77    10.472245   0.13552613 
   18200   -274.29315    37.716191   -236.57696     2726.964    132602.72    10.472245   0.17951924 
   18300    -277.4381    31.902619   -245.53548    2306.6299     118982.7    10.472245   0.18671365 
   18400   -278.25824    35.429933   -242.82831    2561.6625    116721.65    10.472245   0.17314888 
   18500   -276.28708    32.549917   -243.73716     2353.431    124212.66    10.472245   0.18978389 
   18600   -278.82753    28.999144   -249.82839    2096.7023    113640.61    10.472245   0.17570573 
   18700   -274.79506    31.551978   -243.24308    2281.2778    126936.48    10.472245   0.21190477 
   18800   -277.59015    33.108629   -244.48153    2393.8271    119527.08    10.472245   0.18379382 
   18900   -277.71627    29.122846   -248.59343    2105.6462    115520.01    10.472245   0.16668245 
   19000   -276.07605    34.194489   -241.88156    2472.3372    123347.75    10.472245   0.17963073 
   19100   -276.26081    32.596293   -243.66452    2356.7841    122571.21    10.472245    0.2093909 
   19200   -277.51394    28.017917   -249.49603    2025.7574    115281.67    10.472245   0.20273839 
   19300   -275.16418    29.692584   -245.47159    2146.8395     126645.9    10.472245     0.189943 
   19400    -276.4859    35.080521   -241.40538    2536.3993    125026.53    10.472245   0.20099393 
   19500   -275.81002     31.68076   -244.12926     2290.589    122791.52    10.472245   0.20079649 
   19600   -276.44861    27.326236   -249.12237    1975.7473    119473.53    10.472245   0.18641744 
   19700   -271.92443     31.18028   -240.74415    2254.4032       134145    10.472245   0.25786683 
   19800   -275.46861    32.170691   -243.29792    2326.0121    124500.14    10.472245    0.2293138 
   19900   -275.90281    26.215141   -249.68767    1895.4127    119322.27    10.472245   0.20813283 
   20000   -280.39259    28.986968   -251.40562    2095.8219    108013.89    10.472245   0.15050669 
   20100   -275.66368    30.859398   -244.80429    2231.2027    125786.46    10.472245   0.19165193 
   20200   -277.89596     33.30812   -244.58784    2408.2508    120931.36    10.472245   0.21398012 
   20300   -277.20991    30.301148   -246.90877      2190.84    118221.58    10.472245   0.20157245 
   20400    -276.3358    36.311965   -240.02384    2625.4354     124945.2    10.472245   0.19242675 
   20500   -275.18266    29.017078   -246.16558    2097.9989    125508.99    10.472245   0.19821808 
   20600   -277.91176    31.269291   -246.64247    2260.8389    116022.06    10.472245   0.18384794 
   20700   -271.44065    30.782882   -240.65777    2225.6705    140918.98    10.472245   0.26908222 
   20800   -272.22164    36.657211   -235.56443    2650.3975       137331    10.472245   0.23073114 
   20900   -277.60053    32.319431    -245.2811    2336.7663    118748.91    10.472245   0.18243145 
   21000   -276.58305    29.833199   -246.74986    2157.0062    118680.35    10.472245   0.20502385 
   21100   -269.56221    32.319986   -237.24223    2336.8065    146084.99    10.472245   0.30682327 
   21200   -276.69004    32.666032     -244.024    2361.8264    119951.98    10.472245    0.1764709 
   21300   -278.28325    32.533991   -245.74926    2352.2795    117988.95    10.472245   0.17970928 
   21400   -270.18752    32.731009   -237.45651    2366.5244    143790.86    10.472245   0.26155443 
   21500   -272.66483    32.481712   -240.18312    2348.4996    133546.02    10.472245   0.23845826 
   21600   -274.04377    28.486391   -245.55738    2059.6291    127853.65    10.472245   0.19254874 
   21700   -276.46435    30.156501   -246.30785    2180.3817    119738.19    10.472245   0.19475664 
   21800   -266.86495    28.844887   -238.02007    2085.5491    150770.21    10.472245   0.39194922 
   21900   -269.51109    28.857189    -240.6539    2086.4386     144316.6    10.472245   0.63404425 
   22000   -270.46228    30.692139   -239.77014    2219.1095    142829.04    10.472245    0.6236118 
   22100   -264.31756    31.839858    -232.4777    2302.0922    160983.55    10.472245   0.99670711 
   22200   -266.49828    30.266953   -236.23133    2188.3677    150449.71    10.472245    1.3474895 
   22300    -273.5868    31.682039   -241.90476    2290.6815    130504.01    10.472245    1.2935432 
   22400   -275.86395    31.563234   -244.30072    2282.0916    125372.44    10.472245     1.460699 
   22500   -276.13381    28.330935   -247.80288    2048.3893    121347.19    10.472245    1.5349747 
   22600   -277.48225    33.590724   -243.89153    2428.6837    120852.94    10.472245    1.4037379 
   22700   -272.86369    32.026329   -240.83736    2315.5744    135937.91    10.472245    1.3899374 
   22800   -276.96547    31.152912   -245.81256    2252.4244    119400.37    10.472245    1.4496526 
   22900    -279.1404    30.601016   -248.53938    2212.5211    112962.63    10.472245    1.4440487 
   23000   -270.33642    29.788546   -240.54787    2153.7778    138533.61    10.472245    1.3941946 
   23100   -276.15491    30.482621   -245.67229    2203.9609     123908.2    10.472245    1.4689938 
   23200   -276.26565    26.070479   -250.19517    1884.9533    117113.61    10.472245    1.4122617 
   23300   -277.25213    31.683127   -245.56901    2290.7602    119174.31    10.472245     1.555443 
   23400   -274.34797    32.697835   -241.65013    2364.1258    130822.64    10.472245    1.5160757 
   23500   -282.60799    33.138907   -249.46908    2396.0162    102451.08    10.472245    1.4611217 
   23600   -278.08501    30.185675   -247.89933     2182.491    116405.97    10.472245    1.3738207 
   23700   -273.74737    29.543141   -244.20423    2136.0344    130127.08    10.472245    1.5095633 
   23800   -272.87113    27.727884   -245.14325    2004.7873    131192.23    10.472245    1.4972726 
   23900   -277.61583    26.573183   -251.04265    1921.2999    115208.74    10.472245     1.337872 
   24000    -275.2792    29.754915   -245.52428    2151.3462    124302.15    10.472245    1.4145703 
   24100   -276.03567    32.651468    -243.3842    2360.7734    123057.25    10.472245     1.493921 
   24200    -268.5931    30.344467   -238.24863    2193.9721    144419.97    10.472245    1.4800725 
   24300   -276.00816    28.433269   -247.57489    2055.7882    121650.46    10.472245    1.4030249 
   24400   -275.79124    31.092855   -244.69838    2248.0822    125638.89    10.472245    1.4656643 
   24500    -277.2448    37.619882   -239.62492    2720.0007    122556.06    10.472245     1.442478 
   24600   -275.89326    33.299138   -242.59412    2407.6014    127197.94    10.472245    1.4358474 
   24700   -275.77088    29.304222   -246.46666    2118.7601    123402.79    10.472245     1.496502 
   24800   -278.84205    30.680577   -248.16148    2218.2736    114708.28    10.472245    1.5262383 
   24900   -274.85166    34.306053    -240.5456    2480.4035    127361.87    10.472245    1.3895202 
   25000   -280.20441    33.398025   -246.80639    2414.7511    111708.17    10.472245    1.4394064 
   25100   -278.28425    30.175063   -248.10919    2181.7238    116193.42    10.472245    1.3540492 
   25200   -278.71096    34.489649   -244.22131    2493.6779    116407.38    10.472245    1.3698834 
   25300   -272.43661     33.02395   -239.41266    2387.7046    136109.68    10.472245     1.468035 
   25400   -275.60879    32.755476   -242.85332    2368.2934    127854.43    10.472245    1.4468605 
   25500   -276.30113    29.675677   -246.62545    2145.6171    121347.44    10.472245    1.4056867 
   25600   -271.71605    32.919851    -238.7962    2380.1781    134425.88    10.472245    1.3600126 
   25700   -277.17413    30.293485   -246.88065    2190.2859    121305.58    10.472245    1.4346399 
   25800    -280.7405    33.259723   -247.48077    2404.7515    110455.17    10.472245    1.3932491 
   25900   -275.12672    34.848876   -240.27785    2519.6508    129037.54    10.472245    1.5058947 
   26000   -276.15648    29.417968   -246.73851    2126.9842    121936.69    10.472245     1.436949 
   26100   -277.70293    30.263917   -247.43901    2188.1482    114737.03    10.472245    1.4521977 
   26200   -273.54808    32.404889   -241.14319    2342.9452    132714.19    10.472245    1.3877832 
   26300   -275.56152    31.515907   -244.04561    2278.6698    124659.11    10.472245    1.3819327 
   26400   -274.41872    29.249512   -245.16921    2114.8044    127256.39    10.472245    1.5118529 
   26500   -272.84324    28.373213   -244.47003    2051.4461    130403.95    10.472245    1.4769025 
   26600   -275.39003    29.814119   -245.57591    2155.6267    124752.76    10.472245    1.4035548 
   26700   -281.93825    29.640336   -252.29791    2143.0618    103233.43    10.472245    1.3883871 
   26800   -272.56846    28.482487   -244.08598    2059.3468    129859.42    10.472245    1.5566834 
   26900   -273.59055    28.773903   -244.81664    2080.4169    128471.41    10.472245    1.5013964 
   27000   -281.25904    30.311913   -250.94712    2191.6184    106445.63    10.472245    1.4580198 
   27100   -274.68824    32.245469   -242.44277    2331.4187    129226.54    10.472245    1.4530681 
   27200     -277.438    31.850607   -245.58739    2302.8693    117051.01    10.472245    1.5350662 
   27300   -279.07286    29.532871   -249.53999    2135.2919    109803.68    10.472245    1.5079409 
   27400   -272.99863    31.431094   -241.56754    2272.5376    132716.11    10.472245     1.575532 
   27500    -273.9564    27.821445   -246.13496     2011.552    128404.81    10.472245    1.4550766 
   27600   -277.77734    30.032749   -247.74459    2171.4342    117836.88    10.472245     1.347076 
   27700   -275.90232    30.188062   -245.71426    2182.6637    122114.87    10.472245    1.5264189 
   27800   -273.68424    32.581799   -241.10244    2355.7361    131802.62    10.472245    1.5101041 
   27900   -281.61111    31.616878   -249.99423    2285.9702    108871.75    10.472245    1.2871935 
   28000   -277.84532    32.299269   -245.54606    2335.3086     117236.6    10.472245    1.3444449 
   28100   -278.57226    35.005959    -243.5663    2531.0083    116997.65    10.472245     1.497212 
   28200   -276.90919    29.789339   -247.11985    2153.8351    120615.21    10.472245    1.5572907 
   28300    -279.7444    31.479665   -248.26474    2276.0494    111260.85    10.472245    1.5005034 
   28400   -272.23002     31.88446   -240.34556     2305.317    134222.13    10.472245      1.50145 
   28500   -275.76505    31.639577   -244.12548    2287.6114     124656.5    10.472245    1.4049926 
   28600   -276.82617    29.688823   -247.13734    2146.5676    118880.65    10.472245    1.4481486 
   28700   -275.84638     34.87037   -240.97601    2521.2049     124812.8    10.472245    1.3975404 
   28800    -275.6256     32.78541   -242.84019    2370.4577     125972.2    10.472245    1.3745007 
   28900   -279.46037    31.096896   -248.36348    2248.3744    112159.12    10.472245    1.3413454 
   29000   -273.05328    32.309022   -240.74426    2336.0138    132245.45    10.472245    1.3984624 
   29100   -276.49694    30.714727   -245.78221    2220.7427    119548.93    10.472245    1.3728418 
   29200   -277.37469    29.044058   -248.33063    2099.9496    118151.54    10.472245    1.5764789 
   29300   -274.71343    29.602128    -245.1113    2140.2993    123536.96    10.472245    1.5911873 
   29400   -274.19287    34.799113   -239.39375    2516.0528    131194.27    10.472245    1.4548904 
   29500   -279.35147    30.006642   -249.34483    2169.5466    111178.14    10.472245     1.476504 
   29600   -277.10759    33.758036   -243.34955    2440.7807    119301.01    10.472245    1.5337947 
   29700   -276.24766    32.875472   -243.37219    2376.9693    124589.84    10.472245    1.4808184 
   29800   -277.04691    30.689594   -246.35732    2218.9255     119764.4    10.472245    1.4251542 
   29900     -279.143    36.901423   -242.24158    2668.0545    117633.65    10.472245    1.3762108 
   30000   -271.27394    30.764209   -240.50973    2224.3203    137381.85    10.472245    1.4807632 
   30100   -278.97802    30.699697   -248.27832     2219.656    115591.07    10.472245    1.4133046 
   30200   -276.64135    32.604112   -244.03723    2357.3494    118333.82    10.472245    1.4837295 
   30300   -271.60889    29.144672   -242.46422    2107.2242    134202.89    10.472245    1.3834516 
   30400   -277.93677    30.683175   -247.25359    2218.4614    117087.81    10.472245    1.4033835 
   30500   -275.16807    36.140535   -239.02754    2613.0406    130487.17    10.472245    1.5111498 
   30600   -269.77096    29.401496   -240.36946    2125.7932    138500.54    10.472245    1.5814571 
   30700   -274.11963    30.716372   -243.40326    2220.8616    131604.85    10.472245    1.5862354 
   30800   -277.75768    28.608725   -249.14895    2068.4741    115269.08    10.472245    1.3287035 
   30900   -282.78251     31.78977   -250.99274    2298.4707     103191.5    10.472245    1.3775081 
   31000   -276.74588    31.783563   -244.96231    2298.0219     123446.6    10.472245    1.4798393 
   31100   -272.68451     31.12496   -241.55955    2250.4035    131729.54    10.472245    1.4931943 
   31200   -275.68546    37.598878   -238.08658    2718.4821    127769.97    10.472245    1.3717766 
   31300   -277.47283    29.941002   -247.53183    2164.8007    119061.07    10.472245    1.3278741 
   31400   -274.07135    31.197666   -242.87368    2255.6602    129440.34    10.472245    1.4728334 
   31500   -268.62748    31.002752   -237.62472    2241.5675    143423.66    10.472245    1.4925025 
   31600   -277.61349    30.234772   -247.37872    2186.0409       115643    10.472245    1.3994773 
   31700   -275.16663    29.539948   -245.62668    2135.8035    123917.66    10.472245    1.4546108 
   31800   -274.33907    33.803503   -240.53557     2444.068    126631.45    10.472245    1.4638984 
   31900   -276.61589    29.583513   -247.03237    2138.9535    119850.62    10.472245    1.5141761 
   32000   -279.58398    27.737941   -251.84604    2005.5145    110588.87    10.472245    1.4031973 
   32100   -276.34878    33.317339   -243.03144    2408.9173    125737.94    10.472245    1.5209593 
   32200   -275.80863    32.242326    -243.5663    2331.1915    125046.77    10.472245    1.5271304 
   32300   -279.88252     29.28046   -250.60206     2117.042    109606.97    10.472245     1.335857 
   32400   -274.09659    30.184251   -243.91234    2182.3881    127457.59    10.472245    1.4413987 
   32500   -276.35483    33.827942   -242.52688     2445.835    123612.68    10.472245    1.3047888 
   32600   -279.65168    29.886184    -249.7655    2160.8372    110151.77    10.472245    1.4111344 
   32700   -274.40341    31.802712    -242.6007    2299.4064    131216.98    10.472245    1.5031686 
   32800   -273.58754    31.628026   -241.95952    2286.7762    130225.73    10.472245    1.4921652 
   32900   -276.72967     27.06709   -249.66258    1957.0105    116856.16    10.472245    1.4266874 
   33000   -275.83591    29.417799   -246.41811    2126.9719    121558.37    10.472245    1.4045391 
   33100   -275.35479    30.449881   -244.90491    2201.5938    124509.21    10.472245    1.5345245 
   33200   -275.61226    33.526363    -242.0859    2424.0302    125829.82    10.472245     1.358579 
   33300   -276.42273    30.405356   -246.01738    2198.3745    122556.07    10.472245    1.4323794 
   33400   -277.11875    29.159185   -247.95957    2108.2736    118391.42    10.472245    1.4833464 
   33500   -271.41364    29.980175   -241.43347     2167.633    136186.85    10.472245    1.4120598 
   33600   -276.62266    30.325689   -246.29697    2192.6144    119760.61    10.472245    1.4337677 
   33700   -274.57149    33.192098   -241.37939    2399.8621    129700.15    10.472245    1.3728001 
   33800   -273.69908    34.746857   -238.95222    2512.2746    130128.82    10.472245    1.3343489 
   33900   -276.41163     29.66276   -246.74887    2144.6831    122605.71    10.472245    1.5074868 
   34000   -276.17547    35.188107   -240.98736     2544.178    125551.16    10.472245    1.4806513 
   34100   -272.74586    26.346957    -246.3989    1904.9433    131076.89    10.472245    1.4120569 
   34200    -279.8382    31.466242   -248.37196    2275.0789     111359.8    10.472245     1.507379 
   34300   -272.17134    29.925707   -242.24563    2163.6948    133382.04    10.472245    1.3477605 
   34400   -278.46556    35.582054   -242.88351    2572.6612    116058.77    10.472245    1.3688622 
   34500   -278.08493    34.857143   -243.22779    2520.2486    119153.24    10.472245    1.3724662 
   34600   -279.15726    28.454843   -250.70242    2057.3481    113209.77    10.472245    1.4622038 
   34700   -276.89562    28.900192   -247.99543    2089.5478     118004.4    10.472245     1.520089 
   34800   -271.96797    28.522388   -243.44559    2062.2317    136621.82    10.472245    1.5118454 
   34900   -272.08727    34.446653   -237.64062    2490.5692    136354.56    10.472245    1.4809196 
   35000   -275.31438    30.422402   -244.89197    2199.6069    126407.18    10.472245    1.4906115 
   35100   -280.39687    34.415902   -245.98097    2488.3459    110621.07    10.472245    1.3825571 
   35200   -274.83342    35.939767   -238.89365    2598.5246    125811.73    10.472245     1.441688 
   35300    -275.6242    31.861792    -243.7624     2303.678    124001.31    10.472245    1.4028917 
   35400   -276.16809    29.587866   -246.58022    2139.2682    122410.94    10.472245    1.5212186 
   35500   -274.83256    31.757743   -243.07481     2296.155    127077.35    10.472245    1.3392474 
   35600   -268.96253    34.925952   -234.03658    2525.2236    146728.64    10.472245    1.6544577 
   35700   -275.73933    34.024648   -241.71468    2460.0573    122431.31    10.472245    1.4829403 
   35800   -274.61636    27.078188   -247.53818    1957.8129    124272.87    10.472245    1.5075484 
   35900   -273.56009    30.797235   -242.76285    2226.7082    130870.43    10.472245    1.3738825 
   36000   -271.41384    30.556305   -240.85753    2209.2884    136837.99    10.472245    1.5513583 
   36100   -277.52097    33.257763   -244.26321    2404.6099    118221.31    10.472245    1.4861112 
   36200   -276.43723    29.867932    -246.5693    2159.5176    120243.07    10.472245    1.3835631 
   36300    -271.5468     31.15062   -240.39618    2252.2587    141232.31    10.472245    1.5743691 
   36400   -275.71935    34.587429   -241.13192    2500.7476     122090.5    10.472245    1.3738214 
   36500   -276.80394     29.10887   -247.69507    2104.6357    119685.65    10.472245    1.5479837 
   36600   -274.07176    32.446316   -241.62544    2345.9404    130177.57    10.472245    1.4377495 
   36700   -273.60155     34.07732   -239.52423    2463.8656    129352.44    10.472245    1.5232205 
   36800   -280.97059    33.669529   -247.30106    2434.3814    108383.26    10.472245    1.4521379 
   36900   -275.63089    34.703071   -240.92782    2509.1088    124877.58    10.472245    1.4962235 
   37000   -273.80473     32.74198   -241.06275    2367.3176    130553.17    10.472245    1.4043638 
   37100   -278.68751    34.771634   -243.91587    2514.0661    117908.22    10.472245    1.4469849 
   37200   -279.58223    27.514333   -252.06789    1989.3471    110782.89    10.472245    1.3563817 
   37300   -279.73267    31.123456   -248.60922    2250.2947    110895.29    10.472245    1.3521771 
   37400   -277.46086    33.245824   -244.21503    2403.7466    118905.34    10.472245    1.4522963 
   37500   -270.62067    29.158413   -241.46226    2108.2178    137591.46    10.472245    1.5106265 
   37600   -280.11691    30.061104   -250.05581    2173.4843    108708.06    10.472245    1.4783062 
   37700   -276.03083    32.411321   -243.61951    2343.4102    122891.76    10.472245    1.4105557 
   37800   -275.33625     30.50019   -244.83606    2205.2312    128335.43    10.472245    1.4883452 
   37900   -282.33114    28.355743    -253.9754    2050.1829    102533.18    10.472245    1.4138443 
   38000   -274.89645    28.790971   -246.10548    2081.6509    125710.57    10.472245    1.4204432 
   38100    -274.4032    33.250372   -241.15282    2404.0755    129430.54    10.472245    1.4484716 
   38200   -278.63638    29.055674   -249.58071    2100.7895    112665.65    10.472245    1.4107242 
   38300   -277.59667    30.187883   -247.40879    2182.6507    116495.64    10.472245    1.4705119 
   38400   -276.78909    32.835456   -243.95363    2374.0761    123288.33    10.472245    1.4011623 
   38500   -273.01043     30.87397   -242.13646    2232.2563    132885.56    10.472245    1.4804536 
   38600   -273.37685     32.82763   -240.54922    2373.5103    132575.45    10.472245    1.4439244 
   38700   -277.32919    29.100404   -248.22878    2104.0236    117669.92    10.472245    1.4426526 
   38800    -272.7118    31.531589   -241.18021    2279.8036    130763.62    10.472245    1.4121081 
   38900   -274.14116    32.808447   -241.33272    2372.1233     127329.8    10.472245    1.4331911 
   39000   -276.54478    29.794468   -246.75031     2154.206    119526.15    10.472245    1.4508436 
   39100   -274.16633    31.543097   -242.62323    2280.6357    127433.74    10.472245    1.4241632 
   39200   -269.27972    33.642329   -235.63739    2432.4148    144831.61    10.472245    1.5070943 
   39300   -276.59216    32.720698   -243.87146    2365.7788    121838.54    10.472245    1.5026935 
   39400   -276.14535    29.322266   -246.82308    2120.0647     120212.4    10.472245    1.4204945 
   39500   -276.00359    25.926042   -250.07755    1874.5101    118309.51    10.472245    1.4601488 
   39600   -278.57071    36.211364   -242.35934    2618.1617    117126.93    10.472245    1.4174604 
   39700   -275.85093    32.262854   -243.58808    2332.6757    124529.18    10.472245    1.4233613 
   39800   -278.37848    26.322985   -252.05549    1903.2101    111541.42    10.472245    1.3408661 
   39900   -277.91681    30.301211    -247.6156    2190.8446    117073.07    10.472245    1.4431596 
   40000   -272.41116    30.433742   -241.97741    2200.4268    131055.51    10.472245    1.3740533 
   40100   -278.82209    33.465933   -245.35616     2419.661    114778.45    10.472245    1.5731057 
   40200   -279.05654    29.807191   -249.24935    2155.1258    111487.35    10.472245    1.4424024 
   40300   -274.27039    32.123028   -242.14736     2322.566     128661.8    10.472245    1.2988654 
   40400   -275.31598     30.40547   -244.91051    2198.3827    125239.12    10.472245    1.4791002 
   40500   -279.03676    28.569324   -250.46744    2065.6253    112860.32    10.472245    1.4377372 
   40600   -276.60554    31.790117   -244.81543    2298.4958    120454.81    10.472245    1.4916161 
   40700   -277.73423    34.396084   -243.33815     2486.913    117297.16    10.472245    1.4170676 
   40800    -280.0868    28.718958   -251.36784    2076.4442    107093.32    10.472245     1.327957 
   40900   -275.89566    25.806172   -250.08949    1865.8433    121371.62    10.472245    1.4381353 
   41000   -279.03292    37.919786   -241.11314    2741.6844    118424.57    10.472245    1.3959254 
   41100   -279.70793    34.320138   -245.38779    2481.4219    111412.86    10.472245    1.3930457 
   41200   -276.00394    27.082213   -248.92173    1958.1039    118377.14    10.472245    1.2711234 
   41300   -276.03784    31.590993   -244.44685    2284.0987    122684.32    10.472245    1.3019042 
   41400   -276.48751    33.400081   -243.08743    2414.8997    121953.55    10.472245    1.4928915 
   41500   -275.95887    27.098112   -248.86076    1959.2535    120362.76    10.472245     1.420514 
   41600   -276.77573    30.176132    -246.5996    2181.8011    120453.07    10.472245    1.4546827 
   41700   -275.25277    33.714331   -241.53844    2437.6207    126317.69    10.472245    1.3474017 
   41800   -280.80774    34.856057   -245.95169      2520.17    109620.91    10.472245     1.425596 
   41900   -275.18328    29.298427   -245.88486    2118.3411     124359.3    10.472245    1.3551494 
   42000   -275.80088    33.579927   -242.22095     2427.903    125573.64    10.472245    1.4854059 
   42100   -271.20731    35.595736   -235.61157    2573.6505    138220.36    10.472245    1.5786367 
   42200   -273.28895    30.426263   -242.86269    2199.8861    131838.13    10.472245    1.4350342 
   42300    -273.6818    28.720425   -244.96137    2076.5503    128692.96    10.472245    1.4718153 
   42400   -273.35022    30.878683   -242.47153    2232.5971    128925.33    10.472245    1.4944019 
   42500   -275.19763    32.984225    -242.2134    2384.8324    125862.31    10.472245    1.4034106 
   42600   -279.38102    30.435982   -248.94504    2200.5888    114365.99    10.472245    1.3299736 
   42700   -278.30724    36.002784   -242.30445    2603.0809    121808.08    10.472245    1.4064645 
   42800   -276.56446    33.051293   -243.51317    2389.6816    121994.35    10.472245    1.4941553 
   42900    -277.8602    31.720628   -246.13957    2293.4715    117858.74    10.472245    1.4513177 
   43000   -267.28593    29.788073   -237.49786    2153.7436    150329.62    10.472245     1.561044 
   43100   -275.46394    32.475437    -242.9885    2348.0459    127199.24    10.472245    1.4229184 
   43200   -277.78742    32.387089   -245.40033    2341.6581    120175.46    10.472245    1.5156136 
   43300    -273.3098    27.057782   -246.25202    1956.3375    128054.56    10.472245    1.5052294 
   43400   -269.73674    30.425207   -239.31154    2199.8098    142977.85    10.472245    1.5307447 
   43500   -279.59312    31.192771   -248.40035    2255.3063     112723.4    10.472245    1.4670899 
   43600   -280.55624    34.410811   -246.14543    2487.9777    110659.56    10.472245    1.2130493 
   43700   -272.45291    30.399727   -242.05318    2197.9675    132756.76    10.472245    1.3219766 
   43800   -279.26717    29.075539   -250.19163    2102.2258    111742.24    10.472245     1.438153 
   43900   -277.06015    34.115951    -242.9442    2466.6587    120684.11    10.472245    1.5840653 
   44000   -276.00631    32.898096   -243.10822    2378.6051    125387.34    10.472245     1.394893 
   44100   -274.38981    29.234161   -245.15565    2113.6945    126594.39    10.472245    1.4216288 
   44200   -277.06298    31.562097   -245.50089    2282.0095    117240.47    10.472245    1.4147211 
   44300   -277.45264    27.140691   -250.31195     1962.332    113057.27    10.472245    1.3970439 
   44400   -273.13559    30.482102   -242.65349    2203.9234     130107.4    10.472245     1.517244 
   44500   -277.01617    32.025536   -244.99064    2315.5171    120634.31    10.472245    1.4972581 
   44600   -279.14763    28.747999   -250.39963    2078.5439    112207.98    10.472245    1.4235285 
   44700   -277.17913    33.075235   -244.10389    2391.4127    121839.69    10.472245    1.4154518 
   44800   -275.76126    31.817146   -243.94411      2300.45    123966.73    10.472245    1.4925162 
   44900   -277.85143    29.133578   -248.71785    2106.4222    115406.97    10.472245    1.4094492 
   45000   -280.30422    31.623344   -248.68087    2286.4377    111667.15    10.472245    1.4427674 
   45100   -274.38147    31.456229   -242.92524    2274.3549    128166.58    10.472245    1.4442566 
   45200   -277.74741    29.570487   -248.17692    2138.0116    120527.46    10.472245    1.4916495 
   45300    -278.5631    28.306269   -250.25683    2046.6059     112457.9    10.472245    1.4190723 
   45400    -271.4342    30.921684   -240.51251    2235.7062    137912.92    10.472245    1.6357196 
   45500   -277.19472    32.221174   -244.97355    2329.6622    120590.36    10.472245    1.4447473 
   45600   -279.77806    29.494805   -250.28325    2132.5397    108779.48    10.472245    1.3016651 
   45700   -277.12103    31.412432    -245.7086    2271.1883    117932.08    10.472245    1.4633735 
   45800   -273.52522    31.297566   -242.22766    2262.8833    129364.79    10.472245    1.4839867 
   45900    -279.6087    30.306387   -249.30231    2191.2188    111443.69    10.472245    1.3783608 
   46000   -272.66408    30.842424   -241.82166    2229.9755     130568.9    10.472245    1.4584835 
   46100   -276.59884    34.977662   -241.62117    2528.9623    120994.47    10.472245    1.5023538 
   46200   -278.51684    30.636639    -247.8802    2215.0967    114469.04    10.472245    1.5080472 
   46300   -275.63481    36.111999   -239.52281    2610.9774    126850.92    10.472245    1.5532151 
   46400   -271.39054    30.001545     -241.389     2169.178    138579.55    10.472245    1.4706041 
   46500    -278.0963    31.437379   -246.65892     2272.992    117372.72    10.472245    1.3930321 
   46600   -277.04208    34.679668   -242.36241    2507.4167       122216    10.472245    1.4693096 
   46700   -271.45152    30.555379   -240.89614    2209.2215    135296.82    10.472245    1.5125124 
   46800   -278.27083     32.25061   -246.02021    2331.7904    117679.83    10.472245    1.3450941 
   46900   -275.63346    30.651453   -244.98201    2216.1678    125641.76    10.472245    1.4914714 
   47000   -269.18717    33.223342   -235.96382    2402.1211    143507.31    10.472245    1.5036146 
   47100    -276.0502    31.033864   -245.01633     2243.817    124575.71    10.472245    1.5231135 
   47200    -275.1417    27.909898    -247.2318    2017.9474    121498.26    10.472245    1.5100582 
   47300   -272.83195    32.886543   -239.94541    2377.7698     132771.8    10.472245    1.3453794 
   47400   -274.55818    30.632319   -243.92586    2214.7845    128300.87    10.472245     1.472802 
   47500   -273.37865    27.116352    -246.2623    1960.5723    129513.35    10.472245    1.4317812 
   47600   -274.24583    33.728252   -240.51758    2438.6272    128138.54    10.472245    1.3887629 
   47700   -273.20613    38.039004   -235.16712    2750.3041    132906.43    10.472245    1.4570032 
   47800   -273.65865    28.689147    -244.9695    2074.2888    126939.56    10.472245    1.5056284 
   47900   -272.34668     28.31894   -244.02774     2047.522    133327.24    10.472245    1.4306352 
   48000   -273.01982    35.032268   -237.98756    2532.9105    134954.59    10.472245     1.383898 
   48100    -277.0695     30.22037   -246.84913    2184.9996    118743.65    10.472245    1.4955106 
   48200   -276.09514    33.640284   -242.45485    2432.2669     126122.1    10.472245    1.3927039 
   48300   -274.38867    29.237263    -245.1514    2113.9188    125792.83    10.472245    1.5305765 
   48400   -277.20629    28.681496   -248.52479    2073.7356    116214.16    10.472245    1.4482789 
   48500   -277.16512    36.370299   -240.79482     2629.653    123460.09    10.472245     1.445482 
   48600   -278.63057    34.331038   -244.29954      2482.21    117851.08    10.472245    1.4180101 
   48700   -278.72857    29.888444   -248.84013    2161.0006    114966.72    10.472245    1.4398201 
   48800   -275.45084    33.428851   -242.02199    2416.9799     125262.8    10.472245    1.6279705 
   48900   -278.75316    32.762071   -245.99109    2368.7702    114948.03    10.472245    1.3247576 
   49000   -278.63052    29.796144   -248.83437    2154.3271    114443.51    10.472245    1.4161127 
   49100   -273.97893    31.166946   -242.81198    2253.4391    130775.48    10.472245    1.5944829 
   49200   -274.88981    29.781826   -245.10799    2153.2919    124815.22    10.472245    1.4981872 
   49300   -276.37767    27.660932   -248.71674    1999.9466    118514.77    10.472245    1.5168675 
   49400   -275.16015    31.641193   -243.51896    2287.7282    123830.83    10.472245    1.2402526 
   49500    -273.5871    31.985206    -241.6019    2312.6012    129670.06    10.472245    1.5371314 
   49600   -278.41957    29.314235   -249.10533    2119.4841    113992.69    10.472245    1.4179624 
   49700   -274.38365    29.242753    -245.1409    2114.3157    127964.65    10.472245    1.4061905 
   49800    -277.0074     33.82167   -243.18573    2445.3816    121382.62    10.472245    1.4420943 
   49900   -278.44516    27.410282   -251.03488     1981.824    110490.66    10.472245    1.5158954 
   50000    -276.9977    33.328812   -243.66889    2409.7469    122913.46    10.472245    1.3973429 
   50100   -275.66805    31.036787   -244.63126    2244.0283     123221.6    10.472245    1.3782998 
   50200   -280.85017    28.143922   -252.70625    2034.8678    107156.04    10.472245    1.5915677 
   50300   -275.35094    31.173997   -244.17694    2253.9489     124482.2    10.472245    1.4443514 
   50400   -276.68051    35.296397   -241.38411    2552.0076    124740.18    10.472245    1.4718009 
   50500   -274.07249    25.519055   -248.55344    1845.0841    125620.15    10.472245    1.5294255 
   50600   -279.22482    37.819995   -241.40482    2734.4693    117761.71    10.472245     1.366394 
   50700   -275.67224    32.025412   -243.64683    2315.5081    126965.57    10.472245    1.4493274 
   50800   -277.20931    29.614526   -247.59479    2141.1957    119813.52    10.472245    1.4460983 
   50900   -271.30518    33.759025   -237.54615    2440.8522    137487.38    10.472245    1.4033136 
   51000   -279.11164      34.7659   -244.34574    2513.6515    115660.35    10.472245    1.4109909 
   51100   -275.37193    30.052286   -245.31964    2172.8467    124974.16    10.472245    1.5164616 
   51200   -278.28365    33.111681   -245.17197    2394.0478    117565.05    10.472245    1.3814736 
   51300   -274.81092    31.304034   -243.50689    2263.3509    127197.27    10.472245    1.4506138 
   51400   -275.63752    32.604537   -243.03298    2357.3801    125952.55    10.472245    1.4497037 
   51500   -276.26468    27.396252   -248.86843    1980.8096    117304.88    10.472245    1.4556413 
   51600   -277.59862    34.010184   -243.58844    2459.0115    118929.08    10.472245    1.4483415 
   51700   -274.12418    31.278335   -242.84584    2261.4928    129352.98    10.472245    1.4253895 
   51800   -277.83847    28.211602   -249.62686    2039.7612    116246.89    10.472245    1.3999373 
   51900   -280.58735    28.299758   -252.28759    2046.1351    106019.06    10.472245    1.3235142 
   52000   -277.80447    34.917897   -242.88658    2524.6412    119782.94    10.472245    1.3813429 
   52100   -276.63163    31.993464   -244.63817    2313.1982    119713.57    10.472245    1.4904135 
   52200   -282.07869    30.810081   -251.26861     2227.637    103490.17    10.472245    1.4486899 
   52300   -272.73505    31.230691   -241.50436     2258.048    133060.29    10.472245    1.3885095 
   52400   -279.04707    32.417565   -246.62951    2343.8617    113097.19    10.472245    1.3328964 
   52500   -275.68453    30.191362   -245.49317    2182.9023    122969.15    10.472245    1.4934086 
   52600   -270.43235    32.441694   -237.99065    2345.6062    140175.63    10.472245    1.5384422 
   52700   -275.11933    29.665613   -245.45372    2144.8894    125358.79    10.472245    1.3507212 
   52800   -276.14425    31.228374   -244.91587    2257.8805    124886.42    10.472245    1.4237656 
   52900   -268.63461    32.106643   -236.52797    2321.3813    147189.66    10.472245    1.6152774 
   53000   -274.83936    31.734858   -243.10451    2294.5005    123881.55    10.472245    1.3896391 
   53100   -278.98829     31.80433   -247.18396    2299.5234    113946.76    10.472245      1.44451 
   53200   -277.30146    30.147528   -247.15393    2179.7329    117497.76    10.472245    1.3373021 
   53300   -273.66308    32.144314   -241.51877     2324.105    131078.85    10.472245    1.3804011 
   53400   -280.56149    31.367104   -249.19439     2267.911    109677.51    10.472245    1.4248354 
   53500   -280.49274    32.590522   -247.90221    2356.3668    110785.75    10.472245    1.4612072 
   53600   -276.71066    32.746281   -243.96438    2367.6285     120757.5    10.472245    1.4512306 
   53700   -276.73264      37.8622   -238.87044    2737.5208    125716.04    10.472245     1.458533 
   53800     -277.887    29.076093   -248.81091    2102.2658    117685.66    10.472245    1.5323335 
   53900   -276.19235    34.837865   -241.35449    2518.8547    125270.49    10.472245    1.3058649 
   54000    -274.9206    32.062957   -242.85765    2318.2227    127059.55    10.472245    1.4805443 
   54100   -278.51859    28.974449   -249.54414    2094.9168    115200.27    10.472245    1.3935358 
   54200   -270.73449    27.202177   -243.53231    1966.7775    135721.05    10.472245    1.4376054 
   54300   -275.70132     31.46887   -244.23245    2275.2689     123454.7    10.472245    1.5788644 
   54400   -278.94119    27.944214   -250.99698    2020.4285    111896.02    10.472245    1.4893766 
   54500    -277.4098      32.7955    -244.6143    2371.1872    118425.44    10.472245    1.3512408 
   54600   -278.30183    35.109446   -243.19239    2538.4906    118453.47    10.472245     1.387632 
   54700   -281.07786    28.653341   -252.42452    2071.6999    105244.78    10.472245    1.4230702 
   54800   -278.20072    31.169178   -247.03154    2253.6005    116184.74    10.472245    1.5191409 
   54900   -273.16097    30.848543   -242.31243    2230.4179    131782.84    10.472245    1.5603415 
   55000   -275.11544    28.206215   -246.90922    2039.3717    124896.42    10.472245    1.4422163 
   55100   -278.35535    28.107443    -250.2479    2032.2303    112063.48    10.472245    1.3576062 
   55200   -277.19091    32.008596   -245.18232    2314.2923    116892.14    10.472245    1.4223031 
   55300   -274.78317    31.684842   -243.09833    2290.8841    126683.19    10.472245    1.5571803 
   55400   -279.17547    29.941881   -249.23359    2164.8642    113613.81    10.472245     1.286331 
   55500    -276.7326    32.276553   -244.45605    2333.6662    123382.75    10.472245    1.4469442 
   55600   -273.30732    30.929204   -242.37812    2236.2499    130818.53    10.472245    1.4877577 
   55700   -275.95259     27.05785   -248.89474    1956.3424    122514.83    10.472245    1.5247137 
   55800   -280.70399    26.012614   -254.69138    1880.7695    105142.44    10.472245    1.2889443 
   55900   -274.30005    28.212715   -246.08734    2039.8417    123517.72    10.472245    1.5088666 
   56000     -276.141    34.055726   -242.08528    2462.3043     126324.6    10.472245    1.4771766 
   56100   -278.29531    27.910883   -250.38443    2018.0186    115908.98    10.472245    1.5059383 
   56200    -272.5736    26.598935   -245.97466    1923.1618    130572.02    10.472245    1.4799538 
   56300   -275.53915    31.417578   -244.12157    2271.5604     126739.5    10.472245    1.3943211 
   56400    -277.3276    30.580023   -246.74757    2211.0033    116976.32    10.472245    1.4320493 
   56500   -277.57456    28.527033   -249.04752    2062.5676    112459.79    10.472245    1.4821778 
   56600   -273.13341    32.023793   -241.10962     2315.391     131335.6    10.472245    1.5355835 
   56700   -277.39274    31.473223   -245.91952    2275.5836    119068.23    10.472245    1.3732327 
   56800   -277.15031    30.848343   -246.30197    2230.4035    120139.05    10.472245     1.289436 
   56900   -276.51459    32.790857   -243.72374    2370.8515    121418.78    10.472245    1.5009034 
   57000   -273.96584    35.373486   -238.59236    2557.5813     131752.1    10.472245    1.3512896 
   57100   -276.06457    28.073371    -247.9912    2029.7668    117222.68    10.472245     1.418287 
   57200   -276.18436    30.775155   -245.40921    2225.1118    121032.31    10.472245    1.4639766 
   57300   -275.37325    35.090491   -240.28276    2537.1201    128103.54    10.472245    1.5762607 
   57400   -276.58889    31.883207   -244.70568    2305.2264    122692.82    10.472245    1.3905566 
   57500   -276.54517    30.594815   -245.95036    2212.0728    124260.57    10.472245    1.4725373 
   57600    -272.7272    36.067578   -236.65962    2607.7657    135225.07    10.472245     1.455625 
   57700   -274.81768    29.759636   -245.05804    2151.6875    122780.04    10.472245    1.5862546 
   57800   -278.99606    33.657995   -245.33807    2433.5475    114388.08    10.472245    1.4779317 
   57900   -271.22562    34.424884   -236.80073    2488.9952    139266.06    10.472245    1.5681816 
   58000   -273.49723    28.898702   -244.59853    2089.4401    128595.41    10.472245    1.5614841 
   58100   -275.92951    30.124829   -245.80468    2178.0918    122032.08    10.472245    1.3678969 
   58200   -272.30442    31.677774   -240.62665    2290.3731    133101.76    10.472245    1.5464058 
   58300   -274.01624    32.296891   -241.71935    2335.1366    130430.45    10.472245    1.5309273 
   58400   -279.62416    30.899806   -248.72436    2234.1243    112779.74    10.472245     1.366527 
   58500   -274.54656    32.423291   -242.12327    2344.2757    128303.88    10.472245    1.4547763 
   58600   -273.99664    26.202076   -247.79457    1894.4681    126614.77    10.472245    1.4290807 
   58700   -277.12073    29.243966   -247.87677    2114.4035    119220.48    10.472245    1.5243394 
   58800   -272.04537    31.161668    -240.8837    2253.0575    134403.05    10.472245    1.5272069 
   58900   -277.85131    31.590039   -246.26127    2284.0297    117677.27    10.472245    1.4560935 
   59000   -281.55026    29.371614   -252.17864    2123.6326     105350.5    10.472245    1.3658042 
   59100   -279.99316    33.751206   -246.24195    2440.2869     111067.4    10.472245    1.3232517 
   59200   -275.41052    33.198567   -242.21195    2400.3299    124926.85    10.472245     1.412674 
   59300   -273.13228    30.090396   -243.04188    2175.6022    130513.39    10.472245    1.5108244 
   59400   -282.62809    34.091558   -248.53653    2464.8951    103363.65    10.472245    1.3610708 
   59500   -274.03023    34.597339   -239.43289    2501.4641    132321.72    10.472245    1.4944576 
   59600   -276.87621    34.789624   -242.08658    2515.3668     124449.7    10.472245    1.4262705 
   59700   -278.30487    30.508084   -247.79679     2205.802    116835.34    10.472245    1.4378945 
   59800   -274.00702    33.860106   -240.14691    2448.1606    130379.47    10.472245    1.5129206 
   59900   -275.09168    34.047761   -241.04392    2461.7285    128815.23    10.472245    1.4771879 
   60000   -280.54087    29.679076   -250.86179    2145.8629    109461.77    10.472245    1.4689867 
   60100   -276.36286    28.476165    -247.8867    2058.8897    118857.93    10.472245     1.351543 
   60200   -272.51051    30.464273   -242.04624    2202.6343    133219.59    10.472245    1.5493136 
   60300   -277.60825    29.991705   -247.61655    2168.4666       116511    10.472245    1.4100428 
   60400   -278.76165    30.017131   -248.74452     2170.305    112714.25    10.472245    1.4177919 
   60500   -278.80278    34.518878    -244.2839    2495.7912    116484.81    10.472245    1.4299519 
   60600   -272.11057     28.82924   -243.28133    2084.4178    132526.44    10.472245    1.6235451 
   60700   -273.37711    34.471487   -238.90562    2492.3648    132917.25    10.472245    1.4996319 
   60800   -277.08525    28.967379   -248.11787    2094.4055    118566.51    10.472245    1.5048786 
   60900    -278.8652    33.531901    -245.3333    2424.4306     114087.7    10.472245    1.3967517 
   61000    -273.3391    30.106462   -243.23264    2176.7638    128708.88    10.472245    1.3832775 
   61100   -277.56242    30.977865   -246.58456    2239.7682    119300.62    10.472245    1.4131142 
   61200    -274.6921    28.443186   -246.24892    2056.5053    127971.62    10.472245    1.4461322 
   61300   -271.45569    30.814253   -240.64143    2227.9387    137187.72    10.472245    1.6144559 
   61400   -280.79272    31.259738   -249.53298    2260.1482    108704.12    10.472245    1.4146784 
   61500   -276.80949    30.268218   -246.54127    2188.4591    117642.88    10.472245    1.4901662 
   61600    -273.8156     32.81068   -241.00492    2372.2847    132594.71    10.472245    1.4901527 
   61700   -275.29218    28.882573   -246.40961    2088.2739    124536.45    10.472245    1.4001406 
   61800   -277.71202    29.105184   -248.60684    2104.3692    116450.82    10.472245    1.4630847 
   61900    -273.9838     31.49041   -242.49339    2276.8263    129411.28    10.472245    1.5275575 
   62000   -277.04805    31.645356    -245.4027    2288.0292     120697.3    10.472245    1.5146418 
   62100   -276.22594    30.416392   -245.80954    2199.1724    123622.59    10.472245    1.4734484 
   62200   -278.91184    35.572428   -243.33941    2571.9652    118144.72    10.472245    1.4703234 
   62300   -277.82337    34.646801   -243.17657    2505.0403    120361.67    10.472245     1.392699 
   62400   -278.12202    27.984361   -250.13766    2023.3312    116866.21    10.472245    1.3468427 
   62500   -270.38038    28.463929   -241.91645    2058.0051    139444.25    10.472245    1.5120261 
   62600   -271.71413    28.890169   -242.82396    2088.8231    138066.76    10.472245    1.6441286 
   62700   -273.37082    25.702829   -247.66799    1858.3714    126735.84    10.472245    1.4017619 
   62800   -278.46215    28.983774   -249.47838     2095.591    113867.66    10.472245    1.3627551 
   62900   -274.99067    32.314913   -242.67575    2336.4397    126250.24    10.472245    1.4135694 
   63000   -280.13392    32.240578   -247.89334    2331.0651    111839.42    10.472245    1.4406673 
   63100   -279.12575    32.310589   -246.81516    2336.1271     113377.8    10.472245    1.5361375 
   63200   -270.49994     29.44501   -241.05493    2128.9394    138160.81    10.472245    1.6304987 
   63300   -279.25898    30.013453   -249.24553    2170.0391    112108.32    10.472245    1.4255649 
   63400   -278.71423    35.597827   -243.11641    2573.8016    116848.88    10.472245    1.4089222 
   63500   -272.56989    30.939512   -241.63038    2236.9952    132305.93    10.472245    1.3381928 
   63600    -278.3748    29.955392   -248.41941    2165.8411    116112.13    10.472245    1.4011014 
   63700   -275.39387    32.982954   -242.41092    2384.7405    126703.48    10.472245     1.452038 
   63800   -274.91812    32.678916   -242.23921    2362.7579    126528.34    10.472245    1.3481716 
   63900   -278.48255    32.504234   -245.97831     2350.128     118386.6    10.472245    1.5101127 
   64000   -275.95892    34.044696   -241.91422    2461.5068    125225.96    10.472245     1.499317 
   64100   -269.39892    31.478132   -237.92079    2275.9386    140927.14    10.472245    1.6229578 
   64200   -275.39974    30.085066   -245.31468    2175.2168    123556.94    10.472245    1.4307104 
   64300   -273.97951    29.389787   -244.58972    2124.9466    127398.89    10.472245    1.5633618 
   64400   -267.67996    29.242746   -238.43722    2114.3152    148889.18    10.472245    1.4817664 
   64500   -274.45515    29.018935   -245.43621    2098.1332    128024.38    10.472245    1.6722841 
   64600   -276.63461    30.884976   -245.74964     2233.052    120326.88    10.472245    1.4250062 
   64700   -271.34352    32.413832   -238.92968    2343.5918    136963.89    10.472245    1.5924299 
   64800   -273.88386    31.230993   -242.65287    2258.0699    128759.53    10.472245    1.4989256 
   64900   -278.36584    32.332715   -246.03312    2337.7268    118041.36    10.472245    1.3469815 
   65000   -272.57848      28.0087   -244.56978    2025.0909    129049.41    10.472245    1.5043276 
   65100    -273.4828    35.655452   -237.82735     2577.968     134431.5    10.472245    1.4591938 
   65200   -276.82918    29.529785   -247.29939    2135.0688     118344.6    10.472245    1.4420589 
   65300   -272.56266    29.056146   -243.50652    2100.8236    135137.35    10.472245    1.5165958 
   65400   -271.54636    30.229443   -241.31691    2185.6556    135710.49    10.472245    1.5694683 
   65500   -277.71129    28.249736   -249.46155    2042.5184    115271.92    10.472245    1.2849567 
   65600   -272.66975     30.27569   -242.39406    2188.9993    132732.02    10.472245      1.48032 
   65700   -274.99649    32.123085   -242.87341    2322.5701    126595.61    10.472245    1.3931091 
   65800   -276.78455    30.611451   -246.17309    2213.2756    119025.53    10.472245    1.4805309 
   65900   -274.44293    30.832149   -243.61079    2229.2325    126663.78    10.472245    1.4967088 
   66000    -266.1167    29.356452   -236.76025    2122.5364    152689.37    10.472245    1.5760556 
   66100   -274.71791    32.152459   -242.56546    2324.6939    127742.17    10.472245    1.2802164 
   66200   -277.28152    30.457352   -246.82416    2202.1339    116661.81    10.472245    1.4868906 
   66300   -276.30475    33.098605   -243.20615    2393.1024     121927.3    10.472245    1.4533653 
   66400   -272.86831    32.939143   -239.92917    2381.5729    133483.78    10.472245    1.3939707 
   66500   -280.23063    32.197859   -248.03277    2327.9764    110417.78    10.472245    1.4675992 
   66600   -273.52417    30.520459   -243.00371    2206.6967     129263.7    10.472245    1.4577954 
   66700   -272.37566    39.225726   -233.14993    2836.1067    138727.54    10.472245    1.5020878 
   66800   -274.72204    30.342752   -244.37929    2193.8481     126803.5    10.472245    1.4927381 
   66900   -274.98278    29.178911   -245.80387    2109.6998    122688.93    10.472245    1.5410138 
   67000   -274.38155    35.140521   -239.24103    2540.7374    131336.42    10.472245    1.3892822 
   67100   -278.55019    31.048902   -247.50129    2244.9043    114791.38    10.472245    1.5677343 
   67200   -272.19298     25.97021   -246.22277    1877.7037    131357.76    10.472245    1.3391709 
   67300   -273.55873    31.179799   -242.37893    2254.3684    132601.16    10.472245    1.4594046 
   67400    -279.7634    29.825483   -249.93792    2156.4484    110570.16    10.472245    1.4194687 
   67500   -274.71431    30.431032   -244.28328    2200.2309    127555.67    10.472245      1.58654 
   67600   -274.85647    31.479256   -243.37721    2276.0199    127385.74    10.472245    1.4147684 
   67700   -280.20991    32.357845   -247.85206    2339.5438    110317.69    10.472245    1.3715958 
   67800   -276.07227    33.174328   -242.89794    2398.5773    123521.05    10.472245     1.457467 
   67900   -273.04216    30.137217   -242.90494    2178.9874    131831.71    10.472245     1.354847 
   68000   -275.86888    26.279797   -249.58908    1900.0874     121908.8    10.472245    1.5047464 
   68100   -277.42905    32.083684   -245.34536    2319.7213    117547.38    10.472245    1.3711184 
   68200   -274.93501    30.323204    -244.6118    2192.4347    127501.01    10.472245    1.3410573 
   68300   -280.42065    30.640678   -249.77997    2215.3888    109127.77    10.472245     1.515766 
   68400   -275.49056     29.35685   -246.13371    2122.5652    121636.87    10.472245    1.4371567 
   68500   -276.43415    33.499476   -242.93467    2422.0862     123442.2    10.472245    1.5617324 
   68600   -279.45694    29.722308   -249.73464    2148.9886    112385.38    10.472245    1.4220299 
   68700   -278.25356    27.786778   -250.46678    2009.0455    114924.75    10.472245    1.4555573 
   68800   -272.40407     28.34563   -244.05844    2049.4517    131978.43    10.472245    1.5420888 
   68900   -276.01862    37.447377   -238.57124    2707.5282    127918.13    10.472245    1.5503129 
   69000   -277.83455    33.909409   -243.92514    2451.7253    120012.58    10.472245    1.4426547 
   69100   -275.36968    30.493435   -244.87624    2204.7428    128744.14    10.472245    1.3827547 
   69200   -277.00393    33.006373   -243.99756    2386.4338    120403.84    10.472245    1.5118164 
   69300   -277.66787    31.862669    -245.8052    2303.7415    119126.44    10.472245     1.396958 
   69400   -278.02272    28.573141   -249.44958    2065.9013     112804.3    10.472245    1.3965757 
   69500   -274.21833    34.119975   -240.09835    2466.9496    131471.33    10.472245    1.4002266 
   69600   -280.53064    36.013002   -244.51764    2603.8197    110819.96    10.472245    1.3396371 
   69700   -280.59847    34.070522   -246.52795    2463.3741     111250.3    10.472245    1.4037002 
   69800   -276.76857    31.231053   -245.53751    2258.0742    119308.76    10.472245    1.3429824 
   69900   -272.87329    32.175573   -240.69772    2326.3651    132755.26    10.472245    1.3030234 
   70000   -273.12553    31.718349   -241.40718    2293.3068    133478.42    10.472245    1.4963694 
   70100   -279.10766    31.401835   -247.70582    2270.4221    113693.77    10.472245    1.5074516 
   70200    -273.5175    32.421894   -241.09561    2344.1747    130401.41    10.472245    1.4479088 
   70300   -273.72083    32.390588   -241.33024    2341.9112    131014.75    10.472245    1.4312871 
   70400   -279.37784    33.378286   -245.99955    2413.3239    112493.77    10.472245    1.3522231 
   70500    -272.6712    30.305931   -242.36527    2191.1858    132392.15    10.472245    1.3051838 
   70600   -274.27209    32.801401   -241.47069    2371.6138    128363.02    10.472245     1.600048 
   70700   -276.26137    29.314739   -246.94663    2119.5204    121458.11    10.472245    1.4162988 
   70800     -277.098    32.164954   -244.93305    2325.5973    119830.54    10.472245    1.3832122 
   70900   -275.71259    35.445655   -240.26694    2562.7993    127451.19    10.472245    1.2576896 
   71000   -275.74164    27.735142    -248.0065    2005.3121    120381.85    10.472245    1.4523366 
   71100   -276.56618    32.234815   -244.33137    2330.6484     121191.8    10.472245    1.4333199 
   71200   -269.04015    35.968076   -233.07207    2600.5715    145666.13    10.472245    1.5907674 
   71300   -273.46004    32.416762   -241.04328    2343.8036    129708.37    10.472245    1.4914299 
   71400   -277.05047    32.146529   -244.90394    2324.2652    122604.12    10.472245    1.4400822 
   71500   -275.51103    23.292317   -252.21871    1684.0861    121269.44    10.472245    1.4095744 
   71600   -276.64226    30.691227   -245.95103    2219.0436    120826.42    10.472245    1.4518944 
   71700   -278.48256    35.153887   -243.32867    2541.7038    118587.01    10.472245    1.3796392 
   71800    -278.8083    28.566214   -250.24209    2065.4005    113848.21    10.472245    1.3842761 
   71900   -278.76306    31.692488   -247.07057     2291.437    114064.23    10.472245    1.3972669 
   72000   -273.70684    31.627921   -242.07892    2286.7687    130818.47    10.472245    1.4087012 
   72100   -278.21172    29.147691   -249.06403    2107.4425    114250.56    10.472245    1.4564095 
   72200   -273.58378    26.340135   -247.24364    1904.4501     126232.5    10.472245     1.304864 
   72300   -274.42111    29.671199   -244.74991    2145.2933    128323.41    10.472245    1.4742332 
   72400   -274.44775    29.059294   -245.38845    2101.0512    128207.61    10.472245    1.3765527 
   72500   -275.86194    32.210504   -243.65143    2328.8907    125943.65    10.472245     1.509906 
   72600   -275.66126    31.300647   -244.36062     2263.106    124308.49    10.472245     1.564509 
   72700   -279.44795    28.949481   -250.49847    2093.1115    111649.28    10.472245    1.2662853 
   72800   -276.54986    34.486006   -242.06385    2493.4145    124906.32    10.472245    1.4665491 
   72900   -275.13675    32.419178   -242.71757    2343.9783    125472.24    10.472245    1.3827825 
   73000    -277.3814    28.880278   -248.50112     2088.108    118050.91    10.472245    1.3544154 
   73100   -276.75072    31.665801   -245.08492    2289.5075    122685.93    10.472245    1.4917506 
   73200   -276.28395    32.548094   -243.73586    2353.2992    122639.25    10.472245    1.5634047 
   73300   -271.98239    30.005056   -241.97733    2169.4319    135150.95    10.472245    1.3545098 
   73400     -278.006    30.540869   -247.46513    2208.1724    117820.51    10.472245    1.5470846 
   73500   -278.17421    29.915491   -248.25872    2162.9562    115930.46    10.472245    1.4711135 
   73600   -272.23128    32.433347   -239.79793    2345.0027    137814.98    10.472245     1.545967 
   73700   -276.32836    29.744427   -246.58393    2150.5878    124815.13    10.472245    1.4088145 
   73800   -278.70974     30.38897   -248.32077    2197.1898    114743.09    10.472245    1.4818086 
   73900   -277.50384     33.77312   -243.73072    2441.8713    119071.73    10.472245     1.360559 
   74000   -273.90782    29.574051   -244.33377    2138.2693    126237.53    10.472245    1.4964359 
   74100   -277.70507    33.132976    -244.5721    2395.5874    120393.12    10.472245    1.4884699 
   74200   -277.11565     30.16399   -246.95166    2180.9232    118483.11    10.472245    1.3548564 
   74300   -277.86267    31.591006   -246.27167    2284.0996    115448.49    10.472245    1.5244758 
   74400   -270.65006     30.33445   -240.31561    2193.2478    136395.34    10.472245     1.487917 
   74500   -278.02016    31.056359    -246.9638    2245.4434    120114.63    10.472245    1.4244381 
   74600   -275.78194    31.260001   -244.52194    2260.1672    123492.84    10.472245    1.5399913 
   74700   -272.78387    30.415792   -242.36808    2199.1291    129969.23    10.472245    1.5094573 
   74800   -275.89356    27.675093   -248.21847    2000.9704    121447.92    10.472245    1.3800632 
   74900   -273.01356    27.991617   -245.02194    2023.8558    131578.42    10.472245    1.4755219 
   75000   -273.77292    31.549976   -242.22294    2281.1331    129652.66    10.472245    1.6255571 
   75100   -276.17246    28.728621   -247.44384    2077.1428    122755.55    10.472245     1.388889 
   75200   -272.16474    33.846565   -238.31817    2447.1815    135657.07    10.472245    1.4323045 
   75300   -275.58463    32.477419   -243.10721    2348.1893    124242.75    10.472245    1.5112436 
   75400    -279.9244    33.792205   -246.13219    2443.2511    112500.29    10.472245    1.3798716 
   75500   -276.36113    33.916939   -242.44419    2452.2697    124914.77    10.472245    1.3964788 
   75600    -271.9206     35.33656   -236.58404    2554.9115    136287.13    10.472245    1.6172333 
   75700   -277.70503    32.089246   -245.61578    2320.1234    117251.72    10.472245    1.3703838 
   75800   -276.53778    33.287973   -243.24981    2406.7941    124441.58    10.472245    1.4814141 
   75900   -278.32083    34.178994   -244.14184    2471.2169    118970.33    10.472245    1.3638604 
   76000   -279.59649     29.41916   -250.17733    2127.0703    110335.98    10.472245    1.4067673 
   76100   -274.81648    32.431839   -242.38464    2344.8937    127085.04    10.472245    1.4556499 
   76200   -274.47847     27.83911   -246.63936    2012.8293     125136.1    10.472245    1.5677774 
   76300   -276.77729    27.940599   -248.83669    2020.1671    118460.96    10.472245    1.4193084 
   76400   -274.44437    30.694377      -243.75    2219.2714    127469.91    10.472245     1.397944 
   76500   -277.48601    31.541107    -245.9449    2280.4918    119042.33    10.472245    1.5400604 
   76600   -280.64697    26.514616   -254.13236    1917.0654    106449.53    10.472245    1.4807766 
   76700   -277.76076    31.420051   -246.34071    2271.7392    120001.25    10.472245    1.4348394 
   76800   -275.09385    31.666273   -243.42757    2289.5416     127228.3    10.472245    1.3549262 
   76900    -278.4176    37.663299    -240.7543    2723.1399    119896.11    10.472245    1.4924843 
   77000   -277.48941    28.609522   -248.87988    2068.5317     117299.4    10.472245    1.3950729 
   77100   -276.09283    32.396536   -243.69629    2342.3412    123170.06    10.472245    1.4455522 
   77200   -275.77076    32.509236   -243.26153    2350.4897    126191.69    10.472245    1.4745782 
[...]
  481400   -279.79806    31.775492   -248.02257    2297.4384    111854.66    10.472245    2.6405778 
  481500   -268.05229    28.509736   -239.54256     2061.317    146121.34    10.472245    2.7827313 
  481600   -278.56584    34.247731   -244.31811    2476.1867    116032.87    10.472245    2.6922468 
  481700   -278.82999    33.131713   -245.69828    2395.4961    114227.49    10.472245    2.7469859 
  481800   -274.73182    30.953676   -243.77814    2238.0192    127027.86    10.472245     2.550992 
  481900    -272.4672    35.236807   -237.23039    2547.6991    136955.55    10.472245    2.8059032 
  482000   -277.05539    30.928983   -246.12641    2236.2339    116898.04    10.472245    2.6417724 
  482100    -276.8531    33.771559   -243.08155    2441.7584    123591.81    10.472245    2.5182766 
  482200   -275.20045    30.341859   -244.85859    2193.7835    126156.93    10.472245    2.7474399 
  482300   -277.97067    29.084938   -248.88573    2102.9054    116228.01    10.472245     2.538723 
  482400   -275.91106    34.590063     -241.321     2500.938    125490.32    10.472245    2.6001858 
  482500   -278.10315    33.542684   -244.56047    2425.2102    119436.44    10.472245    2.6082338 
  482600   -276.24671    29.549252   -246.69746    2136.4762    121437.92    10.472245    2.6841347 
  482700   -275.47115    32.389616   -243.08154    2341.8409    123760.35    10.472245    2.6371822 
  482800   -272.97167    31.351884   -241.61979    2266.8106    131831.99    10.472245    2.8815879 
  482900   -280.54186    31.600364   -248.94149    2284.7762    109989.31    10.472245    2.5941136 
  483000   -274.25361    29.963704   -244.28991    2166.4421    128249.54    10.472245    2.6733502 
  483100   -269.65292    36.326339   -233.32658    2626.4746    147600.41    10.472245    2.8247893 
  483200   -277.02097    33.686165    -243.3348    2435.5842    122453.37    10.472245    2.6503879 
  483300    -277.0866    29.170473   -247.91613    2109.0897    117685.97    10.472245    2.6354881 
  483400   -270.73727    30.152659   -240.58461     2180.104    135053.03    10.472245    2.7970257 
  483500    -273.6833    33.184563   -240.49874    2399.3173    130309.68    10.472245    2.8068199 
  483600   -276.99666    31.278006   -245.71866     2261.469    118583.63    10.472245    2.5320348 
  483700   -274.79976    29.941863    -244.8579    2164.8629    127991.42    10.472245    2.6148421 
  483800   -271.88395    33.367517   -238.51643    2412.5453    135466.26    10.472245     2.742264 
  483900   -278.57696    31.724725   -246.85223    2293.7678    115145.35    10.472245    2.6674593 
  484000   -276.45279    33.294995   -243.15779    2407.3018    123317.18    10.472245     2.663938 
  484100   -271.14691    34.057691   -237.08922    2462.4464    137962.63    10.472245    2.9132487 
  484200   -273.63108     28.68866   -244.94242    2074.2536    129583.61    10.472245    2.6062682 
  484300   -275.61628    31.182155   -244.43412    2254.5388     125815.9    10.472245    2.6845765 
  484400   -274.38651    35.837679   -238.54883    2591.1435    129397.84    10.472245    2.5028376 
  484500   -278.79356    31.771573   -247.02199     2297.155    114083.06    10.472245    2.6780498 
  484600   -278.02006    30.393939   -247.62612     2197.549    117868.21    10.472245    2.6418427 
  484700   -274.01688    33.447496   -240.56938     2418.328    127506.84    10.472245    2.6943034 
  484800   -274.93328    25.652102   -249.28118    1854.7037    123858.26    10.472245    2.5485578 
  484900   -278.99568    32.909692   -246.08599    2379.4435    114370.37    10.472245    2.5783023 
  485000   -276.02968     35.15202   -240.87766    2541.5688    123891.31    10.472245    2.7019626 
  485100   -280.74465    31.023038   -249.72161    2243.0342    106955.07    10.472245    2.5644815 
  485200   -277.59893    31.578179   -246.02075    2283.1722     116219.9    10.472245    2.8497756 
  485300   -275.01938    32.039684    -242.9797      2316.54    128444.84    10.472245    2.7491077 
  485400   -278.08991    32.595681   -245.49422    2356.7398     118678.1    10.472245    2.5233803 
  485500   -278.05822    26.943539   -251.11468    1948.0774    113306.09    10.472245    2.5407891 
  485600   -280.19529    37.348567   -242.84672     2700.384    114817.57    10.472245    2.5906141 
  485700   -277.17809    31.183837   -245.99426    2254.6604    117554.24    10.472245    2.5003487 
  485800   -274.90483    22.379705   -252.52512    1618.1022    119629.95    10.472245    2.8730865 
  485900   -273.35887    29.904567    -243.4543    2162.1663     127708.5    10.472245    2.7558818 
  486000   -272.90262    29.689875   -243.21274    2146.6436    131228.51    10.472245    2.6113926 
  486100   -280.79618    29.845458   -250.95072    2157.8927    105889.78    10.472245    2.6262172 
  486200   -274.47913    32.208967   -242.27016    2328.7795    127099.33    10.472245    2.6088879 
  486300   -275.06476    30.466972   -244.59779    2202.8295    127340.34    10.472245    2.7066859 
  486400   -275.05803    26.576326   -248.48171    1921.5271    122207.03    10.472245    2.7220496 
  486500   -278.81536    31.490908   -247.32445    2276.8623     113598.7    10.472245     2.642915 
  486600    -271.0152    29.340012   -241.67519    2121.3477    136712.99    10.472245    2.7543744 
  486700   -274.76535    25.122206   -249.64314    1816.3911    122452.12    10.472245    2.7930412 
  486800   -277.51589    32.621255   -244.89464    2358.5889    118545.26    10.472245    2.5497227 
  486900   -275.26448    33.165797   -242.09868    2397.9605    125041.21    10.472245    2.7875231 
  487000   -279.08487    30.296479   -248.78839    2190.5024    111964.56    10.472245    2.8183563 
  487100   -274.85604    29.376907   -245.47913    2124.0153    124690.51    10.472245     2.607343 
  487200   -273.54231    31.678349   -241.86396    2290.4147    131159.25    10.472245    2.6993632 
  487300   -278.21521    29.020966   -249.19424      2098.28     112965.8    10.472245    2.5421186 
  487400   -274.83188    30.523808   -244.30807    2206.9388    124986.43    10.472245    2.8580105 
  487500   -274.55873    30.632078   -243.92665     2214.767    128495.75    10.472245    2.6055737 
  487600   -279.04164    32.996468   -246.04517    2385.7176    115886.23    10.472245     2.711171 
  487700   -278.02217     27.76874   -250.25343    2007.7413    113290.52    10.472245    2.7271852 
  487800   -278.12502    36.534555   -241.59047    2641.5291    119567.02    10.472245    2.6686533 
  487900    -278.8984    31.194486   -247.70391    2255.4303    114004.58    10.472245    2.6410101 
  488000     -276.448    30.818451   -245.62954    2228.2422    121627.35    10.472245    2.5793136 
  488100   -274.76102     33.78168   -240.97934    2442.4902     128599.9    10.472245    2.6748423 
  488200   -278.78588    31.481083    -247.3048     2276.152    113311.17    10.472245    2.6825845 
  488300   -270.30713    30.419543   -239.88759    2199.4003     139573.5    10.472245    2.6609907 
  488400   -273.32239    35.499839   -237.82255    2566.7169    132555.49    10.472245    2.7995148 
  488500   -279.58303    32.903808   -246.67923    2379.0181    112130.99    10.472245    2.6900746 
  488600   -274.15738    27.871509   -246.28587    2015.1717    125764.15    10.472245    2.8590469 
  488700   -272.09332    32.078496   -240.01483    2319.3462    134404.52    10.472245    2.8883051 
  488800   -280.68164     34.79711   -245.88453     2515.908    111276.22    10.472245    2.7601202 
  488900    -275.6957    29.603652   -246.09204    2140.4095    123657.69    10.472245     2.687622 
  489000   -275.26605    32.185948    -243.0801    2327.1152    126050.02    10.472245     2.767353 
  489100   -270.39406    35.558073   -234.83598    2570.9273    142606.79    10.472245    2.7295316 
  489200   -277.07767    32.875097   -244.20258    2376.9422    121112.77    10.472245    2.4936896 
  489300   -278.37549    30.764364   -247.61113    2224.3316    113680.65    10.472245    2.7444788 
  489400    -278.1708     36.10238   -242.06842    2610.2819    119039.13    10.472245    2.6349844 
  489500   -274.90078    34.893957   -240.00682    2522.9103    129285.54    10.472245    2.6084348 
  489600   -277.62685    29.749112   -247.87773    2150.9266    117950.71    10.472245    2.6266372 
  489700   -273.65766    29.948493   -243.70917    2165.3423    131305.13    10.472245     2.572476 
  489800   -268.63454    32.668867   -235.96567    2362.0314    148226.83    10.472245    2.6672336 
  489900   -273.42871     30.38855   -243.04016    2197.1594    130366.61    10.472245    2.5148232 
  490000   -279.39375    32.667381   -246.72636    2361.9239    112946.42    10.472245    2.6644714 
  490100   -279.76575    34.281307   -245.48445    2478.6143    113433.46    10.472245    2.8514534 
  490200   -270.28116    31.837969   -238.44319    2301.9556    142652.37    10.472245    2.7088961 
  490300   -280.13908    32.500462   -247.63861    2349.8553    109172.19    10.472245    2.6745604 
  490400   -277.10669    29.758956   -247.34774    2151.6383    120993.52    10.472245    2.5501215 
  490500   -275.39135    32.861636   -242.52971     2375.969    125060.47    10.472245    2.6817841 
  490600   -275.98515    30.334924   -245.65023    2193.2821    121544.95    10.472245    2.6236293 
  490700   -277.26901    30.044172   -247.22484    2172.2601     116428.4    10.472245    2.7377177 
  490800   -274.10164    33.072645     -241.029    2391.2254    131453.18    10.472245    2.5369406 
  490900   -274.07789    29.350431   -244.72746    2122.1011    126767.16    10.472245    2.7009726 
  491000   -277.50493    32.564553   -244.94038    2354.4892    122389.98    10.472245    2.6324159 
  491100   -281.46638    31.606738   -249.85964    2285.2371    104202.63    10.472245    2.7624634 
  491200   -273.80598    29.185827   -244.62015    2110.1998    128727.43    10.472245    2.7262745 
  491300   -276.37755    33.014254   -243.36329    2387.0036     123276.4    10.472245     2.712194 
  491400   -276.97358    27.280808   -249.69277    1972.4628    118337.98    10.472245     2.755081 
  491500   -280.24528    27.659265   -252.58601    1999.8261    106533.31    10.472245    2.6275735 
  491600     -276.185    31.759712   -244.42529    2296.2974    123140.87    10.472245     2.815988 
  491700   -272.84031    32.636882   -240.20343    2359.7188    132958.74    10.472245    2.6353619 
  491800   -275.77577    34.929696   -240.84607    2525.4943    126965.46    10.472245    2.6689454 
  491900   -281.07002    32.089973   -248.98005     2320.176    106465.98    10.472245    2.5323025 
  492000   -276.82873    34.826711   -242.00202    2518.0482    122385.72    10.472245     2.596748 
  492100   -277.70293     34.18066   -243.52227    2471.3373    118931.15    10.472245    2.7149541 
  492200   -281.77298    34.065068   -247.70791    2462.9797    106207.49    10.472245    2.5901651 
  492300   -273.95531    29.917655   -244.03766    2163.1126    129504.72    10.472245    2.5894255 
  492400   -274.73113    33.717635   -241.01349    2437.8596    127376.52    10.472245    2.6705926 
  492500   -277.89609    29.020605   -248.87548    2098.2539    115685.39    10.472245    2.4567246 
  492600   -280.20787     34.08324   -246.12463    2464.2937    110333.66    10.472245    2.5765145 
  492700   -276.56006     34.56148   -241.99858    2498.8715    121511.49    10.472245    2.5759632 
  492800   -278.23673    33.891479   -244.34525    2450.4289    116628.34    10.472245    2.7346303 
  492900   -278.02431    30.331235   -247.69308    2193.0154     115116.3    10.472245    2.6643985 
  493000   -270.53561    31.294936   -239.24068    2262.6931     141391.4    10.472245    2.7037267 
  493100    -275.2889    31.403245   -243.88565     2270.524    127180.98    10.472245    2.7975601 
  493200   -276.91817    32.653483   -244.26468    2360.9191    120136.85    10.472245    2.6459177 
  493300   -273.42228    30.967654   -242.45463    2239.0298    131235.92    10.472245    2.7030297 
  493400   -276.71535    27.488491   -249.22686    1987.4787    118082.03    10.472245    2.6319785 
  493500   -274.95795    30.981987   -243.97596    2240.0662    126662.24    10.472245    2.7191621 
  493600   -275.09597    30.978103   -244.11787    2239.7854    126037.45    10.472245    2.8624914 
  493700   -281.13481    29.362613   -251.77219    2122.9819    107980.11    10.472245    2.6763673 
  493800   -278.17962    28.570549   -249.60907    2065.7139    115352.29    10.472245    2.6466216 
  493900   -273.67888    30.122604   -243.55628    2177.9309    130104.49    10.472245    2.6556857 
  494000   -276.64742    31.939074   -244.70834    2309.2657     120921.3    10.472245    2.7182011 
  494100   -276.57962    27.257202   -249.32242     1970.756    118883.41    10.472245    2.7089298 
  494200   -272.31019    32.795195   -239.51499    2371.1652    134633.85    10.472245    2.9146204 
  494300   -272.77895    27.981743   -244.79721    2023.1419    129100.08    10.472245    2.5269669 
  494400   -274.15403     28.85763    -245.2964    2086.4705    127291.49    10.472245    2.6886494 
  494500   -273.51352    28.536007   -244.97751    2063.2164    128290.58    10.472245    2.6978578 
  494600   -278.39156    28.099267    -250.2923    2031.6391    114135.16    10.472245    2.7830007 
  494700   -277.52813     35.19008   -242.33805    2544.3206    120361.37    10.472245    2.5469449 
  494800   -278.57307    33.790611   -244.78246    2443.1359    117254.21    10.472245    2.7072971 
  494900   -273.25295    27.211282   -246.04167    1967.4359    128029.58    10.472245    2.7357738 
  495000   -273.22788    30.896868   -242.33101    2233.9119    131021.61    10.472245    2.7016297 
  495100   -274.46848    36.344158   -238.12433     2627.763    129794.73    10.472245    2.5100865 
  495200   -275.65721    27.909618   -247.74759    2017.9271    124918.35    10.472245    2.7343237 
  495300   -275.29829    31.369462   -243.92883    2268.0815    127484.76    10.472245    2.7030683 
  495400   -274.35841    35.645834   -238.71258    2577.2726    132549.62    10.472245    2.7437045 
  495500    -275.4112    30.568685   -244.84252    2210.1836    125976.26    10.472245    2.6409333 
  495600   -276.88597    29.062221   -247.82375    2101.2628    119859.07    10.472245    2.6109677 
  495700   -268.99463    28.285817   -240.70881    2045.1271    141647.02    10.472245    2.7335735 
  495800   -277.33422    32.704878   -244.62935     2364.635    116045.87    10.472245    2.6892825 
  495900   -280.71674    32.158305   -248.55843    2325.1165    109310.91    10.472245    2.6532137 
  496000   -273.25393     30.19552   -243.05841    2183.2029    131148.82    10.472245    2.6769552 
  496100   -276.30328    34.162181    -242.1411    2470.0012    122087.93    10.472245    2.5697205 
  496200   -277.11293    31.386362   -245.72657    2269.3034    119881.13    10.472245    2.7001813 
  496300   -276.88229    29.586935   -247.29536    2139.2008    117299.43    10.472245    2.5843155 
  496400   -269.90569    30.449215   -239.45647    2201.5456    141861.17    10.472245     2.697184 
  496500   -276.64587    30.253831   -246.39204    2187.4189    120282.22    10.472245    2.6703633 
  496600    -275.4598    29.458138   -246.00167    2129.8885    124751.87    10.472245    2.6083983 
  496700   -274.27542    34.727029   -239.54839     2510.841    131274.99    10.472245    2.5365734 
  496800   -272.06438    34.216437   -237.84795    2473.9241    139994.44    10.472245    2.6418054 
  496900   -276.13804    30.416734   -245.72131    2199.1971    126653.98    10.472245    2.5587231 
  497000   -275.42071    28.381659   -247.03905    2052.0567    123101.01    10.472245     2.693658 
  497100   -274.64674    35.449339   -239.19741    2563.0656    128914.64    10.472245    2.5523789 
  497200   -277.79706    30.451993   -247.34507    2201.7464    117656.44    10.472245    2.7036675 
  497300   -276.15131    29.958562   -246.19275    2166.0703    121850.66    10.472245    2.6942032 
  497400   -270.98039    29.335481   -241.64491    2121.0202    136694.48    10.472245    2.6274482 
  497500   -275.22016    30.213252   -245.00691    2184.4849    125945.85    10.472245    2.7260309 
  497600   -281.38586    29.553206   -251.83266    2136.7621     104782.1    10.472245    2.6631212 
  497700   -277.18866    29.381661     -247.807    2124.3591    117847.56    10.472245    2.6929455 
  497800   -274.46825    32.689463   -241.77879    2363.5205    129443.45    10.472245    2.7205112 
  497900   -277.38733    29.238917   -248.14842    2114.0384     116751.9    10.472245    2.7116302 
  498000   -276.77523    31.600303   -245.17492    2284.7718    122647.85    10.472245    2.6662985 
  498100   -275.92612    34.933073   -240.99305    2525.7384    126620.26    10.472245    2.6854757 
  498200   -280.05373    32.800432    -247.2533    2371.5438    110871.82    10.472245    2.6383643 
  498300   -275.31631    35.759851   -239.55646    2585.5163     127042.8    10.472245    2.6677703 
  498400   -273.52158    36.090393   -237.43119    2609.4152    132757.08    10.472245    2.7694419 
  498500   -273.08669    28.328974   -244.75771    2048.2475    133753.42    10.472245    2.6242733 
  498600   -271.94369    27.831477   -244.11221    2012.2773    134000.91    10.472245    2.6458082 
  498700   -275.36422    34.734069   -240.63015      2511.35    126112.27    10.472245    2.5906767 
  498800   -276.32755    29.752513   -246.57504    2151.1725    120098.71    10.472245    2.6816781 
  498900    -278.1745    29.189897    -248.9846    2110.4941     114800.2    10.472245    2.7372873 
  499000   -273.21405    32.568596   -240.64545    2354.7815    131900.99    10.472245    2.7054955 
  499100   -278.72943    31.399898   -247.32953    2270.2821     116463.8    10.472245    2.8391482 
  499200   -275.95741    30.203559   -245.75385    2183.7841    123647.57    10.472245    2.4642598 
  499300    -277.4637     32.64252   -244.82118    2360.1264    116974.72    10.472245    2.6903883 
  499400   -272.89558    35.928591   -236.96699    2597.7166    131002.18    10.472245    2.8047394 
  499500   -270.62254     31.89901   -238.72353     2306.369    143109.07    10.472245    2.7191708 
  499600   -276.13398     29.66453   -246.46945    2144.8111    121440.19    10.472245    2.6306898 
  499700    -277.8089     34.19406   -243.61484    2472.3062    120160.07    10.472245     2.801482 
  499800   -274.06023    34.202855   -239.85737    2472.9421    132582.14    10.472245    2.4478747 
  499900   -278.82739    29.776053   -249.05134    2152.8745    114919.35    10.472245    2.6534921 
  500000   -276.44557    34.139296   -242.30627    2468.3466    122513.05    10.472245    2.5545449 
Loop time of 158.829 on 1 procs for 500000 steps with 108 atoms

Performance: 1359.955 ns/day, 0.018 hours/ns, 3148.044 timesteps/s
100.0% CPU use with 1 MPI tasks x no OpenMP threads

MPI task timing breakdown:
Section |  min time  |  avg time  |  max time  |%varavg| %total
---------------------------------------------------------------
Pair    | 93.838     | 93.838     | 93.838     |   0.0 | 59.08
Neigh   | 6.7676     | 6.7676     | 6.7676     |   0.0 |  4.26
Comm    | 2.5757     | 2.5757     | 2.5757     |   0.0 |  1.62
Output  | 0.093404   | 0.093404   | 0.093404   |   0.0 |  0.06
Modify  | 55.133     | 55.133     | 55.133     |   0.0 | 34.71
Other   |            | 0.4209     |            |       |  0.27

Nlocal:    108 ave 108 max 108 min
Histogram: 1 0 0 0 0 0 0 0 0 0
Nghost:    994 ave 994 max 994 min
Histogram: 1 0 0 0 0 0 0 0 0 0
Neighs:    5562 ave 5562 max 5562 min
Histogram: 1 0 0 0 0 0 0 0 0 0

Total # of neighbors = 5562
Ave neighs/atom = 51.5
Neighbor list builds = 29317
Dangerous builds = 33
    
Total wall time: 0:02:38
