LAMMPS (3 Mar 2020)

# ---------- 1. Initialize simulation ----------
units metal
atom_style atomic
dimension 3
boundary p p p
read_data /home/modeler/RemLabs/Project/arrhenius_4/T1600.0/n3_T1600.0_timestep3.000000e-03_eqsteps3200_time600_rseed3328/20201205-125723/lammps.data
  orthogonal box = (0 0 0) to (17.469 17.469 17.469)
  1 by 1 by 1 MPI processor grid
  reading atoms ...
  217 atoms
  read_data CPU = 0.00107984 secs

pair_style meam/c
pair_coeff * * library.meam Li Si LiSi.meam Li Si
Reading potential file library.meam with DATE: 2012-06-29
Reading potential file LiSi.meam with DATE: 2020-11-07

group Li type 1
1 atoms in group Li
group Si type 2
216 atoms in group Si

velocity all create 1600.0 3328 dist gaussian

# ---------- 2. Specify equilibration ensemble  ----------
fix 1 all npt temp 1600.0 1600.0 0.15 tchain 2 iso 1.0 1.0 1.0 pchain 2
# fix 1 all nvt temp 1600.0 1600.0 0.15

# ---------- 3. Run equilibration -------------
timestep 0.003
run 3200
Neighbor list info ...
  update every 1 steps, delay 10 steps, check yes
  max neighbors/atom: 2000, page size: 100000
  master list distance cutoff = 6
  ghost atom cutoff = 6
  binsize = 3, bins = 6 6 6
  2 neighbor lists, perpetual/occasional/extra = 2 0 0
  (1) pair meam/c, perpetual
      attributes: full, newton on
      pair build: full/bin/atomonly
      stencil: full/bin/3d
      bin: standard
  (2) pair meam/c, perpetual, half/full from (1)
      attributes: half, newton on
      pair build: halffull/newton
      stencil: none
      bin: none
Per MPI rank memory allocation (min/avg/max) = 8.895 | 8.895 | 8.895 Mbytes
Step Temp E_pair E_mol TotEng Press Volume 
       0         1600   -951.04357            0   -906.37126   -115280.58    5330.9442 
    3200    1607.0327   -946.46135            0   -901.59269    6814.6708    4595.4481 
Loop time of 2.28628 on 1 procs for 3200 steps with 217 atoms

Performance: 362.790 ns/day, 0.066 hours/ns, 1399.651 timesteps/s
100.0% CPU use with 1 MPI tasks x no OpenMP threads

MPI task timing breakdown:
Section |  min time  |  avg time  |  max time  |%varavg| %total
---------------------------------------------------------------
Pair    | 2.2202     | 2.2202     | 2.2202     |   0.0 | 97.11
Neigh   | 0.017239   | 0.017239   | 0.017239   |   0.0 |  0.75
Comm    | 0.01401    | 0.01401    | 0.01401    |   0.0 |  0.61
Output  | 2.455e-05  | 2.455e-05  | 2.455e-05  |   0.0 |  0.00
Modify  | 0.029748   | 0.029748   | 0.029748   |   0.0 |  1.30
Other   |            | 0.005018   |            |       |  0.22

Nlocal:    217 ave 217 max 217 min
Histogram: 1 0 0 0 0 0 0 0 0 0
Nghost:    957 ave 957 max 957 min
Histogram: 1 0 0 0 0 0 0 0 0 0
Neighs:    4220 ave 4220 max 4220 min
Histogram: 1 0 0 0 0 0 0 0 0 0
FullNghs:  8440 ave 8440 max 8440 min
Histogram: 1 0 0 0 0 0 0 0 0 0

Total # of neighbors = 8440
Ave neighs/atom = 38.894
Neighbor list builds = 29
Dangerous builds = 0

# ---------- 4. Describe computed properties----------
compute msdli Li msd
compute msdsi Si msd
thermo_style custom step pe ke etotal temp press density c_msdli[4] c_msdsi[4]
thermo 100

# ---------- 3. Run production -------------
timestep 0.003
run 200000
Per MPI rank memory allocation (min/avg/max) = 9.662 | 9.662 | 9.662 Mbytes
Step PotEng KinEng TotEng Temp Press Density c_msdli[4] c_msdsi[4] 
    3200   -946.46135     44.86866   -901.59269    1607.0327    6814.6708    2.1946299            0 7.5899472e-32 
    3300   -951.51641    41.678751   -909.83766    1492.7817    9014.5956     2.209516  0.092607803  0.099220495 
    3400   -946.98882    45.156866   -901.83196    1617.3552   -9676.1443    2.1543743  0.089433956   0.10927582 
    3500   -946.24236    44.570974   -901.67138    1596.3707   -3589.7998    2.1668406  0.055058645   0.11607924 
    3600   -948.42321    43.598945   -904.82426    1561.5561     9143.341    2.2046474   0.15374056   0.14433733 
    3700   -949.69274    39.392868   -910.29987    1410.9097    4179.7506     2.198861   0.13055938   0.10667857 
    3800   -942.51226    42.656701   -899.85556    1527.8083   -8675.6651    2.1458539   0.18605363   0.13249672 
    3900   -945.69366    43.544925   -902.14873    1559.6213    1743.7426    2.1791043  0.033074668    0.1203018 
    4000   -947.82462    44.351481   -903.47314    1588.5092     11148.62    2.2075598   0.17890143   0.11807492 
    4100   -949.43312    46.352866   -903.08025    1660.1915   -2546.7877     2.176272   0.17772369   0.11106054 
    4200   -942.71439    47.495007   -895.21938    1701.0989   -16106.916    2.1293508   0.13814715   0.10011586 
    4300   -946.60516    43.640836   -902.96433    1563.0565    2524.9091    2.1862055   0.11331669   0.10546418 
    4400   -945.85125    42.965108   -902.88614    1538.8544    13830.625    2.2120107   0.15707844   0.11419849 
    4500   -948.02423    48.217994   -899.80624    1726.9937     -3900.86    2.1691925  0.011581008   0.12882892 
    4600   -940.76773    44.418715   -896.34901    1590.9173   -12481.862    2.1357715   0.34126015   0.14677222 
    4700   -950.12458    45.389996   -904.73458     1625.705    1829.5097    2.1910663  0.047530676   0.13940668 
    4800   -947.52226    47.075229   -900.44703     1686.064    10932.376    2.2068997    1.8319259   0.15385535 
    4900   -944.59996     46.15082   -898.44914     1652.955    -4533.937    2.1578859   0.42514085   0.14961545 
    5000   -949.05972    41.507393   -907.55232    1486.6443   -9282.5753    2.1596691  0.031468133   0.12103322 
    5100   -947.70263    42.912003   -904.79063    1536.9523    4068.6333      2.18886  0.029696005   0.13380052 
    5200    -944.8554    45.565244   -899.29016    1631.9818    10942.416    2.1975739  0.026502584  0.099675771 
    5300   -945.80111    40.640842   -905.16027    1455.6076   -3168.2621    2.1683182   0.12613959   0.11189165 
    5400   -950.52492    42.516637   -908.00828    1522.7917   -10948.173    2.1576303  0.077336699   0.11642341 
    5500   -950.10976    49.341421   -900.76833    1767.2308    3383.0589     2.188174   0.21870799   0.10531877 
    5600   -948.57386    45.736007   -902.83786    1638.0979     7920.508     2.200085   0.10507424    0.1313939 
    5700   -951.26491    41.217342   -910.04757    1476.2557   -5490.5455    2.1742994   0.19381066   0.12950835 
    5800   -946.96703    45.278211   -901.68882    1621.7013   -10191.988    2.1517055  0.047454331   0.14537421 
    5900   -947.45616    46.681392   -900.77477    1671.9582    7176.1651    2.1937673  0.094628686   0.11895094 
    6000   -950.91551     45.99069   -904.92482    1647.2197    6029.0696    2.1952599  0.051739296   0.11586091 
    6100   -946.78807     44.85683   -901.93124     1606.609   -7628.4269    2.1567767  0.072051122   0.11372153 
    6200   -948.05468    50.384157   -897.67052    1804.5778   -9538.2409    2.1517099   0.12691299   0.10874762 
    6300   -950.28312    46.813482   -903.46964    1676.6892    4406.6112     2.192203  0.054292795    0.1075591 
    6400   -947.46454    43.073953   -904.39059    1542.7528    7902.3354    2.1967575   0.55051336   0.11912696 
    6500   -940.28935    45.425993   -894.86336    1626.9943   -5428.3658    2.1437657    4.3023515   0.14908646 
    6600   -946.67843    44.526648   -902.15179    1594.7831   -6573.7785    2.1631176    6.1419763   0.14986776 
    6700   -948.79998    45.578657   -903.22133    1632.4622    3632.0977    2.1909894    5.4611079   0.13643471 
    6800   -946.79552    48.023659   -898.77186    1720.0333    5443.6853    2.1853554    5.2454714   0.15898905 
    6900    -940.8748    44.617346   -896.25745    1598.0315   -6759.7152    2.1426122    4.6916863   0.14847201 
    7000   -946.68146     42.08701   -904.59445    1507.4041   -4267.0486    2.1668252    4.6561813   0.14383585 
    7100   -947.60246    46.602882   -900.99958    1669.1462    6518.0855     2.196067    3.4675166   0.14683863 
    7200   -945.84509    48.191308   -897.65378    1726.0379    120.15821    2.1769528    4.3160894    0.1549999 
    7300   -949.54902    44.503026     -905.046     1593.937   -10920.218    2.1537828     7.093276   0.14813092 
    7400   -945.36736    40.740947   -904.62641     1459.193   -2476.2074    2.1678257    4.7481844   0.13299684 
    7500   -944.03098    44.406114   -899.62487     1590.466    7745.6744      2.19233    5.6729758     0.131857 
    7600   -944.90292    41.610086   -903.29284    1490.3224    1098.7313    2.1785824    5.4399828   0.13220896 
    7700   -953.31102    44.523178   -908.78784    1594.6588   -4704.1239    2.1779361    6.5174856   0.13003833 
    7800   -946.74604    46.106345   -900.63969    1651.3621    -3105.353    2.1681256    6.2948634   0.15308687 
    7900   -943.71823    42.734106   -900.98413    1530.5807    2300.3568    2.1764854    3.9438489   0.16221576 
    8000    -948.4257    40.739499    -907.6862    1459.1411    3501.3783    2.1930135    17.449042   0.12868021 
    8100   -948.52843    47.050444   -901.47799    1685.1763   -3422.3346    2.1694273    6.5365682   0.15007845 
    8200   -945.72055    45.329942   -900.39061    1623.5541    6.5439347    2.1738734    4.7166457   0.14701282 
    8300   -946.63618     43.39555   -903.24063    1554.2712    1423.7024    2.1845093    9.4687487   0.15322886 
    8400   -948.78838    40.473625   -908.31476    1449.6185   -176.74062    2.1871919    5.3734519   0.14250462 
    8500    -947.5428    46.088868   -901.45394    1650.7361   -3757.4996    2.1671265     4.602296   0.15721909 
    8600   -947.47665    48.030731   -899.44592    1720.2866    1520.8634    2.1805972    3.0710659   0.14138722 
    8700   -943.87368    41.747082    -902.1266    1495.2291    2196.5816    2.1790883    4.9708538   0.17224478 
    8800   -947.44871    41.568409    -905.8803    1488.8297    321.41319    2.1789659    5.3862618   0.16061722 
    8900   -947.40187    46.284989   -901.11688    1657.7604     4219.051    2.1847934    5.5210201   0.15886476 
    9000   -944.56048    46.935111   -897.62537    1681.0454    2452.6954    2.1757056     5.933734   0.16682849 
    9100   -948.22472    46.101795   -902.12293    1651.1991   -7644.8007     2.159582    5.0108911   0.15253452 
    9200   -947.47277    43.922262   -903.55051    1573.1361   -1593.8366    2.1742522    4.2625055     0.160411 
    9300   -942.72854    48.725131   -894.00341    1745.1575    7685.6414    2.1854218   0.54109607   0.15547646 
    9400   -946.80757    46.703359   -900.10421     1672.745     2133.133    2.1859883   0.42705071    0.1508138 
    9500   -944.66535    39.877962   -904.78739     1428.284   -9886.4016    2.1568081  0.029845792    0.1251591 
    9600   -942.72158    42.235417   -900.48616    1512.7195     -1575.16    2.1672285  0.020886604   0.13731602 
    9700    -945.6599    50.761771   -894.89813    1818.1026    7651.2277     2.192472  0.039111085   0.14046975 
    9800   -944.71745    41.935551    -902.7819    1501.9794    6193.7867    2.1906917  0.040788393   0.14878419 
    9900   -948.99413    45.007077   -903.98705    1611.9903    -9518.939    2.1593446   0.13467055    0.1347877 
   10000   -944.79694    47.559153   -897.23778    1703.3964   -4296.8343    2.1620658   0.27383362   0.13353856 
   10100    -945.0166    46.439795   -898.57681     1663.305    7096.3628    2.1917214  0.095959077   0.12257723 
   10200   -952.14644    48.045289   -904.10115     1720.808   -798.08841    2.1852576  0.064777245   0.10448585 
   10300    -945.3567    42.270929   -903.08577    1513.9914   -4033.6052    2.1665762  0.058741586   0.13654892 
   10400   -943.57184    45.659055   -897.91279    1635.3418   -1930.6497    2.1687942  0.074323527   0.13578765 
   10500   -943.79423    49.185348   -894.60888    1761.6408    1155.5439    2.1709937    0.0587104   0.12736328 
   10600   -949.05334    45.395529   -903.65781    1625.9032    3585.3785    2.1879576  0.097761187   0.12673627 
   10700     -949.611    46.643856   -902.96715    1670.6137   -1210.3314    2.1757059  0.047650226   0.11376889 
   10800   -947.27547    45.263064    -902.0124    1621.1588   -2803.9017    2.1739653     0.164375    0.1346226 
   10900   -949.07591    41.779423   -907.29649    1496.3874    887.67686    2.1834097   0.11988205   0.12298276 
   11000   -948.84308    39.646689   -909.19639    1420.0006    3232.6941    2.1906859   0.13071639   0.12144551 
   11100   -947.61585    43.715503   -903.90035    1565.7308    1819.6577    2.1859625  0.038301527   0.12157391 
   11200   -947.19157    45.651546   -901.54002    1635.0728   -2015.3972    2.1748971   0.11575444   0.11422918 
   11300   -946.85769     43.21342   -903.64427     1547.748   -3341.7055    2.1724642  0.056204969    0.1292993 
   11400   -949.81813    40.597834    -909.2203    1454.0672    5404.4973    2.1987969   0.34563709   0.12581098 
   11500   -949.82078    47.541588    -902.2792    1702.7673    1208.4767    2.1876736   0.15237285   0.12301076 
   11600   -947.29845      45.2504   -902.04805    1620.7052   -6005.7113    2.1657285 0.0047747917   0.13075811 
   11700   -952.57272    43.240079   -909.33264    1548.7028   -5887.9616    2.1757242  0.068375848   0.12082716 
   11800   -948.67915     42.48939   -906.18976    1521.8158     8544.561    2.2067439   0.17845754   0.12585716 
   11900   -947.43933    46.879548   -900.55978    1679.0554    7544.1806    2.2007502   0.11317902   0.14674553 
   12000   -948.08138    43.362744   -904.71863    1553.0962   -14399.131    2.1465695   0.07166935   0.13322625 
   12100   -946.53645    41.422602   -905.11385    1483.6074   -6591.5138    2.1620609  0.087249448   0.12248114 
   12200   -944.10308    48.076471   -896.02661    1721.9248    9791.3646    2.1946335   0.12545693   0.11727667 
   12300   -952.46877     51.37082   -901.09795    1839.9165    1431.6436    2.1913085   0.10632085   0.12856435 
   12400   -945.45495    40.369779   -905.08517    1445.8991    -4433.582    2.1627755  0.090620431   0.13927204 
   12500    -942.9276    43.721221   -899.20638    1565.9356   -1718.1769    2.1683232   0.05586214   0.14508437 
   12600   -944.60446    47.800053   -896.80441    1712.0246    3861.7869    2.1860725   0.28914648   0.13690589 
   12700   -948.68471    44.752375   -903.93234    1602.8678    3192.5817    2.1914726    0.0803004   0.12329022 
   12800   -945.75338    42.716665   -903.03671     1529.956   -4263.8606    2.1695253   0.04647725   0.14382862 
   12900   -943.90088    48.253028   -895.64785    1728.2485    -3477.561    2.1637256  0.085819712   0.13818282 
   13000   -948.57086    43.946262    -904.6246    1573.9957     6539.439     2.198556  0.035758661   0.11986399 
   13100   -950.56553    46.272079   -904.29345    1657.2981   -3510.7188    2.1784473   0.08343857   0.12196055 
   13200   -944.09611    43.380916    -900.7152    1553.7471   -3997.3886    2.1656174   0.32936394   0.12360229 
   13300   -946.18568    46.966991   -899.21869    1682.1873    2395.9034    2.1808617    0.2645459   0.13195904 
   13400   -953.86473    45.758794   -908.10593    1638.9141    7847.1723    2.2123619   0.22551792   0.12716651 
   13500   -948.45805    45.126769   -903.33128    1616.2772   -5095.0203    2.1728254   0.11996957   0.13364368 
   13600   -946.26427    44.687762   -901.57651    1600.5536   -11225.208    2.1516896   0.09274124   0.14563568 
   13700   -952.56284    44.456184   -908.10666    1592.2593    3583.0238    2.2027166  0.046620871   0.11203356 
   13800   -950.90591    44.198394   -906.70751    1583.0262    18174.531    2.2324668   0.26142215   0.12013147 
   13900   -945.90753    44.738862   -901.16867    1602.3838   -9313.7111    2.1545874  0.035530346   0.12977311 
   14000   -945.79296    42.930462    -902.8625    1537.6135     -18815.4    2.1270328   0.19797942    0.1243277 
   14100   -952.19041    47.048066   -905.14234    1685.0911    7412.9579    2.2078054  0.058950191   0.12448053 
   14200    -946.0288    50.616226   -895.41257    1812.8897     10880.78    2.2001255  0.027143849   0.11912931 
   14300   -949.49786     49.54124   -899.95662    1774.3875   -5016.7732    2.1691333   0.09238354   0.13141413 
   14400   -949.15735    44.225978   -904.93137    1584.0141   -8994.5819    2.1648313   0.19044076   0.12320683 
   14500   -947.75316    46.413826   -901.33933    1662.3749    3203.6875    2.1900615   0.37373718   0.12147504 
   14600   -944.22813    48.884572   -895.34355    1750.8681    6147.1184    2.1865836  0.017714455   0.14490374 
   14700   -949.11495    45.176771   -903.93818    1618.0681   -801.87181    2.1785587  0.063420228   0.12084533 
   14800   -945.51478    42.145208   -903.36957    1509.4885   -4695.3148    2.1696872   0.06708786   0.13603289 
   14900   -941.41707    45.550959   -895.86611    1631.4701    2926.9527    2.1773413  0.013486323    0.1379925 
   15000   -950.93989    47.411998   -903.52789    1698.1258    3096.2711    2.1945944  0.073619275   0.12567703 
   15100   -945.95916    41.226562   -904.73259    1476.5859   -4388.0081    2.1690427  0.021954208   0.12110054 
   15200   -944.58672    43.853232   -900.73348    1570.6637    -4565.082    2.1641898  0.097531629   0.12675579 
   15300   -949.44836    49.546842   -899.90152    1774.5882    4368.8837    2.1931612   0.02678371   0.12813995 
   15400   -949.51128    41.520055   -907.99123    1487.0978    11321.716    2.2147919   0.22429751   0.12654455 
   15500   -946.16584    43.122819   -903.04302     1544.503   -8050.2535    2.1588702  0.031443764   0.14179171 
   15600   -947.39998    45.771671   -901.62831    1639.3753   -10950.645    2.1528129  0.016963138   0.14112384 
   15700    -952.1427    43.896464   -908.24623    1572.2122    9201.8369    2.2167261  0.081855937   0.12930762 
   15800    -951.3935    44.490359   -906.90314    1593.4833    8857.8959    2.2114198  0.066704237   0.12478917 
   15900   -945.84192    44.005837   -901.83608    1576.1295   -8702.6654    2.1540525  0.089998417    0.1399915 
   16000   -947.52192    44.177104   -903.34482    1582.2637   -8653.5825    2.1604381  0.088043036   0.13853772 
   16100   -949.51248    40.320379    -909.1921    1444.1298    8057.7524    2.2058603   0.53011359   0.11849886 
   16200   -945.27889    45.101338   -900.17756    1615.3664    3304.4701    2.1823672   0.14786146   0.11829035 
   16300   -945.40331    43.914139   -901.48918    1572.8452   -752.19587    2.1723178    0.2191953   0.13354281 
   16400   -949.64242    44.408911   -905.23351    1590.5661   -2485.8769    2.1776739  0.034760235   0.12463925 
   16500   -949.13444    42.092986   -907.04145    1507.6181    3038.2207    2.1895486 0.0076192999   0.13870456 
   16600   -944.01654    46.632883   -897.38366    1670.2208   -1791.5853     2.163133  0.061358282   0.14283361 
   16700   -946.34311    44.137737   -902.20537    1580.8537   -1372.5737    2.1745356   0.37618675   0.12128019 
   16800   -947.11471    42.142679   -904.97204    1509.3979    3012.5801    2.1868406   0.20657952   0.12333442 
   16900   -946.34544    46.831974   -899.51346    1677.3515    3798.9174    2.1808393   0.17225592   0.11913035 
   17000   -945.45588    47.347285   -898.10859     1695.808   -2580.7216    2.1640965   0.16839665   0.13926031 
   17100    -945.6197    41.063155   -904.55654    1470.7333   -4269.8177    2.1687621  0.050966682   0.13592244 
   17200   -947.78865    45.253279   -902.53537    1620.8084    2779.3615    2.1908753    0.1541075   0.13905294 
   17300   -941.98915    48.061625   -893.92752    1721.3931    5928.5668    2.1774417  0.087125636     0.145522 
   17400   -945.13354    42.201488   -902.93206    1511.5042    -927.6479     2.171786   0.20314109   0.13280121 
   17500   -948.44608     43.99438    -904.4517    1575.7191   -9184.0902    2.1588241   0.15847597   0.13432244 
   17600   -938.32094    39.877635    -898.4433    1428.2723    9687.3203    2.1878984   0.10171628   0.15419367 
   17700   -943.71153     43.73112   -899.98041    1566.2901    9683.4908    2.1968516   0.20039776   0.12933771 
   17800   -951.89792    45.552961   -906.34495    1631.5419   -8781.3219    2.1647982   0.12242037   0.13099256 
   17900   -951.05979    47.777546   -903.28225    1711.2184    -6952.057    2.1636526  0.090124193   0.11792205 
   18000   -946.74726    48.042969   -898.70429    1720.7249    7826.2982    2.1954009   0.30820536   0.12154284 
   18100   -949.75693    42.064613   -907.69231    1506.6019    5309.9276    2.1988068   0.19607665   0.12463531 
   18200   -948.12495    42.677421   -905.44753    1528.5505   -11111.891    2.1516254  0.020686292   0.13166602 
   18300   -947.64759    46.348379   -901.29921    1660.0308   -4010.7455    2.1661436  0.038381288   0.13897413 
   18400   -949.60082    45.553842   -904.04698    1631.5734    8873.4457    2.2039365  0.077014771   0.11731384 
   18500   -953.24749    42.943896   -910.30359    1538.0946    1819.4261    2.1983827   0.16508035   0.12758267 
   18600   -946.08499    44.881452   -901.20353    1607.4908   -6795.9139     2.155208  0.088847762   0.12169508 
   18700   -946.53771    44.016815   -902.52089    1576.5227     77.00676    2.1772365   0.23170145   0.12320574 
   18800   -952.09396    44.396173   -907.69779    1590.1099    3735.7934    2.1965715   0.10778216   0.12177453 
   18900   -947.87998    49.035764   -898.84421    1756.2832   -3000.2915     2.169898   0.12825526   0.10381912 
   19000   -945.15611    44.279901   -900.87621    1585.9455   -983.31276      2.17335  0.077500833   0.13024658 
   19100   -951.58649    46.134753   -905.45173    1652.3796    -1161.257    2.1824903   0.14266336   0.11446121 
   19200   -947.05695    44.746501   -902.31045    1602.6574    2282.4309    2.1819133  0.076330608   0.13130389 
   19300   -946.66518    48.721418   -897.94376    1745.0245   -4779.9355    2.1597889  0.071411869   0.13179517 
   19400   -949.44614    44.264521   -905.18162    1585.3946   -2488.4287    2.1724896   0.01519105  0.098854806 
   19500   -950.22948    47.545712   -902.68377     1702.915    2616.1373    2.1848044   0.19494856   0.11476268 
   19600   -946.03423    50.492946   -895.54128    1808.4742    46.293607    2.1695781   0.15761231   0.11386711 
   19700   -947.32146    42.381174   -904.94029      1517.94   -1534.4158    2.1709707   0.10432976   0.11015759 
   19800   -950.00264    45.951972   -904.05067     1645.833   -5874.2758    2.1644416   0.10784532   0.11262133 
   19900   -944.67223    47.016544   -897.65569    1683.9621     4870.834    2.1788155   0.16013851   0.11111678 
   20000   -947.02421    41.337053   -905.68716    1480.5433    6607.5832    2.1957375  0.094496789   0.10866095 
   20100   -947.44818    41.758783   -905.68939    1495.6482   -9075.6175    2.1526939  0.041006115   0.11399891 
   20200   -943.07348    42.150948   -900.92254    1509.6941   -3691.3957    2.1589505  0.022509553   0.13307759 
   20300   -949.98984     45.50577   -904.48407    1629.8517    9588.9526    2.2064039   0.18762712   0.12635257 
   20400   -950.95604    42.678445    -908.2776    1528.5871    6892.9584    2.2017156  0.043756483   0.11709811 
   20500   -947.60445    46.006578   -901.59787    1647.7888   -10021.696      2.15124   0.17594614   0.13079144 
   20600    -948.8141     46.42916   -902.38494    1662.9241   -7192.9105    2.1643712   0.11648124   0.12650112 
   20700   -951.39063    43.045813   -908.34482    1541.7449    11778.314    2.2141889   0.16676483    0.1135793 
   20800   -944.30559    44.693467   -899.61212    1600.7579    5514.6993    2.1829009   0.16836755   0.12834697 
   20900   -944.52303    43.051469   -901.47156    1541.9475   -5056.9885    2.1625947  0.034127743   0.12781092 
   21000   -946.91459    42.204238   -904.71035    1511.6028    -3839.742    2.1717309    4.3705645   0.15078855 
   21100   -945.79531    45.656676   -900.13864    1635.2566    7099.8357    2.1911045    2.4766878   0.14532026 
   21200   -945.53765    48.823514   -896.71414    1748.6812    1837.0004    2.1789271    5.2209768   0.13981089 
   21300   -947.98902    45.262092   -902.72693     1621.124   -7399.4076    2.1602824    3.0125706   0.14069399 
   21400   -949.37963    44.472353   -904.90728    1592.8384   -3649.5303    2.1747316    18.424982   0.11883095 
   21500   -948.37183    39.325404   -909.04643    1408.4934    6728.2868    2.1997671    23.391893   0.12572867 
   21600   -954.04934    37.498436    -916.5509     1343.058    4026.5986    2.2067368    17.668816   0.13069032 
   21700   -946.55137    39.938661   -906.61271     1430.458   -6193.1511    2.1645739    19.519715   0.13207847 
   21800   -947.56623    43.079788   -904.48644    1542.9618   -1465.4691    2.1788588    18.287079   0.13221475 
   21900   -949.19872    47.420435   -901.77829     1698.428    4782.5231    2.1936699    21.559462   0.13116033 
   22000   -944.82805    42.068841   -902.75921    1506.7533    727.84419    2.1797272    19.615626   0.13688009 
   22100    -949.7339    38.849073   -910.88482    1391.4329   -1159.6842    2.1840641    21.065762   0.12515877 
   22200   -949.65289    45.440086    -904.2128    1627.4991   -2073.6067    2.1782026    22.267704   0.12398834 
   22300   -949.11541    47.955795   -901.15961    1717.6027    1530.4489    2.1833552     19.94288   0.11382388 
   22400   -949.28666    43.008936   -906.27772    1540.4241   -1030.2985    2.1790001    20.483943   0.11657977 
   22500   -948.09773    38.854363   -909.24337    1391.6224    -1872.538    2.1785804    18.673821   0.12148569 
   22600   -947.00415    45.258668   -901.74548    1621.0013    3840.1897    2.1856694    18.028271   0.12589805 
   22700   -949.13253    46.461384   -902.67115    1664.0783    902.01408    2.1836651    22.056969   0.12712099 
   22800   -949.32219    39.865701   -909.45649    1427.8448   -5826.2087    2.1708465     18.57974   0.12583089 
   22900   -947.20839    42.659177   -904.54921     1527.897   -4315.9292    2.1656438    24.155794   0.12318055 
   23000   -948.30908    47.451011   -900.85806    1699.5231    11421.479    2.2009519    19.661819   0.11189075 
   23100   -949.31421    45.668439   -903.64577    1635.6779    1640.7241    2.1810544    18.510631   0.11451644 
   23200   -947.36168    41.345245   -906.01644    1480.8367   -11699.109    2.1503766    19.302367   0.11855106 
   23300   -953.49463    38.827056   -914.66758    1390.6443    2453.0639    2.1995576    19.499964   0.11713572 
   23400   -948.99296    43.309966   -905.68299    1551.2059    6309.7212    2.2012023    21.974307   0.12601477 
   23500   -947.77126    44.442575   -903.32868    1591.7719   -2245.4426    2.1741295    18.893707   0.11836829 
   23600   -945.47312    43.377152   -902.09597    1553.6123   -5179.8017    2.1576969    17.340878   0.12636698 
   23700   -951.31168    44.739021   -906.57266    1602.3895    154.65417    2.1881526    19.843328   0.11789434 
   23800   -952.03008    43.024246   -909.00584    1540.9725    8885.5001    2.2101061    18.624302   0.12720572 
   23900   -949.34418    46.586354   -902.75783    1668.5542   -2110.9147    2.1743811    22.802665   0.12386443 
   24000   -946.86775    44.438975   -902.42877    1591.6429    -8549.867    2.1558482    20.679486   0.12213549 
   24100   -951.39891    42.452224   -908.94668    1520.4847    306.32509    2.1915258    20.956595   0.12708787 
   24200   -950.80634    43.411657   -907.39468    1554.8481    9517.6685    2.2114742    16.984222   0.11937213 
   24300   -948.13605    46.559968   -901.57608    1667.6092   -51.065543    2.1792214     19.49714    0.1272233 
   24400   -948.62764    44.870917   -903.75672    1607.1135   -15133.886    2.1465526    19.308348    0.1359859 
   24500   -949.37014    41.364318   -908.00582    1481.5199    1209.5903    2.1893369    21.384594   0.12599697 
   24600   -954.73362    44.981265   -909.75235    1611.0658    21624.716    2.2508771    20.217008   0.12014988 
   24700   -949.28488    48.254315   -901.03057    1728.2946   -7265.3157    2.1597424    20.513267   0.12279837 
   24800   -946.19043    42.861926    -903.3285    1535.1588   -14455.795    2.1391309     19.24759   0.12706975 
   24900   -945.37667    43.299184   -902.07749    1550.8197    5632.6821    2.1912918    18.364247   0.12611736 
   25000   -943.46961    49.160423   -894.30918    1760.7481     7625.918    2.1903983    20.275417   0.13553567 
   25100   -940.84431    42.795498   -898.04881    1532.7795   -2391.3522    2.1637862    19.057359   0.14790721 
   25200   -948.87747    45.285828   -903.59165    1621.9741   -10729.645    2.1590377     19.28029   0.11604348 
   25300   -946.22476    43.585045   -902.63971    1561.0583    5834.3137    2.1932763    19.835017   0.13761995 
   25400   -943.95276    45.628494   -898.32427    1634.2472    9484.9857    2.1966002    16.831007   0.12907768 
   25500   -945.73357    50.225455   -895.50811    1798.8936   -9405.8179    2.1467559    21.948028   0.13958476 
   25600   -947.98075    44.487954   -903.49279    1593.3972   -6205.7083    2.1615984    20.851441   0.11981582 
   25700   -949.55917    46.814271    -902.7449    1676.7174    6512.2929    2.2023875    17.950307   0.13403709 
   25800   -946.55933    45.355013   -901.20431    1624.4521    5842.4841    2.1940585    18.327982   0.13904069 
   25900   -939.60697    46.268023   -893.33894    1657.1528   -9728.7086    2.1371754    23.235616   0.15375876 
   26000   -949.43306    45.967043   -903.46602    1646.3728   -2702.3142    2.1780084     16.27323   0.14332002 
   26100   -947.92055    45.183903   -902.73665    1618.3236    11222.811    2.2070129    18.172518   0.12693105 
   26200   -947.95559    45.371337   -902.58425    1625.0367   -1503.1473    2.1816572    19.451632     0.134413 
   26300   -941.86031    49.173917   -892.68639    1761.2314   -12148.597    2.1366378     20.41293     0.148867 
   26400   -945.93155    43.624499   -902.30705    1562.4713    5797.4111    2.1915365    17.406142    0.1411498 
   26500   -951.15155    48.138235   -903.01331     1724.137    3492.0108    2.1940427     19.10826   0.13669533 
   26600   -947.08925    44.422604   -902.66665    1591.0566   -4435.3385    2.1693582     19.18629   0.13362392 
   26700   -939.42365     46.58874   -892.83491    1668.6397   -1760.1457     2.154575    20.927893   0.15191706 
   26800   -945.20491    45.393925   -899.81099    1625.8458     6366.045    2.1879569    19.581652    0.1340527 
   26900   -947.70558    44.691054   -903.01453    1600.6715   -689.67709    2.1790352    19.565028   0.12905656 
   27000   -946.87184    43.659889   -903.21195    1563.7389   -3899.8585    2.1675504    18.262751    0.1282119 
   27100   -944.27746    47.207429   -897.07003    1690.7989    1440.5665    2.1771606    20.102133   0.12993908 
   27200   -943.98859    47.674338   -896.31425    1707.5219    858.10141    2.1787836    20.048516   0.13681443 
   27300   -947.04698    44.567989     -902.479    1596.2637   -4463.6682    2.1695413    19.648978   0.13667286 
   27400   -947.56147    43.851372   -903.71009    1570.5971   -1112.7714    2.1792107    19.298391   0.15126332 
   27500   -944.91535    43.442241   -901.47311    1555.9435    6648.4018    2.1900495    17.896759   0.14082387 
   27600   -943.79204    48.748323   -895.04372    1745.9881   -3645.4249    2.1656945    20.829873   0.15228669 
   27700    -948.1197    45.274932   -902.84477    1621.5839   -3410.8493    2.1755991    19.466469   0.12822977 
   27800   -953.55086     49.98042   -903.57044    1790.1174   -2466.7064     2.185082     20.12613   0.12268574 
   27900   -947.23114    50.178678   -897.05246    1797.2183    1613.9584    2.1786451     19.35402   0.12239959 
   28000   -948.31796    51.133112   -897.18485    1831.4026     -5625.49    2.1626876    19.758836   0.11941554 
   28100   -949.35538    45.671575    -903.6838    1635.7902   -1775.3729    2.1764748    27.007265   0.12625568 
   28200   -946.15978    45.655555   -900.50422    1635.2164     4056.425    2.1887237    27.629817   0.15675895 
   28300   -945.23744     51.24017   -893.99727    1835.2371   -2917.6667    2.1695593    28.274762   0.15759091 
   28400   -946.57209    44.596622   -901.97547    1597.2893   -4739.1289    2.1645978    33.313976   0.15193775 
   28500   -945.33482    42.770189   -902.56463    1531.8731   -2206.9875     2.167642    39.042593   0.16518975 
   28600   -947.26022    47.304738   -899.95548    1694.2842    6265.0917    2.1953384    34.409516   0.14671532 
   28700   -944.10942    44.169351   -899.94007     1581.986    1505.6901    2.1819853    41.086586   0.14450691 
   28800   -948.45221    39.583218     -908.869    1417.7273   -7548.7621    2.1670255    36.206004    0.1289064 
   28900   -945.75497    42.019366    -903.7356    1504.9813    339.81282    2.1709826    24.608715    0.1412546 
   29000   -948.20215    48.286158   -899.91599    1729.4351    11446.065    2.2050797    27.959971    0.1401163 
   29100   -951.40839    45.951239   -905.45715    1645.8067    1134.0296    2.1866078    31.140036   0.15269669 
   29200   -949.37713    39.622925    -909.7542    1419.1495   -13056.453     2.151684    25.693669   0.13675944 
   29300   -944.62751    43.788561   -900.83895    1568.3475   -2010.9331    2.1682385    17.008517   0.15087271 
   29400   -950.95361    50.618015   -900.33559    1812.9537     7292.512    2.2031306    19.059692   0.16080793 
   29500   -950.44161    43.226419   -907.21519    1548.2136    156.53853     2.188024    12.400809   0.12725842 
   29600   -953.24631    46.052637   -907.19367    1649.4385   -6409.1694    2.1728575    14.345903   0.11588654 
   29700   -947.04392    46.575974   -900.46795    1668.1825   -1986.7065    2.1727162    14.377557   0.13029102 
   29800   -946.27782    42.800366   -903.47746    1532.9539    2959.7576    2.1866189    15.083648    0.1199582 
   29900   -948.27972    41.249089   -907.03063    1477.3928    1707.7445    2.1873168    14.504697   0.12179427 
   30000   -942.97582    45.903883   -897.07193    1644.1106   -3496.6067    2.1612031    13.572629   0.12944252 
   30100   -945.16324    44.169534   -900.99371    1581.9925    4783.5216    2.1883999    14.806763   0.12594115 
   30200   -947.44905    42.877526   -904.57152    1535.7175    4545.0808    2.1931512     13.69952    0.1471252 
   30300   -944.72409    44.262149   -900.46194    1585.3097   -3621.1923    2.1691563    14.767486    0.1446502 
   30400   -941.85562     44.24519   -897.61043    1584.7023   -3754.6954    2.1610779    14.926044   0.15331788 
   30500   -946.70291    42.490168   -904.21274    1521.8437    6933.1993    2.1990768    13.577858   0.13022022 
   30600   -948.17139    45.393605   -902.77778    1625.8343    5821.5187    2.1949366    15.767545    0.1282868 
   30700   -944.32069    48.189725   -896.13097    1725.9812   -8842.3462     2.149628    14.559737   0.14011725 
   30800   -945.98369    40.256783    -905.7269     1441.852   -3494.1439    2.1744226    14.112199   0.13132686 
   30900   -949.30226    45.612951   -903.68931    1633.6905    6718.9742    2.2020757    13.476962    0.1153351 
   31000    -946.3353    47.229127   -899.10617    1691.5761     4193.225    2.1872993    14.663498   0.12234162 
   31100   -945.38548    43.840111   -901.54537    1570.1938   -9968.9176     2.146784    13.297038   0.13257377 
   31200   -949.68743    42.392846   -907.29459     1518.358   -4019.2967    2.1754599    13.366723   0.13147945 
   31300   -943.98362    43.867227   -900.11639     1571.165    18030.025    2.2172928    14.605416    0.1486176 
   31400   -945.47839    42.590146   -902.88825    1525.4246    5578.2887    2.1877423    15.278296   0.13623803 
   31500   -952.89731    42.216221   -910.68109    1512.0319   -12701.099    2.1632732    15.496232   0.13524639 
   31600   -946.84238    43.732867   -903.10952    1566.3527   -873.28478    2.1768353    14.447561   0.13508335 
   31700   -948.41453    47.831557   -900.58298    1713.1529    6472.2906    2.1985755    13.492496   0.12084932 
   31800   -949.61533    41.927189   -907.68814    1501.6799   -1049.9498    2.1868114    12.799062   0.12645578 
   31900   -946.25766    42.788272   -903.46939    1532.5207    -2584.494    2.1719437    13.750775   0.12029413 
   32000   -947.81046    48.053882   -899.75658    1721.1158    1327.0369    2.1768203    15.516489   0.11676169 
   32100   -952.66897    48.252786   -904.41619    1728.2398   -124.72779    2.1872816    14.061476   0.12047882 
   32200    -951.6507    44.616659   -907.03404    1598.0069   -1692.4304    2.1849151    12.097037   0.13719957 
   32300   -942.59963    45.373908   -897.22572    1625.1288   -6614.7686    2.1587318     15.21066   0.15817298 
   32400   -949.02348    46.611671   -902.41181     1669.461    2471.8083    2.1888394    14.533329   0.13804035 
   32500   -950.76256    46.212233   -904.55033    1655.1546     6161.599    2.2003429    13.273391   0.13017733 
   32600   -945.81196    49.384308   -896.42766    1768.7668   -4882.4863    2.1622658    12.043368   0.13514961 
   32700   -945.08101    45.062654   -900.01835    1613.9808   -3496.3492    2.1611669    12.552168   0.13130896 
   32800   -951.37905    47.813498   -903.56556    1712.5061    1627.5402    2.1880423    13.957811   0.12838041 
   32900    -947.8064     45.17546   -902.63094    1618.0211    7769.0709    2.1980914     14.22455   0.11578179 
   33000    -944.2162    50.953268   -893.26293    1824.9613   -8773.8618    2.1448185    14.290073   0.12814203 
   33100    -950.3915     47.76072   -902.63078    1710.6158   -6795.8851    2.1623939    14.426208   0.11820718 
   33200    -948.5043    45.609003   -902.89529    1633.5491    9120.4672    2.2052821    14.214878   0.13320694 
   33300   -947.70034    45.890235   -901.81011    1643.6218    9009.4897     2.199221    12.522744    0.1415991 
   33400   -941.18667    47.716405   -893.47026    1709.0286   -11719.315     2.136443    14.285541   0.13309336 
   33500   -949.20517    45.559526   -903.64565     1631.777   -3722.0848    2.1763022    15.566819   0.13975308 
   33600   -950.48097    47.313941   -903.16703    1694.6138    5082.9621    2.1978939    13.721361   0.13035662 
   33700   -946.49213    44.609104   -901.88303    1597.7363    2906.9395    2.1858472    14.448263   0.12349323 
   33800   -943.58104    47.719093   -895.86195    1709.1248   -7162.6908    2.1536612     14.10486    0.1517628 
   33900   -941.67512    46.192707   -895.48241    1654.4552   -2322.2643    2.1608754     14.70323   0.13203786 
   34000   -948.33126    46.533077   -901.79818    1666.6461    5343.9042    2.1934892    14.069227   0.12266654 
   34100   -946.18464    43.361541    -902.8231    1553.0532    4887.4391    2.1918212    12.909366    0.1407145 
   34200   -946.94135    42.110637   -904.83071    1508.2503   -5734.1693    2.1689055    14.045172   0.12944117 
   34300   -951.68198      37.9266   -913.75538    1358.3933   -2010.1257    2.1890288    13.481752   0.12517714 
   34400   -951.79739    46.147015   -905.65038    1652.8187    3109.1094    2.1970133    13.431296   0.12588651 
   34500    -948.5067    46.161262   -902.34544     1653.329     6072.276    2.1990975    12.564518   0.13664818 
   34600   -945.98554    43.024376   -902.96116    1540.9771   -9350.8861    2.1541551     13.23071   0.14039819 
   34700   -946.29067    45.450817   -900.83986    1627.8834   -10256.906    2.1503378    12.737884   0.12016806 
   34800   -941.34738    48.518987   -892.82839    1737.7742    12172.936    2.1952815     11.37489   0.14465085 
   34900   -948.11189    50.308725   -897.80317    1801.8761    6262.0366    2.1945401    13.402578   0.13906333 
   35000   -945.65951     43.98082   -901.67869    1575.2335   -11997.752    2.1494726    15.578394   0.13682493 
   35100   -941.48207    43.011107   -898.47096    1540.5019   -1230.6581    2.1691745    13.560292   0.18146596 
   35200    -942.4095    52.160948   -890.24855     1868.216    8705.3263    2.1847662    13.789308   0.15741272 
   35300   -946.01075    45.958648   -900.05211    1646.0721    5619.0834     2.187693    10.670632   0.14095538 
   35400   -946.47799    44.317927   -902.16006    1587.3074   -6923.3725    2.1612322    11.993749   0.15527929 
   35500   -946.65836    44.688737   -901.96962    1600.5885   -4770.6462    2.1685437    12.864879   0.15251319 
   35600   -953.62742    42.562526   -911.06489    1524.4353    4541.1944    2.2064138    9.3921464   0.15027183 
   35700   -948.65001    42.135308    -906.5147    1509.1339    264.19986     2.185129    13.232157   0.15550439 
   35800    -948.4644    46.519077   -901.94533    1666.1446   -6543.8409    2.1630067    17.432013   0.13055124 
   35900    -946.3023    44.000707   -902.30159    1575.9458    2134.1135    2.1817145    20.885588   0.12686848 
   36000   -951.44581    42.005216   -909.44059    1504.4745    8000.5794    2.2061479    19.844677   0.11793461 
   36100   -942.69103    41.369456   -901.32158    1481.7039   -1665.8681    2.1665918     21.53978   0.13642322 
   36200   -944.02452    42.371009   -901.65352    1517.5759   -4611.3745     2.162396    20.777402   0.14610983 
   36300   -949.15006    44.222546   -904.92751    1583.8912    7236.1406    2.2000462    19.178606   0.12151781 
   36400   -947.67466    39.414746   -908.25991    1411.6933    10130.827      2.20927    21.480572   0.11974557 
   36500   -940.34732    42.096351   -898.25097    1507.7386   -13687.115    2.1312256    23.276881   0.14540072 
   36600   -945.28847    41.840034   -903.44843    1498.5583    -6559.975    2.1581967    21.897509   0.13233402 
   36700   -946.65683    42.978422   -903.67841    1539.3312    14838.836     2.214157     18.91104   0.13005526 
   36800   -942.50366    46.431378   -896.07228    1663.0036    7720.7491    2.1833906    19.147106   0.14015031 
   36900   -945.85051    45.733642   -900.11687    1638.0132   -11442.629    2.1481515    18.922913   0.11582867 
   37000    -947.8797     42.59429   -905.28541     1525.573   -4373.1783    2.1678479    20.090002   0.11926088 
   37100   -948.65842    48.049168   -900.60925    1720.9469    7937.9903    2.1981812    21.696956   0.12403384 
   37200   -944.66124    47.899113   -896.76213    1715.5725    2220.3248    2.1774644     21.23136    0.1224298 
   37300   -947.11302    40.995818    -906.1172    1468.3215   -3612.5245    2.1712736    19.593796    0.1300353 
   37400    -948.0435    44.627114   -903.41638    1598.3814     -3461.01    2.1726735    17.444384   0.13433783 
   37500   -945.26305    47.062678   -898.20037    1685.6145     5516.059    2.1821392    20.773987   0.11939739 
   37600   -949.08862    42.176819    -906.9118    1510.6207    2289.9297    2.1859434    19.334245   0.11911046 
   37700   -947.74812    42.273911   -905.47421    1514.0982   -6785.5804    2.1627013    21.442393   0.11990996 
   37800   -945.23144    45.008839    -900.2226    1612.0534    1222.8021    2.1730994    15.894493    0.1321971 
   37900    -946.2103    43.718516   -902.49178    1565.8387    7575.5517    2.1973957    14.742648   0.15077627 
   38000   -950.73273    42.493535   -908.23919    1521.9643    322.70676    2.1883557     12.63994   0.12867541 
   38100   -948.58357    48.451856   -900.13171    1735.3698   -12745.467    2.1479335    11.875283   0.13919351 
   38200   -946.53868    45.347331   -901.19135     1624.177   -775.42287     2.173616    12.101319   0.15756543 
   38300   -947.87029    43.155756   -904.71453    1545.6827    18687.313     2.224756    12.297641   0.14410667 
   38400   -945.98164     49.59646   -896.38518    1776.3653   -2724.1389     2.163921    8.6347641   0.16073837 
   38500   -945.08976    45.608045   -899.48171    1633.5148   -18668.939    2.1277548    9.4293967   0.17735046 
   38600   -947.61336     43.62124   -903.99212    1562.3546    3454.5342    2.1847187    12.684512   0.13366245 
   38700   -945.35878    44.297295   -901.06148    1586.5685    16653.634    2.2166451     15.02556   0.15112764 
   38800   -942.84934    46.959865   -895.88947    1681.9321   -3316.0806    2.1571868    11.592801   0.15400534 
   38900    -946.1726    41.863928   -904.30867    1499.4141   -6681.6634    2.1610633    12.415404   0.14839089 
   39000   -946.79538    44.814715   -901.98066    1605.1006    481.14666    2.1797127    11.451977   0.14350337 
   39100   -941.99861    45.782898   -896.21572    1639.7774    7643.4178    2.1831742    8.8302199   0.16052376 
   39200   -947.75811    45.030923   -902.72718    1612.8444    -4523.529    2.1682977    13.703252    0.1377517 
   39300   -948.51733    43.210757   -905.30657    1547.6526   -6881.5297    2.1625847    16.030451   0.11718209 
   39400   -946.86989    45.739746   -901.13014    1638.2318    5034.1386     2.187741    14.208617   0.12713934 
   39500   -945.05053    43.442574   -901.60795    1555.9554    7671.9487    2.1938399    15.387409   0.12416426 
   39600   -953.54305    43.810156    -909.7329    1569.1209   -4623.2036    2.1806368    15.242648   0.12620235 
   39700   -946.72186    42.809829   -903.91203    1533.2928   -5623.6901    2.1623275    16.897655   0.12216711 
   39800   -945.51571    45.095725   -900.41998    1615.1653     3571.158    2.1831389    15.702094   0.11909778 
   39900   -949.39832    41.748159   -907.65016    1495.2677    5555.1468     2.196576    15.658642   0.11638411 
   40000   -948.78723    42.453249   -906.33398    1520.5214   -4510.0056    2.1697555    14.203022   0.11053824 
   40100   -947.32441    45.823663   -901.50075    1641.2374   -4521.1606    2.1640091    14.611761   0.13448632 
   40200   -946.66561    43.002344   -903.66326     1540.188    8301.3477    2.1971917     16.07779   0.13415805 
   40300   -955.95877    46.563606   -909.39516    1667.7395    4501.3507    2.2054992    14.689875   0.12396181 
   40400   -943.62381    44.324814   -899.29899    1587.5541    -14171.43     2.133471    18.599288   0.13718144 
   40500   -945.54113      42.9388   -902.60233    1537.9121   -5805.8017    2.1602787    12.781429   0.12641271 
   40600   -947.58051    44.409013   -903.17149    1590.5698    18253.833    2.2222989    13.404451   0.12257505 
   40700   -943.78142    43.636757   -900.14466    1562.9104    7278.2694    2.1856691     14.34693   0.12375897 
   40800   -941.96128    44.783275     -897.178    1603.9745   -12841.244    2.1335769    17.952728   0.12092672 
   40900   -944.56444    40.136928   -904.42752    1437.5592    831.65729    2.1745744    13.701617   0.11869818 
   41000   -951.44364    48.675532   -902.76811     1743.381    8151.0418    2.2008865    13.159843   0.11292427 
   41100   -945.42877    49.999807   -895.42896    1790.8118    725.48358    2.1694642    15.618117   0.12546038 
   41200   -947.76251    44.030343   -903.73217    1577.0072    -5590.438    2.1639692     14.57437    0.1374043 
   41300   -945.73728    41.382619   -904.35466    1482.1753   -1502.8604    2.1729059    15.107574   0.13915003 
   41400   -945.39886    45.922707   -899.47615    1644.7848     4448.081    2.1862206    16.136296   0.13005538 
   41500   -946.11418    45.150632   -900.96355    1617.1319   -413.34054    2.1763837    11.960969   0.12238073 
   41600   -950.13179    42.777091    -907.3547    1532.1203   -4098.3438    2.1773189    15.672485   0.11749541 
   41700   -948.81575    46.285345    -902.5304    1657.7732   -14.736876    2.1810742    14.862004   0.11182758 
   41800   -946.65415    46.742774   -899.91138    1674.1566    3225.4718    2.1834863    17.129586   0.11926743 
   41900   -950.03449    41.098658   -908.93583    1472.0049   -1929.6414    2.1828503    14.126409   0.11652975 
   42000   -946.98326    41.548439   -905.43482    1488.1144   -7363.7442    2.1621371    12.705988   0.11553573 
   42100   -947.60105    46.367698   -901.23335    1660.7228    4291.3674    2.1901163    12.951129   0.14050182 
   42200   -950.74543    46.442721   -904.30271    1663.4098    10746.893    2.2129519    15.143089     0.130397 
   42300   -951.55271    40.622163   -910.93055    1454.9386   -6286.8225    2.1768878    14.390245    0.1305011 
   42400   -942.83254    40.556264   -902.27627    1452.5783   -13493.866    2.1383352     16.41018   0.13381899 
   42500   -943.62816    42.274898   -901.35326    1514.1335    10432.855    2.1971862    16.315035   0.11775657 
   42600   -947.45366    41.296404   -906.15726    1479.0874    13230.518    2.2164052    11.953164   0.12990207 
   42700   -944.99065    45.960561   -899.03009    1646.1406   -4271.7445    2.1631916    14.219187   0.11424821 
   42800   -948.52709    49.116975   -899.41012    1759.1919   -8263.4611    2.1595215     15.69782   0.11492551 
   42900   -946.94601    43.249071   -903.69694    1549.0249    4187.6998    2.1872609    14.839442   0.12499461 
   43000   -949.57059    44.390147   -905.18044    1589.8941    4671.7408     2.195652    14.533715   0.12575546 
   43100   -942.93621    47.372183   -895.56403    1696.6998   -3520.2277    2.1578814    14.252312   0.14146569 
   43200   -946.58787    43.724991   -902.86288    1566.0706   -63.892104    2.1762602    12.541558   0.12199614 
   43300    -948.7124    44.717467   -903.99494    1601.6175    2736.1427    2.1893596     12.39419   0.11449774 
   43400   -945.23956    48.231281   -897.00828    1727.4696    693.47594    2.1742113    14.955131   0.12271027 
   43500   -943.96786    43.890324   -900.07754    1571.9923   -2210.6001    2.1656053    15.327428   0.11475578 
   43600   -946.84715    41.760083   -905.08707    1495.6947   -2515.7235    2.1732223    13.597623    0.1286642 
   43700   -949.31146    48.757694   -900.55377    1746.3238    5983.5932    2.1955176    13.279118   0.12334767 
   43800   -945.88937     47.41275   -898.47662    1698.1528    4674.3069    2.1853312      14.6736   0.13616491 
   43900   -948.13765    40.362105   -907.77554    1445.6242   -5541.3108    2.1655977    17.323386   0.12871104 
   44000   -947.68256    43.075934   -904.60663    1542.8237   -5783.1576    2.1612288    16.986026   0.12911615 
   44100   -947.51969    47.677783   -899.84191    1707.6453    10249.089    2.2022751    14.601018    0.1325449 
   44200   -950.31068    43.913236   -906.39745    1572.8129    6422.4534    2.2021083    13.293005   0.11942414 
   44300    -949.7391    41.578473   -908.16062    1489.1901   -11036.094    2.1568763    14.488024   0.12217975 
   44400   -949.28339    47.036525   -902.24687    1684.6777   -6967.4074     2.163579    15.219203   0.11839764 
   44500   -949.93228    48.081888   -901.85039    1722.1189    8452.0155    2.2025511    17.669289   0.12319325 
   44600   -953.12181    43.610057   -909.51175    1561.9541     2218.887    2.1987487    12.559114   0.12048993 
   44700   -947.13099    45.162961   -901.96803    1617.5735   -8312.0791    2.1594863    15.400856   0.13732176 
   44800   -948.04265    46.775145   -901.26751    1675.3161   -916.01302    2.1783078    15.255322   0.13415325 
   44900   -947.42165    42.885025   -904.53663    1535.9861    3112.6724    2.1902427    17.004145    0.1416259 
   45000   -951.15725    43.859131   -907.29812     1570.875   -663.23573    2.1862371    16.008919   0.13213288 
   45100   -945.43157    48.483566     -896.948    1736.5055   -4448.7026    2.1587915    18.535684   0.12703613 
   45200   -946.73619    45.612975   -901.12322    1633.6913    4282.0684     2.185946    13.014193   0.12032529 
   45300   -949.60981    45.395087   -904.21473    1625.8874    4472.1027    2.1951708    12.901754   0.11943519 
   45400   -948.01154    45.453746   -902.55779    1627.9883    -4578.567    2.1719205    13.961118   0.12348997 
   45500   -946.60791    50.220901   -896.38701    1798.7305   -9080.3342    2.1516143    19.764144   0.13251752 
   45600   -950.70064    46.910181   -903.79046    1680.1526    2225.4459    2.1882903    15.205523   0.13718575 
   45700   -951.02268    47.288948   -903.73373    1693.7186    4119.4785    2.1955961    14.017277    0.1358775 
   45800   -943.33537     47.70193   -895.63344    1708.5101    -4839.584    2.1598842    15.719882   0.14638241 
   45900   -945.82292    42.771797   -903.05112    1531.9306   -3394.3523    2.1721694    15.811522   0.13552653 
   46000   -950.18962    45.842395   -904.34723    1641.9083    1034.2322    2.1853445     13.88429   0.12646966 
   46100   -948.36521    48.416734   -899.94847    1734.1118    958.28232    2.1841578    15.976698   0.12474347 
   46200   -946.10155    48.547133   -897.55441    1738.7822   -3340.3806     2.167614    13.359722   0.12706162 
   46300   -951.23098    44.764117   -906.46686    1603.2883    251.85801    2.1899374    12.434138   0.12890413 
   46400    -949.6071    46.938405    -902.6687    1681.1635   -466.47118    2.1847948    16.657006   0.13680017 
   46500   -947.22167    47.479309   -899.74236    1700.5367   -4152.3792    2.1731529    16.016516   0.14919005 
   46600   -949.45931    40.481577   -908.97773    1449.9033   -1575.3998    2.1875623    14.804187   0.14587533 
   46700   -950.07288    44.831069   -905.24181    1605.6863   -1525.8254    2.1826279    14.364997   0.13454082 
   46800   -947.24614    46.466632    -900.7795    1664.2663    1225.5305    2.1824251    13.980899   0.10699116 
   46900   -944.09799    38.783769   -905.31422    1389.0939    3841.8586    2.1874911     12.61422   0.12805786 
   47000   -953.85678    45.096139   -908.76064    1615.1802   -3558.5226    2.1861968    13.892968   0.11800679 
   47100   -947.47096    46.076188   -901.39477     1650.282   -149.90879    2.1777095    12.495583   0.13122362 
   47200   -948.80703    45.908019   -902.89901    1644.2588   -226.30303    2.1816926    14.918572   0.13788491 
   47300   -950.68286    40.523203   -910.15966    1451.3942     2227.026    2.1956425    14.077491   0.13242963 
   47400   -947.28978    45.256713   -902.03307    1620.9313   -5663.8679    2.1671199    15.083357   0.15046529 
   47500   -948.05782    46.296042   -901.76178    1658.1563   -240.48809    2.1854398    14.858341   0.14995132 
   47600   -949.05962    44.024708   -905.03491    1576.8054    4087.5716    2.1956373    14.948317   0.12812771 
   47700   -951.86669    42.421336   -909.44535    1519.3784   -4368.0707    2.1775082    15.022958   0.11934468 
   47800   -949.96158    44.052745   -905.90884    1577.8096   -2812.3972    2.1767688    12.297752   0.10487808 
   47900   -948.65798    47.211868   -901.44611    1690.9579    6156.9073    2.1933253    12.935807   0.10443658 
   48000   -948.32051    45.966738   -902.35377    1646.3618   -1623.4295    2.1732717    15.054378   0.12161599 
   48100   -949.28219    45.045985   -904.23621    1613.3838   -7113.2037      2.16023    18.585152   0.12007658 
   48200   -950.30728     43.00131   -907.30597     1540.151    2448.6966    2.1898714    14.527464   0.12301796 
   48300   -953.45225     38.75189   -914.70036    1387.9522    12106.872    2.2245744    12.730113   0.12910986 
   48400   -947.18594    41.804258   -905.38168    1497.2769   -7595.1074    2.1604317    14.764895   0.14418976 
   48500   -942.86749    39.124474   -903.74302    1401.2968   -5606.7778    2.1554637    15.967111   0.15067928 
   48600   -947.01008    46.424364   -900.58572    1662.7524    7999.2361    2.1923282    14.527013   0.12209861 
   48700   -951.32329    43.809324   -907.51397    1569.0911    6488.6599    2.1976889    13.676955   0.12013751 
   48800   -952.42475    44.250098   -908.17465     1584.878   -8863.2345    2.1655983    12.831941  0.097733457 
   48900   -948.94798    46.148094   -902.79989    1652.8574   -3190.9305    2.1709196    13.301603   0.10841716 
   49000   -944.84824    43.461767   -901.38648    1556.6429    5454.7113    2.1847827    13.610121   0.11929859 
   49100   -952.74492    42.974048   -909.77087    1539.1745   -593.97771    2.1890359    15.492492   0.11344691 
   49200    -952.5901    46.451673   -906.13842    1663.7305   -6272.9647    2.1742261    11.790633   0.12677771 
   49300   -947.11599    45.354431   -901.76156    1624.4312   -493.85074    2.1797767    15.003985   0.14824919 
   49400   -948.96931    45.072625   -903.89669     1614.338     213.5257    2.1833434    16.317013   0.14122184 
   49500   -953.87747    42.083732   -911.79374    1507.2867    201.33142    2.1902194    15.530733   0.12731275 
   49600   -948.28556    45.043491   -903.24207    1613.2945    -3641.651    2.1694833    16.367165   0.13949822 
   49700   -948.38295    46.409946   -901.97301     1662.236    1902.6082    2.1860736    11.593257   0.11281472 
   49800   -949.09944    44.305482   -904.79396    1586.8617    1573.9441     2.186746    11.261493   0.10978304 
   49900   -953.57507    41.181631   -912.39343    1474.9767   -6069.3405    2.1807706      15.5518   0.11895136 
   50000   -946.91554     42.09092   -904.82462    1507.5441   -4339.6367    2.1730763    17.411213   0.11823565 
   50100   -946.47064    44.172887   -902.29775    1582.1126    10655.519    2.2045124    14.985189   0.14361818 
   50200   -947.50948    44.737142   -902.77234    1602.3222    2259.2157    2.1845204     14.78743   0.12893104 
   50300   -940.41842    41.563933   -898.85449    1488.6694   -13868.855    2.1332978    14.975693   0.16625705 
   50400   -940.34582    46.236733   -894.10909    1656.0321   -1381.5487    2.1564215    13.900355   0.15416249 
   50500   -948.77986    48.842559    -899.9373    1749.3633    21214.803    2.2323443    11.997917   0.14310011 
   50600    -945.6752    42.593614   -903.08158    1525.5488    1561.6409    2.1837824    15.224784   0.14391263 
   50700   -945.22029    41.397678   -903.82262    1482.7147   -13452.062    2.1417025     13.78688   0.11976772 
   50800   -952.10256    39.576829   -912.52573    1417.4985    1160.8249    2.1951191    13.528747   0.11590821 
   50900   -950.15693    42.554113   -907.60282     1524.134    9698.7803    2.2074497    12.543229   0.10656851 
   51000   -945.39092    42.192029   -903.19889    1511.1655    1820.5722    2.1812462    14.946118   0.12872856 
   51100   -944.95697    42.609807   -902.34716    1526.1288   -6819.7515    2.1595272    17.127977   0.14146588 
   51200   -947.27585     46.22185     -901.054    1655.4991   -496.65238    2.1784179    13.680105   0.14757491 
   51300   -938.90266    49.027002   -889.87566    1755.9694    9375.0872     2.181543    14.988755   0.15349438 
   51400   -946.17246    49.572445   -896.60001    1775.5052    1835.0653    2.1775804    13.623485   0.13704719 
   51500   -948.09074    46.305205   -901.78554    1658.4845   -10557.216    2.1546098    14.856003   0.11853273 
   51600   -945.03864    40.837331   -904.20131    1462.6451    252.95044    2.1778549    15.942207   0.14597423 
   51700   -947.77954    43.914198   -903.86534    1572.8473    11310.875    2.2097269    16.355029    0.1332804 
   51800   -943.13893    48.182078   -894.95685    1725.7073   -3546.1552    2.1567132    15.739556   0.13580725 
   51900   -946.20173    43.232038   -902.96969    1548.4148   -6823.8832    2.1609586    13.138902   0.11850993 
   52000    -948.2051    44.471027   -903.73408    1592.7909    2330.3128    2.1903305    15.956449   0.11980519 
   52100   -947.49921       48.346   -899.15321    1731.5784    7167.6338    2.1936102    16.695195   0.14248491 
   52200   -944.03653    47.287632    -896.7489    1693.6715   -5488.5442    2.1553478    14.651595   0.12570939 
   52300   -951.40783    46.480575   -904.92725    1664.7656   -6402.0821    2.1718314    16.115936   0.13321325 
   52400   -946.05352    43.830366   -902.22315    1569.8448    6016.7442    2.1939888    14.592008    0.1351253 
   52500   -942.77735    46.012686   -896.76466    1648.0075    4333.1737    2.1768498    13.069983   0.13679722 
   52600   -944.28151    44.252157   -900.02936    1584.9518   -4793.7914    2.1603211    12.009769   0.12900563 
   52700   -948.50471    44.076152   -904.42855    1578.6479   -2281.3169    2.1785178    14.815304   0.13526841 
   52800    -947.2064    45.402022   -901.80438    1626.1358    4893.6496    2.1917495    17.158853   0.13165605 
   52900   -944.18873     43.51523    -900.6735    1558.5577     1640.115    2.1749396    12.663533   0.12590341 
   53000   -947.77754     37.31343   -910.46411    1336.4318    141.07692    2.1840189     13.38696    0.1309816 
   53100   -949.74794    43.437751   -906.31019    1555.7827    -3011.627    2.1750108    15.212091   0.12555821 
   53200   -945.75596    43.606063   -902.14989     1561.811    4658.9696    2.1867286    15.096721   0.13949565 
   53300   -947.00261     45.32284   -901.67977    1623.2998    1546.1833    2.1857454    12.330555   0.13667645 
   53400   -951.45868    40.611681     -910.847    1454.5632   -1899.2256    2.1860361    13.041461   0.11174817 
   53500   -948.44306    43.924812   -904.51824    1573.2275    -7348.333    2.1639412    12.365571   0.12494982 
   53600   -946.13878    44.824994   -901.31379    1605.4687     6220.707    2.1924353    13.503488   0.13606455 
   53700   -946.72652    41.319921   -905.40659    1479.9297    10087.352    2.2092614    13.404277   0.14309172 
   53800   -949.72011    38.530145   -911.18997    1380.0101   -5209.8572    2.1719107    13.456658   0.14008556 
   53900   -947.95911    45.229091   -902.73002     1619.942   -14209.418    2.1428425    14.597309   0.13422263 
   54000   -949.26122     47.81336   -901.44786    1712.5012    9662.5608    2.2055826    12.269424   0.12681232 
   54100   -946.30795    40.414462   -905.89349    1447.4995    13182.828    2.2134598    11.187537   0.12699047 
   54200   -941.47644    43.419258   -898.05719    1555.1204   -6978.6029    2.1505136    15.321434   0.13208934 
   54300   -946.36563    47.200321    -899.1653    1690.5443   -6153.0118    2.1583607    14.742303   0.12321054 
   54400   -950.33739    46.878012   -903.45938    1679.0004     2794.964    2.1900055     14.79711   0.12131207 
   54500   -949.07535    43.739614   -905.33574    1566.5944    3132.4973    2.1899276    14.036496   0.12192611 
   54600   -945.33621    49.702428   -895.63378    1780.1607   -6373.5175     2.154021    15.720571   0.12778199 
   54700   -948.43991    45.644989   -902.79492     1634.838    33.338574    2.1797128    13.913297   0.12774946 
   54800   -948.55629    44.165764   -904.39053    1581.8575    1656.2758    2.1850777     14.44632   0.13403533 
   54900   -945.74931     47.78306   -897.96625    1711.4159   -560.14273    2.1686351    13.049738   0.13711764 
   55000   -943.72811    43.774292   -899.95382    1567.8364   -1478.7791    2.1636714    12.659232   0.13027062 
   55100   -947.18862    41.871745   -905.31688     1499.694    2149.1302    2.1810399    14.681772   0.11955865 
   55200   -946.41863    45.831194   -900.58743    1641.5072    6805.5087    2.1891273    15.534522   0.12576028 
   55300   -946.01246    46.126494   -899.88597    1652.0838   -1345.8614    2.1699503    15.557585   0.12241605 
   55400   -952.81579    44.297356   -908.51844    1586.5706   -8352.0226    2.1677373    15.911965   0.11611446 
   55500   -946.86728    43.379213   -903.48807    1553.6861    3255.7857    2.1883116    12.565023   0.12942904 
   55600   -945.77044    46.623798   -899.14664    1669.8954     11074.76    2.2056682    12.679698   0.12955363 
   55700   -950.03936    43.400385   -906.63898    1554.4444   -8010.7299    2.1653993    15.120026    0.1216318 
   55800   -947.91085    42.061409   -905.84944    1506.4871   -11789.017    2.1517629    15.357421   0.12686821 
   55900   -946.02447    46.445436   -899.57904    1663.5071    7431.9813    2.1927287    14.336234   0.13345152 
   56000   -949.79118     46.44082   -903.35036    1663.3418      9343.44     2.203612    15.252671   0.12819442 
   56100   -952.37524    43.282322   -909.09291    1550.2158    -7141.007     2.172351    16.177373   0.12225488 
   56200   -947.60838    47.944257   -899.66412    1717.1894    -7487.822    2.1547739    15.042342    0.1295575 
   56300   -948.85428    47.796036   -901.05824    1711.8807    6435.3865    2.1958151    14.173398   0.11305008 
   56400   -950.35113     44.60111   -905.75002      1597.45    3089.5855     2.197075    15.111425   0.10808041 
   56500   -945.17199     47.34454   -897.82745    1695.7097   -5687.1937    2.1573675    14.860706   0.12140026 
   56600   -945.52748     45.21467   -900.31281    1619.4255   -3585.2109    2.1688231    13.113644   0.12151655 
   56700   -949.31718    44.580333   -904.73685    1596.7059    4628.1722    2.1962013    14.617031   0.12426146 
   56800   -946.76007    46.010072      -900.75    1647.9139    2934.2295    2.1875343    16.331389    0.1404992 
   56900   -945.04714     47.17157   -897.87557    1689.5146    -8549.911    2.1532363    17.617357   0.14319607 
   57000   -946.62853    40.308807   -906.31972    1443.7153    1755.0101    2.1833751     14.83121   0.13843932 
   57100   -950.22777    48.489016   -901.73875    1736.7007    3380.1158    2.1922485    15.854784   0.12537729 
   57200   -945.48042    46.213786   -899.26663    1655.2102    -957.1482    2.1705858    15.596937   0.12445864 
   57300   -950.99532    42.429816    -908.5655    1519.6821   -3234.1725    2.1780683    14.280903   0.12722894 
   57400   -946.90006    43.074561    -903.8255    1542.7746   -1484.1742    2.1763058    13.945905   0.12743362 
   57500   -946.27827    46.414014   -899.86425    1662.3816     3950.651    2.1874864    13.628357   0.13095197 
   57600   -949.26029    41.504811   -907.75548    1486.5518    2870.3599    2.1891985    16.014641   0.12040179 
   57700   -949.22824    44.192547    -905.0357    1582.8168    -11947.36    2.1523448    15.061575   0.12334174 
   57800   -945.16155    44.277588   -900.88396    1585.8626    1885.3718    2.1793949    15.924919   0.13726259 
   57900   -945.81403    43.382832    -902.4312    1553.8157    19544.283    2.2268975     15.23195   0.14393445 
   58000   -952.64416    42.811013   -909.83315    1533.3352    -5833.651    2.1787595    13.730265   0.13096055 
   58100   -943.11663    42.835121   -900.28151    1534.1987   -14346.412    2.1311682    18.227161   0.13468558 
   58200   -947.02068    45.983336   -901.03734    1646.9564    4168.9771    2.1890649    10.173615   0.13592213 
   58300   -948.26303    43.462027     -904.801    1556.6522    13380.003    2.2139147    12.783724   0.12205018 
   58400   -942.50162    44.516976   -897.98464    1594.4367   -1215.8032    2.1654096    14.001861   0.12634154 
   58500    -944.9052    45.623757   -899.28145    1634.0775   -8924.7336    2.1493141    15.887994   0.13980378 
   58600   -949.14185    44.063112   -905.07874    1578.1809    1167.4568    2.1869058    13.961985    0.1282452 
   58700   -945.00627    43.412061   -901.59421    1554.8626    11007.661    2.2008976    16.099074   0.13712772 
   58800   -944.02083    47.133116   -896.88771    1688.1373   -2884.8005    2.1607593    15.114429   0.13719707 
   58900   -949.00453    42.726005   -906.27853    1530.2905   -5883.1743    2.1676648    15.818862   0.12604877 
   59000    -947.7957    44.633734   -903.16196    1598.6185    3559.4764    2.1865795    12.921252    0.1379022 
   59100   -944.00721    45.823572   -898.18364    1641.2342    7130.9644    2.1875558    12.839677   0.13735264 
   59200   -947.30887    41.530684   -905.77818    1487.4785   -2128.9254    2.1737527    13.109237   0.13514611 
   59300    -947.0663    41.265636   -905.80067    1477.9854   -6422.6269    2.1637103    13.108129   0.12624549 
   59400   -945.79166    45.725212   -900.06645    1637.7113    5664.4898    2.1890167     15.43699   0.13729849 
   59500   -947.98513    42.889323    -905.0958      1536.14    9051.5587      2.20391    14.791266   0.15198012 
   59600   -949.34037    40.797809   -908.54256    1461.2295   -5402.9873    2.1748337    13.409281    0.1346025 
   59700   -946.92687    45.331154   -901.59572    1623.5975   -9362.1289    2.1560887    11.803444   0.13820464 
   59800   -943.92077    41.730412   -902.19036     1494.632    9581.3669    2.1981974    14.875471   0.13763291 
   59900   -952.07014     43.98694    -908.0832    1575.4527    13341.305    2.2235234    11.635579   0.13359071 
   60000   -939.05822    40.558797   -898.49943     1452.669   -11011.769    2.1369395    14.193753   0.14981037 
   60100   -942.31616    40.577677   -901.73848    1453.3452   -10321.573    2.1465632    14.535515   0.14911499 
   60200   -947.84626    44.329058   -903.51721    1587.7061    15643.276    2.2233361    14.337609   0.13977126 
   60300   -947.30889    40.516928   -906.79196    1451.1694    8879.1205     2.205955    13.316095   0.14555483 
   60400   -941.84002    45.020384   -896.81964    1612.4669   -9755.8534    2.1435763     19.27966   0.14835185 
   60500   -950.08257    46.942219   -903.14036       1681.3   -2677.6187    2.1772314    15.151918   0.13890692 
   60600   -949.09081    44.867462   -904.22335    1606.9898    6749.2029    2.1998577    15.192437   0.12406342 
   60700   -940.80684    44.727537    -896.0793    1601.9782    4197.3836     2.172516     11.10737   0.13525555 
   60800   -947.53799    45.681652   -901.85634    1636.1511   -4158.1006    2.1661567    13.076265   0.13068301 
   60900   -951.73654    46.587511   -905.14902    1668.5957   -4441.8864    2.1761136    13.996628   0.14588001 
   61000   -948.50248    49.346971    -899.1555    1767.4295    5316.0661    2.1897595    16.382224   0.14162022 
   61100   -945.30739    45.794886    -899.5125    1640.2067    1917.5895     2.174484    15.763685    0.1370059 
   61200   -949.30145    42.606067   -906.69538    1525.9948   -5088.0496    2.1696885    14.726404   0.12986579 
   61300   -947.40327     45.24049   -902.16278    1620.3503    1506.2393    2.1815938    14.096446   0.11394123 
   61400   -945.62601    46.607872   -899.01814    1669.3249    5776.0638    2.1883254    14.287081   0.11967566 
   61500   -953.14053    44.758848   -908.38169    1603.0996   -2188.7827    2.1838311    13.907458   0.11901545 
   61600   -952.02011    47.360185   -904.65993    1696.2701   -12517.729    2.1538446    13.204344   0.13471156 
   61700   -947.84069    47.216512   -900.62418    1691.1242    1811.6765    2.1813203    14.052691   0.14259228 
   61800   -951.00459    45.523167   -905.48143    1630.4747    10305.708    2.2144161    16.521988    0.1488775 
   61900   -951.22699    41.539689    -909.6873     1487.801   -2074.4709    2.1831428    14.481264   0.14229468 
   62000   -944.43307    42.900785   -901.53228    1536.5505   -11902.342    2.1438729    16.904579   0.14561173 
   62100   -947.60855    45.480442   -902.12811    1628.9445    1122.8808    2.1873097    16.353565   0.12493591 
   62200   -949.77987    42.396543   -907.38333    1518.4904    12609.563    2.2160094    14.005486    0.1278423 
   62300   -940.81012    42.032658   -898.77746    1505.4574    140.48032    2.1697799    14.575042   0.12909322 
   62400   -944.49332    43.995397   -900.49793    1575.7556   -1770.9329    2.1687094    12.920757     0.127212 
   62500   -946.32374     41.78686   -904.53688    1496.6538     3200.691    2.1883457    14.787967   0.13992655 
   62600   -947.84888     43.10721   -904.74167    1543.9439     2667.192    2.1883667    13.043374   0.14900325 
   62700   -942.84296    46.061265    -896.7817    1649.7475   -3485.1165    2.1596425    14.275083   0.16036553 
   62800   -944.15259    40.571983    -903.5806    1453.1413    1165.6921    2.1751771    15.333409   0.14510757 
   62900   -945.76466    41.623158    -904.1415    1490.7906     5512.426    2.1917528    16.657511   0.13508305 
   63000   -940.16453    44.974758   -895.18977    1610.8327    3296.9518    2.1721496    17.755933   0.14038175 
   63100   -948.19166    45.713992   -902.47767    1637.3094    -2604.143    2.1752158    15.095524   0.12499789 
   63200   -949.72303    45.123574   -904.59945    1616.1628   -3960.7869    2.1735407    14.706603   0.11540667 
   63300   -945.26003    46.490292   -898.76974    1665.1137    2106.2444    2.1785317    12.490359   0.13405293 
   63400   -946.78857    49.175169    -897.6134    1761.2762    2363.6025     2.181431     13.35801   0.13271013 
   63500   -948.99554    43.508793   -905.48675    1558.3272   -3178.2266    2.1764027    14.124271   0.12707758 
   63600   -944.16776    41.431545   -902.73621    1483.9277     383.2921    2.1753812    15.432344   0.14133664 
   63700   -946.40989    48.586614   -897.82327    1740.1963    4234.4983    2.1846275      17.2872   0.13598569 
   63800   -952.08106     46.60887   -905.47219    1669.3607    -2033.702    2.1816361    16.802836   0.12191888 
   63900   -948.04001    42.121846   -905.91816    1508.6518   -9252.5954    2.1589357    15.155662   0.14318822 
   64000   -943.47618    42.129938   -901.34624    1508.9416    3281.4579    2.1809264    13.877751   0.13861843 
   64100   -947.99817    45.095831   -902.90234    1615.1691     10497.85    2.2054189    13.474298   0.11364369 
   64200   -952.09868    42.250683   -909.84799    1513.2662    785.63174    2.1879766    13.670977   0.12241379 
   64300   -946.93783    44.170615   -902.76721    1582.0312   -10654.425    2.1520201    14.098691   0.13462097 
   64400   -948.76273    47.554246   -901.20849    1703.2206   -948.34267    2.1806472     14.69751    0.1317313 
   64500   -952.50553    44.463717   -908.04181    1592.5291    9377.5799     2.214532    14.949621   0.13000861 
   64600   -946.73454    42.428477   -904.30607    1519.6342   -1498.5545     2.176481    17.075969   0.12592327 
   64700   -947.85527    46.644014   -901.21126    1670.6194   -9815.8376    2.1553201    15.015049    0.1367042 
   64800   -948.62752    44.717133   -903.91039    1601.6055    1047.0702    2.1849379    15.605798   0.12202348 
   64900   -950.65202    42.913801   -907.73822    1537.0167    7728.2994    2.2080012    11.846961   0.12619157 
   65000   -945.73476    48.174519   -897.56024    1725.4366    -5769.048    2.1613302    15.098466   0.13126068 
   65100   -948.61706    46.932956    -901.6841    1680.9683   -4363.6083    2.1690438    15.021044   0.12483951 
   65200   -949.02978    44.453365   -904.57642    1592.1583    4859.7224    2.1962257    13.716506   0.12502679 
   65300   -947.43877    44.953799   -902.48497    1610.0821    6943.0642    2.1977885    13.299303   0.13492217 
   65400   -942.54073    46.042596   -896.49813    1649.0788   -15300.757    2.1349982    15.127204   0.15011783 
   65500   -946.53554     41.67127   -904.86427    1492.5138   -10512.172     2.151644    13.689106   0.14269648 
   65600   -947.21498    45.512416   -901.70256    1630.0897     21986.84      2.22863     15.43019   0.11791237 
   65700   -947.39089    46.524054   -900.86683    1666.3229    7996.7776    2.2006221    13.533583   0.12939571 
   65800   -941.00035    47.083004   -893.91734    1686.3424   -13008.751    2.1294006    12.111483   0.14321992 
   65900   -949.70472    44.739098   -904.96562    1602.3922   -213.20973    2.1817094    13.747909   0.13877838 
   66000   -946.64326    43.514316   -903.12895     1558.525    10185.833    2.2021756    12.221869   0.13463743 
   66100   -947.55924     46.05201   -901.50723     1649.416     -1421.94      2.17628    12.780395   0.12554531 
   66200   -944.52428     50.14738    -894.3769    1796.0973   -9100.3242    2.1483924    15.774798   0.14791406 
   66300   -944.79946     44.63944   -900.16002    1598.8229    1612.2751    2.1738677    15.005963   0.14753162 
   66400    -945.9638    43.131571   -902.83223    1544.8164    3822.1446    2.1872533    15.592597   0.14746304 
   66500    -946.5335    43.806828   -902.72667    1569.0017    2164.1815    2.1797816    14.493133   0.13134942 
   66600   -953.41052    49.777806   -903.63272    1782.8605   -7743.8072    2.1682111     14.86786   0.11449113 
   66700   -954.94183    42.037994   -912.90383    1505.6485     1408.294    2.2008992    12.489934   0.11293006 
   66800   -948.51317    43.294739   -905.21843    1550.6605    2071.4837     2.188222    12.963413   0.13344608 
   66900   -945.29323    42.894033   -902.39919    1536.3087   -1870.5008    2.1725111    13.474477   0.14655101 
   67000   -949.61345    46.991413   -902.62204     1683.062   -5782.5099    2.1701455    14.860249   0.13436371 
   67100   -952.80705      41.4781   -911.32895    1485.5951    6899.0192    2.2111346    11.881748   0.12131974 
   67200   -950.25919    46.591224   -903.66796    1668.7287    1892.0283    2.1873629    15.938881    0.1272642 
   67300   -944.87876    42.669361    -902.2094    1528.2618   -5934.4379    2.1580343    16.546128   0.13840492 
   67400   -948.46441    44.643769   -903.82064    1598.9779   -3383.3742    2.1726554    16.675115   0.11902716 
   67500   -952.62308     42.17728    -910.4458    1510.6372    12251.892    2.2197898    14.331306   0.11590619 
   67600   -946.48065    45.442763   -901.03789     1627.595    75.919405    2.1759921     13.88055   0.11295054 
   67700   -946.82331    44.258803   -902.56451    1585.1898   -11977.223    2.1502949    11.677003   0.12624315 
   67800   -947.06099    42.605051   -904.45594    1525.9584   -444.06124    2.1826646    12.884926    0.1488256 
   67900   -952.67729    41.393852   -911.28344    1482.5777    12095.059    2.2229444    13.570238   0.13537438 
   68000   -948.56814    46.420631   -902.14751    1662.6187   -4085.3796    2.1685491    17.147898   0.13539496 
   68100   -946.32407    43.963782   -902.36029    1574.6232   -5173.9053    2.1634041    14.231632   0.13317042 
   68200   -948.24543    45.285279   -902.96016    1621.9545    3201.7654     2.193155    17.514531    0.1349628 
   68300   -950.33378    41.092277   -909.24151    1471.7763    4405.7031    2.1980302    15.857284   0.13282719 
   68400   -951.43802    42.480612   -908.95741    1521.5015   -3422.9165    2.1798299    14.598011    0.1158991 
   68500   -953.13891    50.351418    -902.7875    1803.4052   -6971.2382    2.1700774    15.458126   0.10248771 
   68600   -948.62976    45.935278   -902.69448    1645.2351    1503.1772     2.182291    12.746301   0.11088946 
   68700   -950.92508    46.583127   -904.34195    1668.4387    659.33247    2.1886202    12.775727   0.12512574 
   68800   -956.53597    42.840679   -913.69529    1534.3977   -2833.1503    2.1935024    13.218621   0.12790138 
   68900   -947.24719    40.673462   -906.57373    1456.7759   -3605.1979     2.170821    14.251929   0.14495509 
   69000   -947.80693    44.814094   -902.99283    1605.0783    1302.4229    2.1830601    13.049351   0.13277719 
   69100   -943.08737     41.76319   -901.32418     1495.806    4927.9249     2.181176    17.343347   0.14725502 
   69200   -948.24528    44.556594   -903.68869    1595.8556   -2567.0675    2.1752646    14.128732   0.13834138 
   69300   -951.76643    42.519417   -909.24701    1522.8913    1723.4527    2.1933154    15.432241   0.12573294 
   69400   -947.29704    44.037998   -903.25904    1577.2814     2611.602    2.1846629    14.056043   0.12426246 
   69500   -948.19924    46.733944    -901.4653    1673.8404   -848.35322    2.1749345    12.521608     0.106789 
   69600   -951.17146    42.756638   -908.41482    1531.3877   -3873.0293    2.1802035    12.168505   0.12217238 
   69700   -949.76258    43.007764   -906.75482    1540.3821    517.87875     2.187184    12.505617   0.12075098 
   69800   -942.98093    42.030194   -900.95073    1505.3691    4400.2133    2.1851152    12.791018   0.14145291 
   69900   -947.41825    42.882263   -904.53599    1535.8871   -2087.4152    2.1793003    17.302502   0.15757278 
   70000   -951.42476    40.872609   -910.55215    1463.9086   -2522.0954    2.1832877    15.627783   0.13534071 
   70100   -946.03865    44.846502   -901.19215    1606.2391   -148.49106     2.178086    15.843633   0.14019472 
   70200   -949.42245    47.649381   -901.77307     1706.628    4130.8731    2.1943061    15.389014   0.12204088 
   70300   -951.33429    44.614421   -906.71987    1597.9268   -1909.0466    2.1841976    14.430482   0.11731751 
[...]
  186800   -941.60387    41.536891   -900.06698    1487.7008   -7469.9367    2.1504949    5.6747798   0.17752415 
  186900   -948.32544    45.504825   -902.82062    1629.8178    982.00333    2.1835906    5.0924305    0.1517747 
  187000   -947.22178    45.282138   -901.93964     1621.842    9461.0065    2.1993565    3.8976438   0.16569314 
  187100   -939.35355    46.742294   -892.61125    1674.1395   -6940.2609    2.1413805     4.380059   0.18010271 
  187200   -946.33065    44.394102   -901.93655    1590.0357   -7538.6698    2.1583014    7.6053577   0.16496185 
  187300   -945.87084    44.256508   -901.61433    1585.1076    9871.2509    2.1989988    3.6877486   0.15593176 
  187400    -948.5253     46.52632   -901.99898    1666.4041    5738.8791    2.1968617    5.2483134   0.16308455 
  187500    -940.5526    48.452036   -892.10057    1735.3762   -10031.295    2.1373224    9.4011239   0.16535592 
  187600    -945.8895    49.075364   -896.81413    1757.7016   -6533.0659    2.1593159    5.3801963   0.16324368 
  187700   -949.32541    48.381391   -900.94402     1732.846    6441.8107      2.19863    5.2248805   0.14165668 
  187800   -945.75654    43.016549   -902.73999    1540.6968    5100.5637    2.1900874     1.593541   0.13524052 
  187900   -943.22193    46.031504   -897.19042    1648.6815   -13882.413    2.1391087    5.3626196    0.1750456 
  188000   -942.61466    47.150651   -895.46401    1688.7653   -7858.1472    2.1502075    6.8511955   0.15874952 
  188100   -944.72017    43.678063    -901.0421    1564.3898    17196.596    2.2168559    4.4599015   0.15729388 
  188200   -946.77419    45.007362   -901.76683    1612.0005    7411.1722    2.1968172    3.0706103   0.16517186 
  188300   -944.06296    44.434349   -899.62861    1591.4773   -12390.033     2.140859     4.929429   0.14052066 
  188400   -938.00251     46.93509   -891.06742    1681.0447   -3389.5933    2.1486347    4.4965432    0.1397314 
  188500   -945.93911    45.198908    -900.7402     1618.861    7542.7705    2.1989566    6.8074558   0.13469516 
  188600   -948.20454    44.987651   -903.21688    1611.2945     85.25734    2.1814648    5.1732419   0.12502033 
  188700   -948.84944    46.521406   -902.32803    1666.2281    -6507.051    2.1671653     5.556093    0.1395646 
  188800   -942.61811    49.972894   -892.64522    1789.8478    -2440.646    2.1623742    5.8268216   0.16108073 
  188900   -948.10166    46.880813   -901.22085    1679.1007    7609.7795    2.1998249    5.6550527   0.13901329 
  189000   -946.61123    43.217988   -903.39324    1547.9116   -1239.7219    2.1761905    4.9824195   0.13317163 
  189100   -947.15655    44.903758   -902.25279    1608.2898   -7663.6605    2.1599529    5.7893237    0.1283495 
  189200   -943.49158    50.470166   -893.02142    1807.6583    1926.9243    2.1728221    6.1146004   0.12876456 
  189300   -948.68334    47.251553   -901.43178    1692.3793     9054.417    2.2045673    5.8131746   0.12568826 
  189400    -948.6002    44.795183   -903.80501     1604.401   -5403.9098    2.1656015    6.2374329   0.11288408 
  189500   -948.87705    47.130425   -901.74663    1688.0409   -9338.7397    2.1573647    6.1657944   0.12643759 
  189600   -942.88382    47.772974   -895.11085    1711.0547    9084.2167    2.1907195    5.7392662   0.13733802 
  189700   -942.53135    46.438987   -896.09237    1663.2761    4329.0002    2.1803777    5.2500566   0.14271331 
  189800   -942.42628    40.112203   -902.31408    1436.6737   -6164.4029    2.1600436    4.8345303   0.15401299 
  189900   -948.13924     44.82253   -903.31671    1605.3805   -1712.6096    2.1769828    5.8981047   0.13307831 
  190000   -949.94445    48.683587   -901.26086    1743.6696      6363.28    2.1979888    5.6923807    0.1221354 
  190100   -944.64554    51.726779   -892.91876    1852.6656   -4839.0763    2.1596702    6.2595423   0.12259817 
  190200   -948.50335    45.819033   -902.68432    1641.0716   -2631.3378     2.175443    6.1244843   0.11408636 
  190300   -949.54466    46.496291   -903.04837    1665.3285    1299.8772    2.1863923    6.7972951   0.11860309 
  190400   -948.17471      45.9939   -902.18081    1647.3347     2280.827    2.1840732    4.9969716   0.13863479 
  190500   -944.70413    52.870664   -891.83347    1893.6355   -4638.7852    2.1570923     7.050399   0.14608812 
  190600   -945.80393    45.764691   -900.03924    1639.1253    2291.4254    2.1834664    5.4713748   0.14544468 
  190700   -948.65295    45.830782   -902.82217    1641.4924    2587.0462    2.1851619    3.5571353   0.14069297 
  190800    -948.7623    46.648265   -902.11403    1670.7717   -964.31461    2.1776442     4.798199   0.12513956 
  190900   -942.47356    49.508322   -892.96524    1773.2085   -1319.6549    2.1633457    6.6559608   0.12085261 
  191000   -944.76432    44.780539   -899.98378    1603.8765    2867.7022    2.1848006    5.0331843   0.13342773 
  191100   -946.12403    43.140652   -902.98338    1545.1417    -1505.148     2.175155     6.012894   0.10855416 
  191200   -948.90835    46.007911   -902.90044    1647.8365   -2019.0675    2.1727528    5.9793417   0.12733844 
  191300   -944.16825    49.260665   -894.90759    1764.3384    1866.4042    2.1766788    5.1810428   0.16016162 
  191400   -944.62678    46.613758   -898.01302    1669.5358    7955.5561    2.1915711    4.9159747   0.13533145 
  191500   -945.49206    42.276785   -903.21527    1514.2011   -10913.468    2.1478224    5.7858757    0.1508174 
  191600   -946.68487    43.128497   -903.55637    1544.7064   -7067.6355    2.1607537    5.5393744   0.12235862 
  191700   -946.62843    45.070089   -901.55834    1614.2471    16436.725     2.220135    6.2476078   0.13688664 
  191800   -944.42763    50.292426    -894.1352    1801.2923   -1081.4445     2.170972    7.3792867   0.12970199 
  191900   -946.74575     44.55931   -902.18644    1595.9529   -10826.579    2.1490346    6.1521365   0.12095041 
  192000   -949.69721    45.911467   -903.78575    1644.3822   -843.75349    2.1840017    5.9016467   0.12912122 
  192100   -950.52202    49.015841   -901.50618    1755.5697    10902.781     2.210162    5.7277149   0.10694906 
  192200   -942.78637    48.652125   -894.13424    1742.5427   -3769.0188     2.157487    5.5913844   0.12291261 
  192300   -947.67092    44.035659   -903.63527    1577.1976   -8003.3766    2.1627296    4.8571482   0.15059058 
  192400   -947.64099    44.442533   -903.19845    1591.7704    5085.5617    2.1918076    5.2872943   0.14626592 
  192500   -945.86661    46.200717   -899.66589    1654.7421    7080.1953    2.1937562    6.5967985   0.12783132 
  192600   -941.46963    46.354173   -895.11546    1660.2384   -7472.4962    2.1528278    5.4749938   0.14534517 
  192700   -948.58034    43.918086   -904.66225    1572.9866   -3489.5788    2.1759763    6.8049442   0.12062812 
  192800   -947.85067    45.095157   -902.75552     1615.145    7251.6225    2.1999468    7.1009279   0.12771051 
  192900    -944.5369    45.462285   -899.07462    1628.2942     5203.571    2.1878163     5.850299   0.14569966 
  193000   -943.34778    48.191147   -895.15663    1726.0321   -9227.9086    2.1478022    5.4828062   0.15158922 
  193100    -949.4243      44.8327    -904.5916    1605.7447    208.06136    2.1863099    5.5236694   0.12822233 
  193200   -946.52619      44.4025   -902.12369    1590.3365    10603.287    2.2052153    5.1547818   0.13812362 
  193300   -945.97663    44.579459   -901.39717    1596.6745   -1920.4408    2.1739501    5.8552857   0.12821392 
  193400   -940.20312    48.122663   -892.08046    1723.5793   -5391.4682    2.1490946    5.1458995   0.13674461 
  193500   -942.04155    46.495366   -895.54618    1665.2954    5987.9244    2.1804542    5.8774991   0.14619636 
  193600   -946.74964      46.5433   -900.20634    1667.0122    1221.0791    2.1818585    7.2221471   0.14345317 
  193700   -946.61554    44.175812   -902.43973    1582.2174   -1590.9412    2.1770906    8.4039949   0.15745275 
  193800   -948.09703    40.357523    -907.7395    1445.4601     -1439.93    2.1789055    17.525763   0.12985958 
  193900   -950.29818    42.933904   -907.36427    1537.7367    2881.1775    2.1917643    15.477549   0.12785551 
  194000   -950.01376    48.922768   -901.09099    1752.2361   -552.19968    2.1812075    14.456079   0.12540059 
  194100   -949.49147    45.613486   -903.87798    1633.7096   -1338.0768    2.1756178    15.884884   0.11240138 
  194200   -950.60346    40.486527   -910.11693    1450.0806    222.77525    2.1864024    15.764205   0.11219787 
  194300   -945.29624    43.306297   -901.98994    1551.0745    2892.1422    2.1812164    15.218319   0.10577358 
  194400   -947.75414    46.333283   -901.42085    1659.4902    2905.4457    2.1900342    16.733187   0.12081396 
  194500   -947.66607    43.129417   -904.53665    1544.7393   -2447.5197    2.1774468    16.065989   0.12879284 
  194600   -946.05723     41.32932   -904.72791    1480.2664   -2312.4087    2.1737885    20.709073   0.15105668 
  194700   -940.86688    44.698195   -896.16869    1600.9273   -618.13526    2.1691805    21.205107   0.15802254 
  194800   -946.09159    45.426973   -900.66461    1627.0294   -973.22174    2.1768163    22.509926   0.14636783 
  194900   -945.76107    42.255226   -903.50584     1513.429    4142.3339    2.1946875    21.492381    0.1464788 
  195000   -942.20023    45.088191   -897.11204    1614.8955    2536.0666    2.1739055    40.846507   0.16828767 
  195100   -945.07276    48.160334   -896.91243    1724.9285   -5389.2704    2.1589142    38.565203   0.16445579 
  195200   -946.55176    43.471411   -903.08035    1556.9883   -2367.6642    2.1755258    41.412703   0.15582602 
  195300   -947.56239    46.394272   -901.16811    1661.6746    9045.3661    2.2041309     35.58525   0.16014113 
  195400   -943.43903    50.711773   -892.72726    1816.3118    518.27056    2.1733165     36.74771   0.16725145 
  195500    -942.5444    42.940633   -899.60377    1537.9777   -9722.7373    2.1533371    39.104456   0.17922065 
  195600   -946.64708    44.003149   -902.64393    1576.0332   -4766.2218    2.1703027    35.628198   0.16245089 
  195700   -945.39107    46.822447   -898.56863    1677.0103    9331.7085    2.2035318    36.017468   0.16650627 
  195800   -947.38315    42.962097   -904.42105    1538.7465    1759.3464    2.1912337    39.975436   0.17146991 
  195900   -947.49764    40.834605   -906.66304    1462.5475   -9063.6585    2.1630618    33.674895   0.15774721 
  196000    -947.9685     46.75895   -901.20955     1674.736   -2807.5529    2.1778745    36.883243   0.15534839 
  196100   -948.27907    48.370559   -899.90851     1732.458    5058.9812    2.1957831    36.925105   0.15289261 
  196200   -951.16317     42.14908   -909.01409    1509.6272    1849.4537    2.1927617    40.802943   0.14224611 
  196300   -943.59239    41.223291    -902.3691    1476.4688   -6564.4986    2.1616737    33.662231   0.16540687 
  196400   -949.96197    49.839755   -900.12222    1785.0793   -2337.0402    2.1758962    40.856679   0.14132031 
  196500   -948.20989    42.678422   -905.53147    1528.5863    3920.4875    2.1912011    36.424717   0.14823301 
  196600   -948.60139    42.106971   -906.49442     1508.119    1118.1899    2.1857289    36.358124   0.15969744 
  196700   -943.65413    44.825181   -898.82895    1605.4754   -3271.7696     2.162156     38.95986   0.15833681 
  196800   -948.36764    45.266455   -903.10119    1621.2803   -675.87153    2.1760486    39.649178   0.16631492 
  196900   -950.26377    44.623543   -905.64023    1598.2535    2308.4118    2.1915666    34.531942   0.15115682 
  197000   -940.76581     44.88677   -895.87904    1607.6813    2594.6583    2.1671098    36.813842   0.16467502 
  197100   -943.15845    41.724127   -901.43432    1494.4069    1151.7199      2.17953    42.362947    0.1691335 
  197200   -949.59403     45.12228   -904.47175    1616.1164   -686.99412    2.1794207    39.810809   0.12287731 
  197300   -945.08939    48.485002   -896.60438    1736.5569   -541.00834    2.1728196    41.247084   0.14424277 
  197400   -945.39137    47.252005   -898.13937    1692.3955   -1277.7597    2.1743711    33.062029   0.16503103 
  197500   -946.85158    43.295193   -903.55639    1550.6768   -2312.0447    2.1738666    37.330866   0.15799785 
  197600   -946.66785    45.879284   -900.78856    1643.2296    695.19043    2.1781036    37.700613    0.1700668 
  197700   -944.13274      51.5596   -892.57314    1846.6779    3399.9825    2.1782166    45.449159   0.17315125 
  197800   -949.62763    47.847704   -901.77992    1713.7313   -1244.7236    2.1788763    37.668984   0.14495553 
  197900   -943.83267    41.297321   -902.53535    1479.1203    -11844.28     2.144553    44.555347     0.169785 
  198000   -945.59681    45.950111    -899.6467    1645.7663   -77.604961    2.1769516    38.270151   0.14778246 
  198100   -948.34637    46.896373      -901.45     1679.658    12889.583    2.2157399    39.586365   0.12926815 
  198200     -950.641    42.866666   -907.77433    1535.3285   -3025.9392    2.1809489    44.281194   0.13653256 
  198300   -948.85702    45.147758   -903.70926     1617.029   -9885.6233    2.1532167    38.697126   0.14161247 
  198400   -946.29009    45.382601   -900.90749    1625.4402    2567.6966    2.1785882    34.800726   0.17169973 
  198500   -947.90701    43.974544   -903.93247    1575.0087    10740.659    2.2043141    38.006154   0.16701294 
  198600   -953.26078    43.488627   -909.77215    1557.6049   -593.24163    2.1875887    34.652179    0.1426368 
  198700   -945.43759    42.989972   -902.44762    1539.7449    -9753.376    2.1548858    36.212463   0.14476116 
  198800   -946.39567    45.510237   -900.88543    1630.0116   -349.73272    2.1765171    36.507974   0.15246251 
  198900   -950.42508    43.802053   -906.62302    1568.8307    9234.4025    2.2048126    37.842429   0.13517886 
  199000   -949.34102     41.85378   -907.48724    1499.0506   -644.20799    2.1835867     34.76379   0.13703773 
  199100   -945.89659    45.688271   -900.20832    1636.3882   -8590.4632    2.1494917    28.291901   0.13699538 
  199200   -944.29563    41.663411   -902.63222    1492.2323    3123.0993    2.1775861    37.718655   0.13715254 
  199300   -949.82428    43.557098   -906.26718    1560.0573    8853.4591    2.2090638    36.730692   0.14063885 
  199400   -942.26826    46.213383   -896.05488    1655.1958   -3947.7751    2.1582894    37.097988   0.15748567 
  199500   -945.46639    45.282071   -900.18432    1621.8395   -7409.7369    2.1556521     35.16574   0.16504036 
  199600   -945.53332     41.56309   -903.97023    1488.6391    5672.2535     2.187746     34.69935   0.15848644 
  199700   -947.91783    45.950797   -901.96703    1645.7909    8997.9933    2.1997992    40.921213   0.14427445 
  199800   -939.79502    43.815797   -895.97923    1569.3229   -4039.4958    2.1477947    40.527213   0.15957303 
  199900   -942.94164    38.616069   -904.32557    1383.0875   -11326.447    2.1450734    64.189377   0.15444315 
  200000   -949.16222    48.097025    -901.0652     1722.661     9835.352    2.2081693    32.338621   0.15914113 
  200100   -944.47992     49.99863   -894.48129    1790.7696    17817.288    2.2139667    45.304335   0.15322198 
  200200   -942.51252    42.361777   -900.15074    1517.2452   -13806.379    2.1364673    42.934067    0.1698251 
  200300   -947.01134    42.417574   -904.59376    1519.2437   -10340.244    2.1543768    45.509866   0.14893367 
  200400    -945.2657    47.382973   -897.88272    1697.0863    8441.1738    2.1871167    46.178519   0.14932833 
  200500   -945.50645    44.650226   -900.85623    1599.2092    4962.6895    2.1861683     48.12077   0.13384394 
  200600   -948.78352    42.499076   -906.28445    1522.1628   -7044.5191    2.1663297    46.981171   0.13755339 
  200700   -943.84011    42.807067   -901.03305    1533.1939    348.72521    2.1680276     49.05032   0.13493174 
  200800   -946.06437    46.582513   -899.48185    1668.4167    3994.0158    2.1865095    45.610731   0.11794316 
  200900   -951.49713    43.388116   -908.10902     1554.005    3442.2387    2.1984276    48.092336   0.12678877 
  201000   -948.99649     46.22764   -902.76885    1655.7064   -5778.0206    2.1627124    46.212252   0.13692971 
  201100   -945.67228    44.671064   -901.00121    1599.9555   -4576.0657    2.1619622    47.016278   0.11615561 
  201200   -946.10051     37.20971    -908.8908    1332.7169    11028.266    2.2074438    49.560384   0.13483569 
  201300   -949.97084    46.878724   -903.09211    1679.0259    1649.4376    2.1886732    50.879285    0.1249513 
  201400   -945.21464    43.822353   -901.39229    1569.5578   -5618.9725    2.1590218    48.355954   0.13982422 
  201500   -947.22699    41.070976   -906.15601    1471.0134   -4002.7852    2.1719196    47.958887   0.14021281 
  201600   -950.38949    43.494972   -906.89452    1557.8322    8926.7753    2.2070639    47.554422   0.12529008 
  201700   -944.07826    45.294973   -898.78329    1622.3017    2664.8584    2.1788377    46.825005   0.13316428 
  201800   -947.84873     43.69546   -904.15327    1565.0129   -12191.009    2.1498391    51.678231   0.13521744 
  201900   -943.46506    38.806407   -904.65865    1389.9048    2348.5903     2.178627     45.69846   0.14029392 
  202000   -945.23282     50.33229   -894.90053    1802.7201    10594.542    2.1964632    46.570721    0.1369634 
  202100   -944.41651    43.781401   -900.63511     1568.091    3633.7893     2.182264    44.629374   0.13477485 
  202200   -947.87604    42.560933   -905.31511    1524.3783   -14404.827    2.1456443    50.109765   0.12696012 
  202300   -946.54826    46.334232   -900.21403    1659.5242    -3638.306    2.1665263    43.271322   0.12370871 
  202400   -946.87106    52.975957   -893.89511    1897.4067    14258.439    2.2089055    46.497117   0.13532332 
  202500   -946.98909    44.006522   -902.98257     1576.154    2728.4988    2.1846034    44.386523   0.11724393 
  202600   -946.01877    42.255061   -903.76371     1513.423   -9252.6094    2.1506037    44.700162   0.12538687 
  202700   -943.55072    45.344008   -898.20671    1624.0579    -159.6647    2.1719362    47.755835    0.1366969 
  202800   -945.35634    47.427185   -897.92916    1698.6698    1828.4332    2.1816615    48.200168   0.13790744 
  202900   -948.99287    44.001652   -904.99122    1575.9796    912.97216    2.1835159    49.865379   0.13000307 
  203000   -951.04884    48.162778   -902.88607     1725.016   -3826.2302    2.1751744    48.229185   0.12488759 
  203100   -942.75956    43.368343   -899.39121    1553.2968   -722.17417    2.1725494    46.497873   0.13232734 
  203200   -942.61348    50.605217   -892.00826    1812.4953    1317.9089    2.1675858    44.153374   0.13000109 
Loop time of 142.576 on 1 procs for 200000 steps with 217 atoms

Performance: 363.597 ns/day, 0.066 hours/ns, 1402.765 timesteps/s
100.0% CPU use with 1 MPI tasks x no OpenMP threads

MPI task timing breakdown:
Section |  min time  |  avg time  |  max time  |%varavg| %total
---------------------------------------------------------------
Pair    | 138.16     | 138.16     | 138.16     |   0.0 | 96.90
Neigh   | 1.272      | 1.272      | 1.272      |   0.0 |  0.89
Comm    | 0.88648    | 0.88648    | 0.88648    |   0.0 |  0.62
Output  | 0.069708   | 0.069708   | 0.069708   |   0.0 |  0.05
Modify  | 1.8784     | 1.8784     | 1.8784     |   0.0 |  1.32
Other   |            | 0.3138     |            |       |  0.22

Nlocal:    217 ave 217 max 217 min
Histogram: 1 0 0 0 0 0 0 0 0 0
Nghost:    957 ave 957 max 957 min
Histogram: 1 0 0 0 0 0 0 0 0 0
Neighs:    4153 ave 4153 max 4153 min
Histogram: 1 0 0 0 0 0 0 0 0 0
FullNghs:  8306 ave 8306 max 8306 min
Histogram: 1 0 0 0 0 0 0 0 0 0

Total # of neighbors = 8306
Ave neighs/atom = 38.2765
Neighbor list builds = 2147
Dangerous builds = 24
Total wall time: 0:02:24
