LAMMPS (3 Mar 2020)
Reading data file ...
  orthogonal box = (0 0 0) to (12.27 12.27 12.27)
  1 by 1 by 1 MPI processor grid
  reading atoms ...
  108 atoms
  read_data CPU = 0.00094285 secs
Reading potential file /usr/share/lammps-stable/potentials/Ag_u3.eam with DATE: 2007-06-11
Neighbor list info ...
  update every 1 steps, delay 10 steps, check yes
  max neighbors/atom: 2000, page size: 100000
  master list distance cutoff = 7.55
  ghost atom cutoff = 7.55
  binsize = 3.775, bins = 4 4 4
  2 neighbor lists, perpetual/occasional/extra = 1 1 0
  (1) pair eam, perpetual
      attributes: half, newton on
      pair build: half/bin/atomonly/newton
      stencil: half/bin/3d/newton
      bin: standard
  (2) compute rdf, occasional, copy from (1)
      attributes: half, newton on
      pair build: copy
      stencil: none
      bin: none
Setting up Verlet run ...
  Unit style    : metal
  Current step  : 0
  Time step     : 0.001
Per MPI rank memory allocation (min/avg/max) = 3.723 | 3.723 | 3.723 Mbytes
Step PotEng KinEng TotEng Temp Press Density c_msdall[4] 
       0       -307.8    17.288544   -290.51146         1250    9996.3468    10.472245            0 
     100    -296.7081    10.562585   -286.14551    763.69825    43660.201    10.472245  0.068102634 
     200   -293.33591    17.594768   -275.74114    1272.1406    59414.201    10.472245  0.079307829 
     300   -289.33584    21.078128   -268.25771    1523.9952    75032.176    10.472245  0.093843938 
     400   -290.29163     16.10603    -274.1856    1164.5016    68555.618    10.472245   0.10052699 
     500   -292.65173    19.281629    -273.3701    1394.1044     64223.49    10.472245  0.074924014 
     600    -291.7606    16.274101    -275.4865    1176.6535    62944.056    10.472245  0.088773206 
     700   -289.92059    17.811154   -272.10944    1287.7859    71525.774    10.472245  0.099492408 
     800   -290.91262    17.803909   -273.10871     1287.262    67480.474    10.472245  0.088055787 
     900   -290.24001     15.56507   -274.67494     1125.389    67848.594    10.472245  0.094933057 
    1000   -289.64716      17.9632   -271.68396    1298.7791    73066.685    10.472245  0.089492016 
    1100    -290.6853    17.769342   -272.91595    1284.7628    69575.186    10.472245  0.092206607 
    1200   -289.94999     16.38608   -273.56391    1184.7499    70953.798    10.472245   0.10328244 
    1300   -287.97197    18.580599   -269.39137    1343.4184    77630.167    10.472245  0.097592609 
    1400   -292.79609    17.920389    -274.8757    1295.6838    62347.168    10.472245  0.070440069 
    1500   -291.80315     17.95467   -273.84848    1298.1624    65175.793    10.472245  0.089475336 
    1600   -288.37666    18.501944   -269.87472    1337.7314    76757.681    10.472245   0.11724382 
    1700   -289.80129    16.969636   -272.83165    1226.9422    70892.054    10.472245    0.1086892 
    1800   -293.61171    18.133141   -275.47857    1311.0662    58261.868    10.472245  0.081725467 
    1900   -288.83839    16.549826   -272.28856     1196.589    73460.967    10.472245  0.098931806 
    2000   -290.78756    17.234427   -273.55314    1246.0872    68012.537    10.472245  0.081903324 
    2100   -291.73146    16.803884   -274.92757     1214.958    64322.565    10.472245  0.082962855 
    2200   -288.13784    17.780333    -270.3575    1285.5574    75724.608    10.472245  0.099880805 
    2300   -289.90858    15.775297   -274.13328    1140.5888    70034.723    10.472245  0.098990122 
    2400   -293.96736    15.429075   -278.53828    1115.5563    56246.072    10.472245  0.067344672 
    2500   -292.15652    17.823357   -274.33317    1288.6682    63681.388    10.472245    0.0750848 
    2600   -288.52243    17.571194   -270.95123    1270.4362    75437.759    10.472245  0.096919605 
    2700   -289.96856    17.765383   -272.20318    1284.4765     71301.24    10.472245  0.085039782 
    2800   -290.83731    15.946203    -274.8911    1152.9458    67491.179    10.472245   0.08062015 
    2900   -291.47248    18.326103   -273.14637    1325.0178    67103.052    10.472245  0.072001925 
    3000   -290.04805    15.033941   -275.01411    1086.9872    68523.508    10.472245  0.089708982 
    3100   -290.37119    18.297596   -272.07359    1322.9566    69502.605    10.472245  0.091270822 
    3200   -290.53879    14.886948   -275.65184    1076.3593    68375.478    10.472245   0.10571474 
    3300   -289.99072    17.839119    -272.1516    1289.8077    71475.703    10.472245  0.096787426 
    3400   -290.19593    17.504612   -272.69132    1265.6222     70362.12    10.472245  0.096466305 
    3500   -292.86942    15.778213   -277.09121    1140.7997    60683.257    10.472245  0.081072354 
    3600   -291.86702    16.440802   -275.42622    1188.7063    64565.461    10.472245  0.083001767 
    3700   -292.07074    19.230098   -272.84064    1390.3786    64269.646    10.472245  0.085939109 
    3800   -290.77723    16.588992   -274.18824    1199.4208    67480.123    10.472245   0.09949374 
    3900   -289.45671    18.580271   -270.87644    1343.3947    74519.924    10.472245  0.095647573 
    4000   -289.87141    15.241436   -274.62998    1101.9895    70197.118    10.472245   0.10564427 
    4100   -290.57397    17.754742   -272.81923    1283.7071     68198.51    10.472245    0.0945143 
    4200   -290.34596    15.765169   -274.58079    1139.8566    70014.073    10.472245  0.077693093 
    4300   -291.90289    16.731779   -275.17111    1209.7447     65523.59    10.472245  0.074088254 
    4400   -289.03109    17.390463   -271.64063     1257.369    74461.416    10.472245  0.081456011 
    4500     -291.647    15.962843   -275.68415    1154.1489    65261.718    10.472245  0.076652738 
    4600   -291.24425    16.757576   -274.48667    1211.6098    67487.239    10.472245  0.081960813 
    4700     -289.923    17.861605    -272.0614    1291.4336    71537.585    10.472245    0.0846737 
    4800   -290.63246    16.642333   -273.99013    1203.2775    68296.025    10.472245  0.093276751 
    4900   -289.88109    19.477806   -270.40328    1408.2885    72041.312    10.472245  0.091222675 
    5000   -291.22133    18.071003   -273.15032    1306.5735    67155.059    10.472245  0.083957114 
    5100   -291.41341    16.038927   -275.37449    1159.6499     63610.29    10.472245  0.096028092 
    5200    -288.5935     16.83741   -271.75609     1217.382    74370.781    10.472245   0.10018587 
    5300   -290.01254     16.58808   -273.42446    1199.3549    70551.579    10.472245  0.089999401 
    5400   -292.28674    18.739064   -273.54768    1354.8758    62857.884    10.472245  0.086106912 
    5500   -291.83632    17.329585   -274.50673    1252.9673    64164.876    10.472245   0.09375584 
    5600   -289.97881    19.081074   -270.89773    1379.6038    71584.799    10.472245   0.10408008 
    5700   -289.25275    19.089533   -270.16321    1380.2155    74652.209    10.472245   0.10465841 
    5800   -291.25077    16.007319   -275.24345    1157.3646     65163.55    10.472245  0.094362727 
    5900   -290.54893    17.768799   -272.78013    1284.7235    68893.759    10.472245  0.093669732 
    6000   -289.35745    20.652248   -268.70521    1493.2032    73041.848    10.472245  0.098794144 
    6100   -289.13201    16.604274   -272.52774    1200.5257    71311.465    10.472245   0.11316304 
    6200   -291.37383    17.415631    -273.9582    1259.1887    66120.463    10.472245  0.085647382 
    6300    -292.5535    16.643384   -275.91011    1203.3535    62066.395    10.472245  0.082915933 
    6400   -287.61826    16.689036   -270.92922    1206.6542    76431.701    10.472245   0.11332001 
    6500    -288.2523    17.384662   -270.86764    1256.9495    76955.659    10.472245   0.10848731 
    6600     -292.387    16.735346   -275.65166    1210.0026    63159.197    10.472245  0.075158963 
    6700   -292.53043    18.752075   -273.77835    1355.8165    63973.925    10.472245  0.071443452 
    6800   -287.81122    16.977319    -270.8339    1227.4977     76500.58    10.472245    0.1069232 
    6900   -290.20517    20.986419   -269.21875    1517.3645    71583.743    10.472245  0.093925731 
    7000   -292.56548    19.077612   -273.48787    1379.3535    63484.366    10.472245  0.076635066 
    7100   -291.06659    15.129552   -275.93703    1093.9001    65114.547    10.472245  0.086128313 
    7200   -289.95738    17.470015   -272.48736    1263.1207    71793.666    10.472245  0.092780694 
    7300   -289.99815    16.462239   -273.53591    1190.2563    69421.073    10.472245   0.10357173 
    7400   -292.06208    16.766631   -275.29545    1212.2645    62710.728    10.472245  0.085021422 
    7500   -291.73484    16.935279   -274.79956    1224.4582    64477.049    10.472245  0.082498199 
    7600   -289.16267    18.053929   -271.10875     1305.339    71815.609    10.472245   0.10405514 
    7700   -287.86632    15.140252   -272.72607    1094.6737    77084.236    10.472245   0.11190045 
    7800   -292.70456    17.083092   -275.62147    1235.1453    62451.542    10.472245  0.082502319 
    7900   -291.57759    18.000733   -273.57686    1301.4928     66906.54    10.472245  0.076598739 
    8000   -289.09849    16.869007   -272.22948    1219.6665    73685.561    10.472245   0.10686419 
    8100     -289.503     17.85823   -271.64477    1291.1895     71628.27    10.472245   0.10262974 
    8200   -290.22355    17.035482   -273.18807    1231.7031    70944.058    10.472245  0.095147532 
    8300   -290.10501     16.31895   -273.78606    1179.8962    69954.449    10.472245   0.09312938 
    8400    -289.9811     19.55769   -270.42341    1414.0643    72083.819    10.472245   0.08676912 
    8500   -291.60022    17.242299   -274.35792    1246.6564    65241.017    10.472245  0.094506012 
    8600   -292.58898    20.617364   -271.97161     1490.681    65541.028    10.472245  0.074353233 
    8700   -293.33811    16.749145   -276.58897    1211.0002    59198.268    10.472245   0.07366483 
    8800   -291.51353     17.13381   -274.37972    1238.8123    66102.708    10.472245  0.081905372 
    8900   -288.70866     19.00796    -269.7007    1374.3176    75163.356    10.472245  0.091424884 
    9000   -291.54016    16.990837   -274.54932    1228.4751     65893.38    10.472245  0.084893834 
    9100   -291.09568    18.399835   -272.69584    1330.3488    68306.372    10.472245  0.080523655 
    9200   -290.34107     17.79687    -272.5442    1286.7531    69695.117    10.472245   0.08550399 
    9300   -292.86382    16.765687   -276.09813    1212.1963     60779.39    10.472245  0.069710562 
    9400    -289.8367    16.986553   -272.85015    1228.1653    71396.527    10.472245  0.090303966 
    9500   -290.31886    17.926723   -272.39214    1296.1417    69280.453    10.472245   0.10362537 
    9600    -290.4385     17.67613   -272.76237    1278.0233    68693.467    10.472245  0.085327125 
    9700   -292.02438    17.569992   -274.45439    1270.3493    63660.647    10.472245  0.085183776 
    9800   -291.67048    19.543581    -272.1269    1413.0441    65622.317    10.472245  0.095908114 
    9900    -291.2404    16.670438   -274.56997    1205.3095    66191.811    10.472245  0.094037349 
   10000   -292.44893    19.038837   -273.41009      1376.55    64471.516    10.472245  0.084807563 
Loop time of 2.10895 on 1 procs for 10000 steps with 108 atoms

Performance: 409.683 ns/day, 0.059 hours/ns, 4741.699 timesteps/s
100.0% CPU use with 1 MPI tasks x no OpenMP threads

MPI task timing breakdown:
Section |  min time  |  avg time  |  max time  |%varavg| %total
---------------------------------------------------------------
Pair    | 1.3972     | 1.3972     | 1.3972     |   0.0 | 66.25
Neigh   | 0          | 0          | 0          |   0.0 |  0.00
Comm    | 0.041971   | 0.041971   | 0.041971   |   0.0 |  1.99
Output  | 0.0017898  | 0.0017898  | 0.0017898  |   0.0 |  0.08
Modify  | 0.6584     | 0.6584     | 0.6584     |   0.0 | 31.22
Other   |            | 0.009561   |            |       |  0.45

Nlocal:    108 ave 108 max 108 min
Histogram: 1 0 0 0 0 0 0 0 0 0
Nghost:    990 ave 990 max 990 min
Histogram: 1 0 0 0 0 0 0 0 0 0
Neighs:    4644 ave 4644 max 4644 min
Histogram: 1 0 0 0 0 0 0 0 0 0

Total # of neighbors = 4644
Ave neighs/atom = 43
Neighbor list builds = 0
Dangerous builds = 0
Total wall time: 0:00:02
