LAMMPS (3 Mar 2020)

# ---------- 1. Initialize simulation ----------
units metal
atom_style atomic
dimension 3
boundary p p p
read_data /home/modeler/RemLabs/Project/arrhenius_3/T1675.0/n3_T1675.0_timestep3.000000e-03_eqsteps3200_time600_rseed3327/20201205-094141/lammps.data
  orthogonal box = (0 0 0) to (17.469 17.469 17.469)
  1 by 1 by 1 MPI processor grid
  reading atoms ...
  217 atoms
  read_data CPU = 0.000992301 secs

pair_style meam/c
pair_coeff * * library.meam Li Si LiSi.meam Li Si
Reading potential file library.meam with DATE: 2012-06-29
Reading potential file LiSi.meam with DATE: 2020-11-07

group Li type 1
1 atoms in group Li
group Si type 2
216 atoms in group Si

velocity all create 1675.0 3327 dist gaussian

# ---------- 2. Specify equilibration ensemble  ----------
fix 1 all npt temp 1675.0 1675.0 0.15 tchain 2 iso 1.0 1.0 1.0 pchain 2
# fix 1 all nvt temp 1675.0 1675.0 0.15

# ---------- 3. Run equilibration -------------
timestep 0.003
run 3200
Neighbor list info ...
  update every 1 steps, delay 10 steps, check yes
  max neighbors/atom: 2000, page size: 100000
  master list distance cutoff = 6
  ghost atom cutoff = 6
  binsize = 3, bins = 6 6 6
  2 neighbor lists, perpetual/occasional/extra = 2 0 0
  (1) pair meam/c, perpetual
      attributes: full, newton on
      pair build: full/bin/atomonly
      stencil: full/bin/3d
      bin: standard
  (2) pair meam/c, perpetual, half/full from (1)
      attributes: half, newton on
      pair build: halffull/newton
      stencil: none
      bin: none
Per MPI rank memory allocation (min/avg/max) = 8.895 | 8.895 | 8.895 Mbytes
Step Temp E_pair E_mol TotEng Press Volume 
       0         1675   -951.04357            0   -904.27725   -114861.02    5330.9442 
    3200    1583.5515    -943.6741            0   -899.46104   -4406.4507    4671.8666 
Loop time of 2.29717 on 1 procs for 3200 steps with 217 atoms

Performance: 361.070 ns/day, 0.066 hours/ns, 1393.015 timesteps/s
100.0% CPU use with 1 MPI tasks x no OpenMP threads

MPI task timing breakdown:
Section |  min time  |  avg time  |  max time  |%varavg| %total
---------------------------------------------------------------
Pair    | 2.1966     | 2.1966     | 2.1966     |   0.0 | 95.62
Neigh   | 0.051231   | 0.051231   | 0.051231   |   0.0 |  2.23
Comm    | 0.015115   | 0.015115   | 0.015115   |   0.0 |  0.66
Output  | 2.6162e-05 | 2.6162e-05 | 2.6162e-05 |   0.0 |  0.00
Modify  | 0.029115   | 0.029115   | 0.029115   |   0.0 |  1.27
Other   |            | 0.005056   |            |       |  0.22

Nlocal:    217 ave 217 max 217 min
Histogram: 1 0 0 0 0 0 0 0 0 0
Nghost:    953 ave 953 max 953 min
Histogram: 1 0 0 0 0 0 0 0 0 0
Neighs:    4164 ave 4164 max 4164 min
Histogram: 1 0 0 0 0 0 0 0 0 0
FullNghs:  8328 ave 8328 max 8328 min
Histogram: 1 0 0 0 0 0 0 0 0 0

Total # of neighbors = 8328
Ave neighs/atom = 38.3779
Neighbor list builds = 87
Dangerous builds = 0

# ---------- 4. Describe computed properties----------
compute msdli Li msd
compute msdsi Si msd
thermo_style custom step pe ke etotal temp press density c_msdli[4] c_msdsi[4]
thermo 100

# ---------- 3. Run production -------------
timestep 0.003
run 200000
Per MPI rank memory allocation (min/avg/max) = 9.664 | 9.664 | 9.664 Mbytes
Step PotEng KinEng TotEng Temp Press Density c_msdli[4] c_msdsi[4] 
    3200    -943.6741    44.213061   -899.46104    1583.5515   -4406.4507     2.158732            0 6.313127e-32 
    3300   -948.94293    44.308795   -904.63414    1586.9803    -7027.504    2.1650349   0.28458573   0.11354317 
    3400   -942.33715    47.264061   -895.07309    1692.8272     6673.794    2.1846183  0.056717605   0.11795023 
    3500   -945.92745    49.365692   -896.56176    1768.1001    4996.9169     2.187442  0.019892485   0.11808856 
    3600   -944.06072    41.168291   -902.89243    1474.4989   -6604.4765    2.1601057     0.104692   0.13950198 
    3700   -941.95465    46.597298   -895.35736    1668.9462    -4645.972    2.1593713   0.24967688   0.10629079 
    3800   -944.74814    50.536389   -894.21175    1810.0302    9461.3185    2.1919679    0.1182429   0.10879718 
    3900   -946.69548    46.046412   -900.64907    1649.2155    204.71604    2.1764647   0.23323738   0.12177564 
    4000   -943.02456     46.71547   -896.30909    1673.1787    -9677.949    2.1419762 0.0014915114   0.10583948 
    4100   -939.91262    48.198044   -891.71458    1726.2791    1829.5232    2.1643308   0.11251706   0.11158828 
    4200   -946.43905    46.805235   -899.63382    1676.3938     11500.24    2.2021693   0.09332374   0.09512038 
    4300   -945.80633    47.174375   -898.63196     1689.615   -3934.4769    2.1599626   0.18235265   0.10375982 
    4400   -944.67933    51.569782   -893.10955    1847.0426   -12837.461    2.1350387    0.3998575   0.14199496 
    4500   -943.95253    41.125062   -902.82747    1472.9506    10447.661    2.2036123   0.16994014   0.13907776 
    4600   -945.32025    46.170831   -899.14942    1653.6717    4816.7186     2.188149   0.12441021   0.13588867 
    4700   -944.75616    48.910009   -895.84615    1751.7791   -9402.8398    2.1473916   0.10868949   0.11212208 
    4800   -943.08186    40.131778   -902.95008    1437.3748   -1538.1897      2.16856   0.10149612   0.10925552 
    4900   -945.26544    43.673397   -901.59205    1564.2227    10145.105    2.2012873  0.091865575   0.10824341 
    5000   -944.06149    49.004199   -895.05729    1755.1527    1514.1512    2.1719675   0.04712733   0.11870288 
    5100   -948.42591    48.612138   -899.81377    1741.1105   -11866.875    2.1490934   0.44086219   0.11900556 
    5200    -948.6925    45.275904   -903.41659    1621.6187    236.37705     2.182385   0.22336249   0.12253363 
    5300   -942.11337    48.346052   -893.76732    1731.5802    8326.2185    2.1841887   0.30713266   0.13506745 
    5400   -946.86193    48.937261   -897.92467    1752.7552   -3897.0614     2.164747   0.19651294   0.12345567 
    5500   -949.12748    46.459119   -902.66836    1663.9972   -8699.5605    2.1616352   0.10798229   0.11439318 
    5600     -942.346    47.288474   -895.05752    1693.7017    6308.6147    2.1810514   0.39351588   0.12354183 
    5700   -944.09949    49.419207   -894.68029    1770.0168    6570.9102    2.1841668  0.068102963   0.12479778 
    5800   -946.87895    45.766122   -901.11283    1639.1765   -7455.4167    2.1549782    0.1753356   0.10499249 
    5900   -944.42244    48.642149   -895.78029    1742.1854    -4887.054    2.1583149   0.15350421    0.1103522 
    6000   -941.95664    50.836471   -891.12017     1820.778      7181.85    2.1807643   0.18568028    0.1314179 
    6100   -946.33752     46.16808   -900.16944    1653.5732    1922.2291    2.1815211   0.10165748   0.13953291 
    6200   -945.28153    46.810039   -898.47149    1676.5658    -7834.433    2.1519019   0.48409985     0.146067 
    6300    -940.7423    48.574095   -892.16821    1739.7479    -1055.192    2.1576767   0.28995567   0.12661433 
    6400   -949.85163    47.842386   -902.00924    1713.5408    10235.557    2.2064214   0.40995263   0.11740675 
    6500   -943.07858    43.765786    -899.3128    1567.5317   -1379.7615    2.1648748  0.099840886   0.12721378 
    6600   -943.14624    46.979676   -896.16657    1682.6416   -9980.3734    2.1479327  0.097637433    0.1429298 
    6700   -944.64823      41.4638   -903.18443     1485.083    7071.2907    2.1950984  0.053139495   0.13429601 
    6800   -944.65383     42.92382   -901.73001    1537.3756    8143.1013    2.1958095  0.090969825   0.12942348 
    6900   -940.85243    44.489297   -896.36313    1593.4453   -5598.2955    2.1517246   0.17494494   0.13867476 
    7000   -946.61612    47.177769   -899.43835    1689.7366   -6328.3919    2.1618706   0.58028367   0.14682022 
    7100   -946.46208     42.94128    -903.5208    1538.0009    9011.8277    2.2028894    0.1945641   0.13943856 
    7200   -940.33959    46.367273   -893.97231    1660.7076   -783.92779    2.1667952   0.44226586   0.14905936 
    7300    -940.8408    42.503062   -898.33774    1522.3055   -888.83344    2.1618599  0.085089628      0.14173 
    7400   -946.93668    45.209432   -901.72725    1619.2379    1471.0392    2.1822289  0.026708363   0.11711091 
    7500   -939.82302    47.970841   -891.85218    1718.1416    2707.6836    2.1666978   0.19569763   0.14134728 
    7600   -944.26383    47.854977   -896.40885    1713.9917    977.28796    2.1706198    0.1677358   0.13233819 
    7700   -946.60536    45.555876   -901.04948    1631.6463   -3176.4391    2.1677824   0.24965428   0.13218646 
    7800   -944.60422    50.861352   -893.74287    1821.6692   -1540.0563     2.165758   0.10479113    0.1406871 
    7900   -938.98429    43.990213   -894.99407    1575.5699     4464.978    2.1673364   0.14075854   0.13310073 
    8000   -947.80963    46.400278   -901.40935    1661.8897   -2573.0847    2.1727284   0.30537446   0.13975007 
    8100    -942.6252    46.700365   -895.92483    1672.6377    2203.9935    2.1672331   0.21277972   0.12684336 
    8200   -941.92939     48.47895   -893.45044    1736.3402    1831.9072    2.1630721  0.063580364   0.11925768 
    8300   -948.12216    45.461812   -902.66035    1628.2772    3178.6978    2.1850719  0.050020324   0.12116606 
    8400   -945.14942    47.531484   -897.61793    1702.4054   -2102.4163    2.1672943   0.12582193   0.11922531 
    8500    -941.6058     46.20782   -895.39798    1654.9965   -2722.6271    2.1560691     0.226488    0.1313551 
    8600   -948.65225    43.876564   -904.77569    1571.4994    5293.6439    2.1935577   0.12898674    0.1229947 
    8700   -945.44285    47.148972   -898.29388    1688.7052    1008.5565    2.1757117   0.34369397   0.14016102 
    8800   -945.70415     49.01392   -896.69023    1755.5009   -7282.0242    2.1537473   0.33760185   0.13996159 
    8900   -947.21238    43.513727   -903.69865    1558.5039   -300.13473    2.1759854   0.13474047   0.12847864 
    9000   -946.67459    45.835898   -900.83869    1641.6756    8326.6802    2.1951695   0.19757096   0.12353168 
    9100   -945.22504    49.815837    -895.4092    1784.2226    -2733.497    2.1641584   0.13846636   0.12354369 
    9200   -944.27127    43.204093   -901.06718    1547.4139   -8570.0624    2.1493497  0.043339591   0.11454438 
    9300   -945.68281     44.98498   -900.69783    1611.1989    4119.8545    2.1861445   0.17574073   0.11948343 
    9400   -940.36684    48.188182   -892.17866    1725.9259    10461.476    2.1833495   0.13486459   0.13035449 
    9500   -946.51081     47.35476   -899.15605    1696.0758   -7945.2919    2.1582263   0.46890043   0.13361306 
    9600   -945.90642    45.740802   -900.16562    1638.2696   -5956.6523    2.1606049   0.29893297   0.14698186 
    9700   -940.19732    49.707762   -890.48956    1780.3518    8488.3127    2.1822901   0.38788987   0.14205727 
    9800   -942.81095    46.489451    -896.3215    1665.0835    5902.7307    2.1852518   0.27394741   0.13818595 
    9900   -946.93975    45.633161   -901.30659    1634.4143    -10862.17    2.1528949   0.18494969   0.12053752 
   10000   -943.66749    49.012406   -894.65509    1755.4466   -1135.7433    2.1628206    0.1989086   0.10734035 
   10100   -944.07986    49.799464   -894.28039    1783.6362    6630.3149    2.1889124   0.36298267   0.12905032 
   10200   -946.73151    44.660938   -902.07058    1599.5928    158.40842    2.1810949  0.050664786    0.1165231 
   10300   -943.83397    45.978184   -897.85578    1646.7718   -4068.9869    2.1625038   0.16869998   0.13761108 
   10400   -943.61785    49.301852     -894.316    1765.8135    1092.2616    2.1693985   0.11070881   0.13579623 
   10500   -951.80856    47.734612   -904.07395    1709.6807    3444.0088    2.1952748  0.039905251   0.11894484 
   10600   -944.33413    45.665443   -898.66869    1635.5706   -1268.0066    2.1705998   0.35033551   0.13260529 
   10700   -943.89223    48.096287   -895.79594    1722.6346   -2289.8767    2.1639125   0.24801954   0.13473505 
   10800   -949.64936    46.018944   -903.63042    1648.2317    1402.7121    2.1877589   0.15956847   0.10992819 
   10900   -946.84591    46.617402   -900.22851    1669.6663    127.20967    2.1812391   0.14141567   0.12092312 
   11000   -944.30937    48.503735   -895.80564    1737.2279   -1623.3683    2.1675172  0.015963151   0.11980567 
   11100   -946.87913     45.80342   -901.07571    1640.5124    -2935.153    2.1718903   0.37135143   0.10897029 
   11200   -947.35015    44.115132   -903.23502     1580.044     3001.777    2.1859898   0.45178175   0.13842174 
   11300   -941.51524    47.279815   -894.23543    1693.3915    1305.5176     2.168148   0.49959633   0.15800813 
   11400   -942.63125    45.081387   -897.54986    1614.6518    -2505.798    2.1638406   0.56275168   0.14839215 
   11500   -943.52085    41.808164   -901.71268    1497.4168    855.65975    2.1757302    5.1945768   0.15597212 
   11600   -948.50872    44.206591   -904.30213    1583.3198    4762.5479    2.1959288    6.0480965   0.14370988 
   11700   -942.06553    48.102474   -893.96306    1722.8562   -5514.3031    2.1467356    7.8299283    0.1511935 
   11800   -941.97538    45.288006   -896.68737    1622.0521   -6258.0849    2.1518884    6.2761617   0.16573879 
   11900   -945.63112    48.269344   -897.36178    1728.8329    12324.999    2.2018635    6.2767982     0.143914 
   12000   -947.88297    44.041809   -903.84116    1577.4179    3775.1108    2.1865712    4.4557515   0.15582967 
   12100   -950.81565    42.817495   -907.99815    1533.5674   -11501.035    2.1587709    6.3567283   0.13860666 
   12200    -943.3502    44.161671   -899.18853    1581.7109   -434.41716    2.1679259    5.0494736   0.14178291 
   12300   -941.72021    44.741147   -896.97906    1602.4656    8896.8458    2.1894958    5.8595192   0.18203665 
   12400   -946.43981     49.25572   -897.18409    1764.1613    -3181.131     2.167882    4.5983035   0.16564991 
   12500   -938.53677    51.241947   -887.29482    1835.3007   -4163.2691    2.1443086    6.2502657    0.1699651 
   12600   -938.51179    46.224459   -892.28734    1655.5925    3599.2344    2.1710616    7.3679289   0.16268359 
   12700   -948.05059     51.35528   -896.69531    1839.3599   -3303.3999    2.1682794    6.5512246   0.14239723 
   12800    -950.0763    51.506068   -898.57023    1844.7606   -4440.9067     2.165603    3.7711398   0.14123597 
   12900   -946.68982    48.914449   -897.77537    1751.9382   -3000.6715    2.1656439    5.5449971   0.13424856 
   13000   -940.74784    53.123279   -887.62456    1902.6832   -4247.0418    2.1427786    7.2407787   0.15274734 
   13100   -945.31033      49.7212   -895.58913    1780.8331    355.28139    2.1736441    7.1476432   0.15999563 
   13200   -946.99366    48.981008   -898.01265    1754.3221    1584.0746      2.18076    8.6775637    0.1676736 
   13300   -944.66129    45.281569   -899.37972    1621.8216   -5805.0735    2.1544615     6.470418   0.15475318 
   13400   -938.97668    50.078522   -888.89816     1793.631   -1961.6083    2.1540058    7.2535101   0.16295873 
   13500   -941.67517    49.562564    -892.1126    1775.1513     10275.46    2.1877691    3.5838547    0.1467529 
   13600   -942.75558    45.723998   -897.03158    1637.6678   -3009.6792    2.1586795     6.058126   0.15301891 
   13700   -944.90851    46.234713   -898.67379    1655.9597   -8903.0532    2.1515729    20.404838   0.12990319 
   13800   -946.48272    46.541217    -899.9415    1666.9376    8174.3288    2.1900415    13.153304   0.14883528 
   13900   -939.40592    50.539275   -888.86665    1810.1336    63.927586    2.1551725    14.636283   0.17149552 
   14000   -944.74398    50.258159   -894.48583     1800.065   -4602.2643    2.1576653    13.101217    0.1697445 
   14100   -942.54489    44.381836   -898.16305    1589.5964    5054.2325    2.1779213    13.748652   0.16094726 
   14200   -947.31629    49.888976   -897.42732    1786.8422    2652.9161    2.1823798    11.534316   0.14989539 
   14300   -935.19766    47.529108   -887.66855    1702.3203   -6389.8761    2.1374194    12.856843   0.17173862 
   14400   -944.51723    48.062949   -896.45428    1721.4405   -3074.9967    2.1637417    12.555221   0.16095034 
   14500    -944.1445    46.978277   -897.16622    1682.5915    5710.0719     2.188664    7.1561933   0.15403843 
   14600   -946.61204     47.32063   -899.29141    1694.8534    1791.6249    2.1776835    3.7713881   0.16455382 
   14700   -948.93501    40.286779   -908.64823    1442.9263   -9840.6632    2.1612353    7.4475089   0.16259477 
   14800   -946.73314    45.832124   -900.90102    1641.5405   -4783.9181    2.1661397    6.1623548   0.15025831 
   14900   -945.09095    49.142655   -895.94829    1760.1117    16276.537    2.2077067    6.2526654   0.16122948 
   15000   -942.99331    46.382175   -896.61113    1661.2413   -1308.7679    2.1639721    5.0713628   0.16761648 
   15100   -942.48528     45.32091   -897.16437    1623.2306   -12513.397    2.1326993    12.385936   0.13985755 
   15200   -949.26674    43.591831    -905.6749    1561.3013    10124.217    2.2055407    11.831866   0.13142921 
   15300   -948.88089    51.297746   -897.58314    1837.2992    5269.1708    2.1868581     11.86678   0.13612536 
   15400   -942.87684    46.421383   -896.45546    1662.6456   -5594.6304    2.1480684    13.317252   0.15417528 
   15500   -944.43043    47.987693   -896.44274    1718.7451   -3510.7818    2.1602386   0.38893806   0.15620568 
   15600   -950.22317    45.724573   -904.49859    1637.6884    8516.7095    2.2013827   0.29011473   0.13814376 
   15700   -942.90828      47.0452   -895.86308    1684.9884   -1739.4225    2.1589241   0.35428564   0.12787489 
   15800   -939.94932    43.640188   -896.30913    1563.0333   -3962.8731       2.1537   0.08572716   0.14324363 
   15900   -947.18201    45.533317   -901.64869    1630.8383    5093.2347    2.1869055   0.01741065   0.11637178 
   16000   -952.68656    46.990695   -905.69586    1683.0363    3305.2758    2.1960705  0.021545092   0.12780923 
   16100   -941.69978    45.745845   -895.95394    1638.4503   -5548.2002    2.1493206    0.3499437   0.14417728 
   16200   -945.88426    47.334142   -898.55012    1695.3373   -3614.8048     2.166424   0.11074256   0.13103843 
   16300   -944.77247    43.910916   -900.86155    1572.7298     9420.694      2.19976   0.21555924   0.14214292 
   16400   -941.01241    50.756945   -890.25547    1817.9297   -1632.2147      2.15921  0.039440268   0.14122975 
   16500   -944.48051    48.827888   -895.65263    1748.8379   -6361.5901    2.1574021   0.61860758   0.14689682 
   16600   -946.34582    46.799361   -899.54646    1676.1834    2185.1033    2.1764296   0.13615112   0.14281282 
   16700   -944.85856     47.43602   -897.42254    1698.9862    5874.3501    2.1880194   0.26201404     0.137285 
   16800   -940.91903    50.648044   -890.27099    1814.0293   -9619.3927    2.1406484  0.062911833    0.1482351 
   16900   -945.20945    45.021751    -900.1877    1612.5158   -4054.9447     2.161701   0.14573028   0.12356231 
   17000   -947.52615    49.695335   -897.83082    1779.9067    14482.507    2.2125495 0.0046134978   0.13599021 
   17100   -941.69809    45.632733   -896.06536     1634.399    2095.5285    2.1710226   0.17808134   0.15359377 
   17200   -935.97319    44.740512   -891.23268    1602.4429   -17643.978    2.1067285    0.4432066    0.1658262 
   17300   -946.09465    44.222195   -901.87245    1583.8786    8339.5321    2.1960864  0.012416527   0.13552347 
   17400   -943.43225    46.225895   -897.20635    1655.6439    11396.523    2.1989808   0.39331457   0.14100499 
   17500   -938.93323    42.772717   -896.16052    1531.9636    -5345.489    2.1487937   0.11975832   0.13428711 
   17600   -950.63968    44.929676      -905.71    1609.2181   -6504.6048    2.1693399   0.18058097   0.12448622 
   17700   -946.26942    45.987487   -900.28193     1647.105     5496.995     2.188233  0.089623561   0.12998844 
   17800   -941.96969    46.297522   -895.67217    1658.2093    4590.9571    2.1735295   0.12655699   0.14198329 
   17900   -947.83825    46.897827   -900.94042    1679.7101   -8273.8665    2.1548885   0.12746627   0.12794643 
   18000   -949.04051    45.330872   -903.70964    1623.5874   -251.13033    2.1802514   0.27372793   0.12797459 
   18100   -943.58419    48.872322   -894.71187    1750.4293    5343.4368     2.181953   0.24834803   0.13619938 
   18200   -945.40222     46.81822     -898.584    1676.8588   -2394.8069    2.1634689   0.19220101   0.13651796 
   18300   -944.74059    41.390766   -903.34982    1482.4671   -3404.1169    2.1687827   0.34565497   0.13682347 
   18400   -946.47843    46.732565   -899.74587     1673.791    8390.1562     2.195838   0.44196805    0.1271345 
   18500   -939.33784      44.6566   -894.68124    1599.4375    5320.1989    2.1741268   0.34560275    0.1333987 
   18600   -944.21918    45.074288   -899.14489    1614.3975   -12519.221    2.1405511   0.30930518   0.13653509 
   18700   -946.23304    48.233094   -897.99995    1727.5345   -8.6372185    2.1772863    0.1433965   0.15208113 
   18800    -935.9866    48.423633   -887.56297    1734.3589     12810.17    2.1842962   0.41255843   0.14833744 
   18900   -943.63751    48.024525   -895.61298    1720.0643   -3515.0475    2.1602404   0.24331737   0.14054609 
   19000    -945.0048      45.1739    -899.8309    1617.9653   -9837.2418    2.1477652   0.21679524   0.12704105 
   19100   -945.35803    49.358706   -895.99932    1767.8498    6523.3962    2.1886289   0.21907257   0.12630059 
   19200   -936.87187    48.664192   -888.20768    1742.9749    9342.6004    2.1769495  0.040499633   0.15197996 
   19300   -943.98206    45.779696   -898.20236    1639.6627   -9104.6976    2.1509167   0.53934449   0.13108138 
   19400   -942.39688    43.267863   -899.12902    1549.6979   -5220.7508    2.1527019    0.7386897   0.13142951 
   19500   -944.01505    50.105383   -893.90967    1794.5931    17477.897    2.2153903   0.28802586   0.14094269 
   19600    -947.5025    50.202012   -897.30049     1798.054   -1470.4246    2.1717537   0.18988083   0.12601058 
   19700   -945.63264    41.757506   -903.87514    1495.6024   -19013.864    2.1259384  0.074794458   0.14707492 
   19800   -944.66712    45.245653   -899.42147    1620.5352    7358.3417    2.1896862  0.014430454   0.11807869 
   19900   -947.29929    51.867598   -895.43169    1857.7093    9683.8684    2.1950377  0.051182824   0.12319208 
   20000   -944.88778    45.151098   -899.73668    1617.1486   -7381.7285    2.1555555   0.06466509   0.12945555 
   20100   -948.74963     44.44969   -904.29994    1592.0267   -4311.7795     2.169516  0.031938362   0.11239808 
   20200   -943.23483    46.981951   -896.25288    1682.7231    6248.8881    2.1832583   0.16119458   0.13713243 
   20300   -948.01117    49.843021   -898.16815    1785.1963   -162.24764    2.1745767   0.06454643   0.13353856 
   20400   -952.44775    46.427547   -906.02021    1662.8664   -6632.2784    2.1685445   0.37980919    0.1154448 
   20500   -941.08467    43.169177    -897.9155    1546.1634     2363.602    2.1716565    0.2588193   0.13905339 
   20600   -941.73518    45.823832   -895.91134    1641.2435    11076.804     2.190741  0.040952854    0.1308091 
   20700   -948.81586    46.266704   -902.54915    1657.1055   -5233.0337    2.1720374   0.15040233   0.12972049 
   20800   -940.67069    43.827041   -896.84365    1569.7257   -4204.3737    2.1542985   0.17857034   0.14716949 
   20900   -941.94416    48.008503   -893.93565    1719.4905    4469.6727    2.1789315  0.094181283   0.12618354 
   21000   -943.36596    44.070431   -899.29553     1578.443    3791.2469    2.1781092  0.073726212   0.12110128 
   21100   -945.96094    45.558673   -900.40227    1631.7465   -7669.2437    2.1547337  0.067845781   0.11951544 
   21200   -940.58935    49.923216   -890.66613    1788.0686   -2686.4717    2.1561094  0.020066984   0.13631761 
   21300   -944.14445    46.963231   -897.18122    1682.0526     15023.97    2.2082362   0.33654588   0.14353186 
   21400   -947.83464    47.876133   -899.95851    1714.7495   -5738.6717    2.1615429    1.1961198   0.14754268 
   21500   -939.04517    45.013739   -894.03144    1612.2289   -13855.125    2.1268874    1.2924972   0.15733592 
   21600   -939.97129    47.629296     -892.342    1705.9086    9104.9252    2.1860212   0.73911574   0.14492064 
   21700   -947.62515     47.55589   -900.06926    1703.2795    12673.626    2.2100256   0.36187906   0.14286778 
   21800   -945.14052    48.889739   -896.25078    1751.0532   -10883.539    2.1427486   0.69760419   0.13925892 
   21900   -939.79405     46.95346   -892.84059    1681.7027   -3121.9567    2.1519882    1.6989515   0.15261423 
   22000   -945.57622    44.490439   -901.08578    1593.4862    5802.1569    2.1936238    2.2139901   0.15880721 
   22100   -943.91173    48.017168   -895.89456    1719.8008    1858.0666    2.1725106    1.3640537   0.14045905 
   22200   -942.25597    48.584948   -893.67102    1740.1367   -6506.7742    2.1512692   0.47213509   0.15653024 
   22300   -944.04817    42.550201   -901.49797    1523.9939    385.93019    2.1722261   0.27570473   0.14828762 
   22400   -945.24855    49.032812   -896.21573    1756.1775    5987.8111    2.1835334    1.7705132   0.14048419 
   22500   -942.22062    48.553696   -893.66693    1739.0173    2488.6807     2.171332   0.96961318   0.14501927 
   22600   -948.11421    45.832152   -902.28206    1641.5415   -7340.3927    2.1611966  0.052300198   0.11862816 
   22700   -944.17751    46.871748   -897.30576     1678.776   -204.21654    2.1685309   0.16828839    0.1209068 
   22800   -943.86205    51.567989   -892.29406    1846.9783    6664.0897    2.1828604   0.31158992   0.14487836 
   22900   -946.39457    44.732336   -901.66223      1602.15    1282.3065    2.1783226   0.27676041   0.12839555 
   23000   -943.43914     44.80626   -898.63288    1604.7978    -7794.645    2.1516097   0.18435823   0.14788893 
   23100    -941.9472      48.9666    -892.9806     1753.806    1986.0447    2.1711452   0.18093216   0.15787889 
   23200   -949.48668     48.15254   -901.33414    1724.6494    9683.7889    2.2080534  0.056113732   0.13613463 
   23300   -946.97133     46.85361   -900.11772    1678.1264    -8027.676    2.1570765   0.28095642   0.14132608 
   23400      -941.77    46.378218   -895.39178    1661.0996   -12332.351    2.1384877   0.14065626   0.13939417 
   23500   -943.14263    42.585373   -900.55725    1525.2536    12503.629    2.2041842 0.0084851532   0.12232579 
   23600   -945.89171    43.783113    -902.1086    1568.1523    10716.395    2.2007222   0.10423075   0.13035231 
   23700   -941.80299    46.684139   -895.11885    1672.0566   -13266.225     2.134046   0.24030451   0.13406286 
   23800   -945.27763    46.483925   -898.79371    1664.8856   -3882.6067    2.1645171   0.21272677   0.14273432 
   23900   -951.66041    49.997884   -901.66252    1790.7429    5571.3291    2.2037176   0.10060778   0.14497168 
   24000   -943.24625    50.099242   -893.14701    1794.3732   -2330.9759    2.1642286   0.25734714   0.14172804 
   24100   -945.52465    47.105537   -898.41911    1687.1495     -4055.82    2.1590375  0.077584538   0.13286836 
   24200   -945.54388    44.267206   -901.27667    1585.4908    1407.6718    2.1786453   0.08955288   0.11908939 
   24300   -940.33003    47.842709   -892.48732    1713.5523    3908.7574    2.1721999 0.0051675091   0.13481564 
   24400   -945.41194    46.972932     -898.439    1682.4001   -319.87996    2.1724253  0.089275609   0.12010572 
   24500   -945.85381    44.143582   -901.71023     1581.063   -2418.2198    2.1673647  0.093397705   0.12581139 
   24600   -944.74656    51.298247   -893.44832    1837.3172    993.05655    2.1686613   0.11688663   0.13773794 
   24700   -945.03165    45.912099   -899.11955    1644.4049    3612.3874    2.1840649   0.13535928   0.14288792 
   24800    -943.9396    41.463748   -902.47585    1485.0811    133.76246    2.1720298  0.062164405   0.13029134 
   24900   -941.32711    46.765971   -894.56113    1674.9875   -2398.2448    2.1581516  0.088990319   0.13323394 
   25000   -945.53398    46.049481    -899.4845    1649.3254    3195.3839    2.1853574  0.089684888   0.11835427 
   25100   -947.26142       44.998   -902.26342    1611.6652    4179.8525    2.1854293   0.16689911   0.12675357 
   25200   -940.45025    45.788593   -894.66166    1639.9814   -7206.9116    2.1482411   0.11421642   0.13501311 
   25300   -942.81991    43.436456   -899.38345    1555.7363    1381.4312    2.1720406    0.1175812   0.13106907 
   25400   -946.30293    45.015541   -901.28739    1612.2934    10096.293    2.2027378   0.40488941   0.14124763 
   25500   -940.38829     47.16951   -893.21878    1689.4408   -1658.9788    2.1588595   0.20857095   0.14556841 
   25600   -946.29679     47.80316   -898.49364    1712.1358    -11937.07    2.1447897  0.077276144    0.1410229 
   25700   -945.46515    44.471858   -900.99329    1592.8207    5444.5155    2.1895104   0.12671459    0.1367999 
   25800   -942.33743    50.384951   -891.95248    1804.6062    11391.123    2.1918157  0.082491613   0.12869094 
   25900   -944.36196    47.428179   -896.93378    1698.7054   -6422.1783    2.1509022   0.13810679   0.11626052 
   26000   -949.54635    46.933741   -902.61261    1680.9964   -12563.403    2.1522591   0.19732323   0.12748646 
   26100   -945.91602    51.240236   -894.67578    1835.2394     8222.554    2.1891686   0.09545432   0.12690421 
   26200   -946.34051    50.869233   -895.47128    1821.9514    4016.1947    2.1828027   0.23687222   0.13512974 
   26300   -946.05725    42.825198   -903.23205    1533.8433   -4286.7346    2.1648554   0.16687469   0.12977839 
   26400   -939.74578    42.891198   -896.85459    1536.2072    984.80733    2.1641501   0.53028545   0.13939536 
   26500   -944.82714    50.285397   -894.54174    1801.0406    3602.2464    2.1788897   0.20883534   0.14649814 
   26600   -946.83776    43.429254   -903.40851    1555.4784    3435.1038    2.1844976   0.12276095   0.12604548 
   26700   -943.02253    45.577153   -897.44537    1632.4083   -5058.7511    2.1562322   0.22929885   0.14930083 
   26800   -943.51446    48.288083   -895.22638     1729.504    536.81769    2.1679022  0.011558657   0.12500877 
   26900   -949.18559    46.119342   -903.06625    1651.8276    4546.1094    2.1925128   0.32926043   0.11371797 
   27000   -946.29719    49.931115   -896.36608    1788.3515   -4395.1266    2.1638971   0.12379984   0.12908374 
   27100   -941.21562    45.298736   -895.91689    1622.4365   -4173.8797    2.1572532  0.080839825   0.13573857 
   27200   -944.81303    42.560435   -902.25259    1524.3605     5991.354    2.1852475  0.083297454   0.14652289 
   27300   -943.81991    47.489449   -896.33046    1700.8998     6415.491    2.1833419   0.33423802   0.14081941 
   27400   -942.79756    47.801028   -894.99653    1712.0595   -6213.8521    2.1548643   0.34328181   0.14503142 
   27500   -944.63512    41.985992   -902.64913     1503.786   -5988.5069    2.1551595  0.094198468   0.13069853 
   27600   -944.34219    47.398394   -896.94379    1697.6386    10648.183      2.19705  0.012269666   0.12844818 
   27700   -942.35797    50.374451   -891.98352    1804.2302    11648.967    2.1914727   0.27617158   0.14764505 
   27800   -944.93751    43.898746   -901.03876    1572.2939   -10814.994    2.1431647  0.096226962   0.12557145 
   27900    -942.7023    43.351538   -899.35077    1552.6949   -4877.5206    2.1600766   0.54916972   0.14249406 
   28000   -941.52899    49.735824   -891.79316    1781.3569    12691.416    2.1978635   0.27472753   0.14548782 
   28100   -948.41316    48.228102   -900.18505    1727.3557   -184.88592    2.1795452   0.36922839   0.14147247 
   28200   -947.60224    46.093805   -901.50844    1650.9129   -10452.349    2.1544987  0.032534471   0.14859034 
   28300   -944.76561    51.282965   -893.48264    1836.7698   -3257.7456    2.1651604  0.053032577   0.12790843 
   28400   -946.17881    46.498196   -899.68061    1665.3968    6313.9913    2.1896455   0.19596556   0.11834934 
   28500   -946.14498    44.059104   -902.08588    1578.0373    903.95111     2.177631  0.015822646   0.10910799 
   28600   -943.51716    49.419674   -894.09748    1770.0335   -6218.3909    2.1520375  0.043635343   0.11598649 
   28700   -945.92951    45.967659   -899.96185    1646.3948    2605.3996    2.1814675  0.083072168   0.13577329 
   28800   -946.13486    44.876385   -901.25848    1607.3094    7102.4998    2.1911993  0.095412803   0.12281455 
   28900   -941.06374    47.312917   -893.75082    1694.5771   -4730.2253     2.154924  0.023985589   0.15382978 
   29000   -947.36942    46.848315    -900.5211    1677.9368   -6026.3741    2.1646076   0.35256458   0.13598514 
   29100   -948.70699    48.217164   -900.48982     1726.964    5117.1432    2.1935132   0.26344938   0.11659379 
   29200   -940.75979    48.323324   -892.43647    1730.7662    3934.5636    2.1725857    0.1753328    0.1427148 
   29300   -943.83085    44.309483   -899.52137     1587.005   -9039.5799     2.151166   0.20760042   0.13268151 
   29400   -945.02727    43.829123   -901.19815    1569.8003   -3047.8919    2.1686954   0.22093188   0.12050388 
   29500   -945.94656    53.825164   -892.12139    1927.8222    11229.608     2.201761   0.17276764   0.12541133 
   29600   -942.44232    44.824152   -897.61817    1605.4386    1803.7331    2.1725515   0.14066771   0.13018779 
   29700   -946.12327    42.612467   -903.51081     1526.224    -15225.78    2.1393749   0.20828262   0.14084386 
   29800   -940.86354     45.04189   -895.82165    1613.2371    4958.3087    2.1827601   0.18988781   0.15789294 
   29900   -942.38873    47.235586   -895.15314    1691.8074    11955.491    2.2019318   0.13513723   0.12980813 
   30000   -946.08194    42.761422   -903.32052    1531.5591   -4332.7318     2.169826   0.21441588   0.13519364 
   30100   -941.76718    45.020796   -896.74639    1612.4817    -4912.971    2.1553114   0.10165645   0.13523615 
   30200   -942.33598     48.04694   -894.28904    1720.8672    4334.0619     2.179213   0.12653747   0.12166183 
   30300   -945.98086    43.441112   -902.53975    1555.9031    5575.7323    2.1913756   0.17190024   0.13021655 
   30400   -942.91466    46.921788   -895.99287    1680.5683   -4603.2983    2.1582005   0.14300971   0.13032232 
   30500    -941.9504    46.810012   -895.14039    1676.5649   -2371.5319    2.1594476   0.20583899   0.13973427 
   30600   -949.24955    46.955397   -902.29415    1681.7721    4105.4845    2.1913769  0.070602688   0.13643013 
   30700   -944.95982    49.559191   -895.40062    1775.0305    2080.2433    2.1736614   0.14433056   0.11880022 
   30800   -945.33648    49.725073   -895.61141    1780.9718   -5902.7707    2.1584924  0.093075426   0.11950996 
   30900   -946.10619    43.849793    -902.2564    1570.5406   -1172.8663    2.1755576   0.18674652   0.12685436 
   31000   -944.42719    49.146515   -895.28067    1760.2499    5317.0513    2.1804105   0.73789652   0.13089278 
   31100   -942.62991     49.06183   -893.56808    1757.2168    525.79794    2.1675991   0.27015863   0.14870625 
   31200   -945.44261    43.944869   -901.49774    1573.9458   -13418.634       2.1466     5.471366   0.14729052 
   31300    -943.1734    46.989474   -896.18392    1682.9925   -1058.5557    2.1697151    5.4879486   0.16015489 
   31400   -937.91232    47.522192   -890.39013    1702.0726    15485.912     2.198706    5.0586238   0.16957573 
   31500   -943.65527    43.987783   -899.66749    1575.4829   -2181.8783    2.1637951    7.1461887   0.15838893 
   31600   -946.15579    48.601026   -897.55477    1740.7125   -14181.393    2.1358349    5.2053277   0.15501853 
   31700    -942.4857    52.255413   -890.23028    1871.5994    4216.6934    2.1774723    4.4560221   0.17122458 
   31800   -946.98849    47.889925   -899.09856    1715.2435    9485.3408    2.2021331     2.273537   0.15636045 
   31900   -945.10004    45.637551   -899.46248    1634.5716   -6588.1865    2.1569938    4.4173645   0.16965514 
   32000   -940.53591    47.663924   -892.87199    1707.1489   -2333.6231    2.1539029     5.067541   0.16817786 
   32100   -948.24551    47.794448   -900.45106    1711.8238    3504.0339    2.1909786    4.0858128   0.15414606 
   32200   -947.13854    47.434402   -899.70414    1698.9283      849.363    2.1803304    3.8942765    0.1608321 
   32300   -938.11296    44.631359    -893.4816    1598.5334   -3052.1747    2.1521794    5.7101793   0.16601755 
   32400   -946.10103    45.424295   -900.67674    1626.9335   -1405.5785    2.1727115    6.9108383   0.14955882 
   32500   -946.65106     46.72403   -899.92703    1673.4853    2521.8377    2.1856181    5.9879311   0.16139527 
   32600   -944.55761    51.185929   -893.37168    1833.2943   -896.05493    2.1673494    6.0887195   0.14969812 
   32700   -946.92063    47.636309   -899.28432    1706.1598   -7464.1999     2.159797    7.0459496   0.13832431 
   32800   -947.54185    46.943777   -900.59807    1681.3558    1157.3333    2.1837651    3.8626087   0.15775233 
   32900   -940.14079    47.871189    -892.2696    1714.5724    6639.0107    2.1777993    8.4258282   0.16589649 
   33000   -941.59073    42.561632   -899.02909    1524.4033      -2854.8    2.1592941    5.5206828   0.16365583 
   33100   -944.31702    42.804308   -901.51271    1533.0951     -8138.06    2.1527575    4.4708385   0.15901545 
   33200   -943.23183    51.388761   -891.84307    1840.5591    5108.3611     2.180373    2.2009133   0.15070695 
   33300   -945.43716    49.137945   -896.29922     1759.943    7495.9075     2.195568    9.6782317    0.1478355 
   33400   -945.06297    43.259378   -901.80359     1549.394   -11329.362    2.1455973    7.0702032   0.17522301 
   33500   -940.05911     46.40299   -893.65612    1661.9868   -4277.8995    2.1475085    5.7964229   0.15867015 
   33600   -941.13196    47.522388   -893.60957    1702.0796    15393.283    2.2012098     6.023915   0.16867819 
   33700   -947.45015    47.288337   -900.16181    1693.6967    4075.2303    2.1863131    3.8481839   0.14860263 
   33800   -941.47065    45.158352   -896.31229    1617.4084   -7637.5696    2.1464991    6.0782304   0.16399617 
   33900   -939.31561    48.109812    -891.2058     1723.119   -926.35427    2.1600287    4.6881095   0.17529652 
   34000   -947.41703    46.518023     -900.899    1666.1069    7914.9016     2.196366    4.1786328   0.17522688 
   34100   -943.91601    46.392803   -897.52321     1661.622   -892.71679    2.1691963    7.1486206   0.16303052 
   34200   -939.30241    46.060903   -893.24151    1649.7345   -6302.3785    2.1474706    4.5043531    0.1830683 
   34300   -945.86485    43.367729   -902.49713    1553.2748    6232.1773    2.1919517    7.9711682   0.16928629 
   34400   -941.57621    44.606268   -896.96995    1597.6347    5423.6162     2.180947     4.420255   0.16389076 
   34500   -940.73606    46.397426   -894.33863    1661.7875   -2860.3057     2.155793    6.1213736   0.17561902 
   34600   -948.69854    46.195437    -902.5031     1654.553   -2491.1533    2.1770198    4.8623276   0.15947978 
   34700   -945.27192    46.965977   -898.30594     1682.151    2658.1104     2.179404    4.4480084   0.17055364 
   34800   -941.44579    47.750235   -893.69556    1710.2403    123.13576    2.1650414    4.2085592   0.15960877 
   34900   -947.69038    45.936651   -901.75373    1645.2843   -5038.6484    2.1631481    5.0367274   0.15253802 
   35000      -939.34    41.698712   -897.64129    1493.4966    799.94121     2.166245    5.7727824   0.17441016 
   35100   -943.77959     51.59069    -892.1889    1847.7914    8870.3403    2.1891765    7.5802556    0.1581931 
   35200   -944.08747    44.135287   -899.95218    1580.7659   -136.75621    2.1700528    6.3319825   0.16176371 
   35300   -941.26933    43.131504   -898.13783     1544.814   -11795.325    2.1354433    5.6514277   0.17724491 
   35400   -939.46827    48.337692   -891.13058    1731.2808    4635.3923    2.1680972   0.77854463   0.15409678 
   35500   -946.96645    49.816065   -897.15038    1784.2308    12662.018    2.2062946   0.71133615   0.13593487 
   35600   -946.66104    44.633501   -902.02754    1598.6102   -4934.3966    2.1654343   0.20023984   0.13498231 
   35700   -937.90077    45.052665    -892.8481    1613.6231   -9070.9925    2.1360986   0.33226231   0.13129944 
   35800   -942.22568    46.521382   -895.70429    1666.2272    7530.8583    2.1870432  0.081293299   0.13686234 
   35900   -946.50649    46.472414   -900.03408    1664.4733    5788.2332    2.1913785    0.3140249   0.12891906 
   36000   -942.66578    46.072037   -896.59374    1650.1333   -3942.3558    2.1577494   0.31110327   0.13015518 
   36100   -941.37089    50.351195   -891.01969    1803.3972   -4340.0383    2.1528004   0.76688893   0.14658327 
   36200   -947.60113    46.576451   -901.02468    1668.1996    7462.5646     2.197326   0.10707562   0.12441589 
   36300   -945.76937    47.464779    -898.3046    1700.0162   -442.81035    2.1731029  0.097118568   0.12722203 
   36400   -942.68221    48.469073   -894.21314    1735.9864    -6955.801    2.1487829   0.19437332   0.13629691 
   36500   -950.64861     46.30742   -904.34119    1658.5638    1484.1512    2.1878342   0.51613999   0.11410253 
   36600   -947.82278    47.768473    -900.0543    1710.8935   -45.911069    2.1783351   0.32267261   0.12386041 
   36700   -946.48445    50.565135   -895.91932    1811.0598   -3802.1848     2.163876   0.12685653   0.12597716 
   36800   -947.47586    46.113851   -901.36201    1651.6309   -1932.4146    2.1720969   0.11409589   0.10667592 
   36900   -947.94717     44.78325   -903.16392    1603.9736    2507.5191    2.1859154  0.091995871   0.12332331 
   37000   -944.04836    48.577891   -895.47047    1739.8839    2439.0391    2.1727834   0.43928985   0.11639234 
   37100   -945.45678    45.867024   -899.58976    1642.7904   -5407.4712    2.1587455   0.18756453   0.13876628 
   37200   -950.71849     45.89061   -904.82788    1643.6352   -625.24567    2.1836943   0.14813767   0.13597015 
   37300   -943.87645    48.923896   -894.95255    1752.2765    8753.2145     2.190095  0.062095946    0.1294377 
   37400   -939.76561    42.984242   -896.78137    1539.5397     560.3731    2.1670824   0.24850515   0.14292794 
   37500   -949.22615    47.594469   -901.63168    1704.6613   -12364.246     2.153088  0.022572793   0.12373155 
   37600   -945.11013    47.270634    -897.8395    1693.0627     5803.053    2.1892157  0.076670783   0.12723735 
   37700   -940.01679    47.392207   -892.62458     1697.417    8067.6074    2.1856244  0.028524493   0.13457855 
   37800   -943.40579    43.866716   -899.53907    1571.1467   -8572.3703    2.1501891   0.50725501   0.13145784 
   37900   -942.93006    45.301696   -897.62837    1622.5425   -2856.5757    2.1659103   0.23908107   0.14252666 
   38000   -936.54542     48.15569   -888.38973    1724.7622    10019.746    2.1861778   0.53587234   0.16367215 
   38100   -942.49374    45.461886   -897.03186    1628.2799     1286.485    2.1756364   0.30495342   0.13945223 
   38200   -943.45815    43.587601   -899.87055    1561.1498   -9444.3933    2.1480315   0.18792298   0.13274498 
   38300    -945.7628    50.972347   -894.79045    1825.6446    324.53235    2.1736818    0.1726014   0.12559728 
   38400   -943.43165      51.8178   -891.61385    1855.9257    4646.6921    2.1820267  0.067881458   0.12446535 
   38500   -946.78871    45.230294   -901.55842    1619.9851    429.42772    2.1761793  0.054302922   0.11963124 
   38600   -946.67751    47.424977   -899.25254    1698.5907   -6388.5891    2.1592295   0.27981852    0.1187232 
   38700   -944.20839    48.427353   -895.78104    1734.4922   -227.80623     2.173408   0.12287935    0.1269308 
   38800   -949.64269    46.371081   -903.27161    1660.8439    1882.1325    2.1874917   0.42403031   0.12670808 
   38900    -948.5839    45.396192   -903.18771     1625.927   -3866.5715    2.1737343  0.033987313   0.12459214 
   39000   -944.31934    47.026167   -897.29317    1684.3068   -689.26449    2.1666618   0.60338949   0.11694741 
   39100   -944.50877    47.078372    -897.4304    1686.1766    3858.8891    2.1773994  0.095621146   0.13405953 
   39200   -952.02104    45.532229   -906.48881    1630.7993    648.80356     2.192035   0.10447079    0.1080991 
   39300   -943.33955     45.26333   -898.07622    1621.1683   -3157.0427    2.1611886   0.16069024   0.12296953 
   39400   -943.37437    46.572121   -896.80225    1668.0445    1721.3325    2.1730457    0.2873192    0.1253514 
   39500   -946.28095    43.956321   -902.32463     1574.356     3028.427     2.182973   0.61857595   0.11623402 
   39600   -946.80405    44.273722   -902.53033    1585.7242    948.79029    2.1797865   0.15089653   0.13003965 
   39700   -942.24521    47.186684   -895.05852    1690.0559   -3393.1001    2.1554812   0.34572503   0.12846113 
   39800   -944.12965    45.269437   -898.86022    1621.3871   -362.21635    2.1684052   0.46044942   0.12770055 
   39900    -944.2782    42.831028   -901.44717    1534.0521    5816.7457    2.1832777   0.26615383   0.12340159 
   40000   -939.61414    48.698022   -890.91612    1744.1865   -868.53269    2.1572685   0.20072016    0.1260517 
   40100   -944.64511    48.487384   -896.15773    1736.6423    627.63245    2.1717082   0.25393227   0.12798353 
   40200   -944.86013    44.752175   -900.10795    1602.8606    1199.8263    2.1765205   0.12779778   0.12100613 
   40300   -943.50056    48.754909   -894.74565     1746.224    695.88132    2.1682826   0.34483133   0.12650628 
   40400   -940.79455    48.611617   -892.18293    1741.0918   -1086.5525    2.1573591   0.19039779    0.1372462 
   40500    -945.4223    45.189588   -900.23271    1618.5272    572.12932    2.1745799   0.21261826   0.12522482 
   40600   -945.46929    48.227727   -897.24156    1727.3423    4010.5586    2.1834177   0.36853593   0.12872343 
   40700   -942.14296    51.062417   -891.08054    1828.8706   -4632.0878    2.1533716   0.18203375   0.13355733 
   40800   -946.71413    45.804804   -900.90933     1640.562   -4851.9434    2.1628403   0.61403288   0.12573439 
   40900   -946.18054    46.337906   -899.84263    1659.6557    1175.8642    2.1748807   0.25914596    0.1267182 
   41000   -943.22208    48.198698   -895.02338    1726.3026    8059.8095    2.1872874   0.12434092   0.14319792 
   41100   -948.04016     49.26562   -898.77454    1764.5158   -7384.6976    2.1600949   0.14303799   0.12309105 
   41200   -944.57303    40.428849   -904.14418    1448.0148   -2289.1237     2.163721   0.13927804    0.1307805 
   41300   -946.90903     50.15836   -896.75067    1796.4906    6913.7668    2.1884303   0.25178655   0.12989821 
   41400   -943.28552    46.923675   -896.36185    1680.6359    5587.3323    2.1805397    0.1228946   0.12658902 
   41500   -947.11585    42.250468   -904.86538    1513.2585    -10359.45    2.1550515   0.16297837   0.12691007 
   41600   -946.26411    45.133929   -901.13018    1616.5337   -2885.6674    2.1704685 0.00064503162   0.13841166 
   41700   -947.14759    52.214267   -894.93332    1870.1257    8442.4574    2.1940638   0.11502516    0.1328246 
   41800   -946.45374    45.996751   -900.45699    1647.4368   -1241.0911    2.1680305  0.097850497   0.12119795 
   41900   -946.13725    42.374951    -903.7623    1517.7171   -9392.9602    2.1535554   0.23675002   0.13690125 
   42000   -938.73216    44.787972   -893.94419    1604.1427    3488.0342    2.1694562   0.40479861   0.14045362 
   42100    -942.7749    46.258715   -896.51619    1656.8194    8083.1433    2.1859388  0.050039958   0.13417808 
   42200   -947.04559    45.392841   -901.65275     1625.807   -3865.4685    2.1673277    0.1413599   0.12866678 
   42300   -945.62965    51.428544    -894.2011    1841.9839   -5586.9796    2.1568243   0.15315566   0.12715644 
   42400    -940.9906     46.85311   -894.13749    1678.1085    4464.3754     2.170978   0.22750084   0.13145034 
   42500   -944.56988    44.242557   -900.32732    1584.6079    2081.1177    2.1760267    0.0672256   0.12698151 
   42600   -943.84851    47.368069   -896.48044    1696.5525   -3284.4982    2.1616338   0.42391083   0.12560861 
   42700   -941.41675    50.633902   -890.78285    1813.5227   -4827.1773    2.1478716   0.14410952   0.15828025 
   42800   -946.26818    45.961176   -900.30701    1646.1626     3919.678    2.1835567   0.91395774   0.12606647 
   42900   -941.12196    44.479228   -896.64273    1593.0846    3084.9474    2.1723887   0.63839207   0.15287984 
   43000   -939.25626    46.087877   -893.16838    1650.7006   -4492.1399    2.1431585   0.15581024   0.14059682 
   43100   -946.92666    44.021938   -902.90472    1576.7062    1593.1119    2.1815187    1.2463404   0.14582036 
   43200    -947.6993    50.566698    -897.1326    1811.1157    5270.6413    2.1869356    1.8475732   0.14483108 
   43300   -940.80613    46.400828   -894.40531    1661.9094   -4118.1479    2.1483095    3.4668861   0.16389325 
   43400   -944.88667     40.88079   -904.00588    1464.2016   -4695.9014    2.1635077    3.8220557   0.15348943 
   43500   -947.62103    48.848513   -898.77252    1749.5766    9312.6961    2.1964227    3.5277933   0.16050058 
   43600   -942.77085    49.363421   -893.40743    1768.0187    5696.7427    2.1823515    9.7927518   0.15530636 
   43700   -941.80328    42.835832   -898.96745    1534.2242   -13567.937    2.1295513    4.5329835   0.17037272 
   43800   -947.12312      45.7924   -901.33072    1640.1177    -3834.728    2.1697696    3.9293198   0.15606193 
   43900   -945.59147    53.546325   -892.04514    1917.8352    11458.716     2.198147     4.092186   0.14636594 
   44000   -943.66492    46.771726   -896.89319    1675.1936    -3219.234    2.1582985    2.0349463    0.1611287 
   44100    -945.0698    43.323129   -901.74667    1551.6774   -12019.272    2.1512577    5.0323374   0.14535089 
   44200   -942.97308     45.96682   -897.00626    1646.3648    6468.8621    2.1889009    10.516285   0.15704974 
   44300   -941.72931    49.290524   -892.43878    1765.4078    2817.3024    2.1684429    8.5515734   0.12919574 
   44400    -945.8927    46.783561   -899.10913    1675.6175   -3997.4478    2.1561916     5.495664   0.14797867 
   44500   -944.67725    47.090984   -897.58626    1686.6283    738.99417    2.1728492     4.063301   0.15978625 
   44600   -938.65563       50.337   -888.31863    1802.8888     1436.845    2.1631471    4.8421951   0.16918639 
   44700   -945.13932    47.937133   -897.20218    1716.9343   -935.99129    2.1716964    4.3654001   0.15805405 
   44800   -947.78493    48.692139   -899.09279    1743.9759   -3999.9713      2.16094    3.3412999    0.1493478 
   44900   -942.88881    51.530353   -891.35846    1845.6304    435.80485    2.1679809    4.5291685   0.14149411 
   45000   -943.28283    47.247235   -896.03559    1692.2246    3090.9933    2.1744458    3.5361373   0.17002911 
   45100   -944.32284    44.247091   -900.07575    1584.7703   -7488.6789    2.1521348    5.0164573   0.15384073 
   45200   -945.24099    49.650487   -895.59051    1778.3004    1877.4226    2.1685223    3.4830062   0.15926027 
   45300   -941.76423    48.551288   -893.21294    1738.9311     10862.42    2.1947435    6.2367176   0.16623259 
   45400   -947.88208    44.429524   -903.45255    1591.3044   -5395.8228    2.1630714    4.7214389   0.16170503 
   45500    -943.6208    44.394523   -899.22628    1590.0508   -13847.246    2.1356425    3.7173448   0.17304157 
   45600   -945.42219    50.390114   -895.03208    1804.7912    7826.7007    2.1943184      6.25176   0.16041868 
   45700   -947.18442     47.89137   -899.29305    1715.2952    9466.1169    2.2005709     5.413372   0.15646216 
   45800   -947.72134    42.540029   -905.18131    1523.6295   -5842.0147    2.1675927    4.4753561   0.14407903 
   45900   -943.55387    47.238619   -896.31526     1691.916   -6304.0913    2.1564023    5.1111674   0.16924604 
   46000   -943.42811    47.601779   -895.82633    1704.9231    5914.1034    2.1867632    2.7870296   0.16399785 
   46100    -944.1556    41.320351   -902.83525    1479.9451    735.67926    2.1818979    5.5353887   0.17742996 
   46200   -941.89567    46.393568   -895.50211    1661.6494    -5673.009    2.1559592    3.8309707   0.16654825 
   46300   -946.50615    51.901008   -894.60515    1858.9059    1358.6363    2.1770253    5.2247956   0.14344184 
   46400    -949.3702    49.951599    -899.4186    1789.0851    1210.7444    2.1830632    5.9870192    0.1316695 
   46500   -945.64469    45.571587   -900.07311     1632.209   -4557.2969    2.1642203    4.1797058    0.1522044 
   46600   -941.70523    50.371538    -891.3337    1804.1258   -7910.1934    2.1455382    4.7702839   0.16618355 
   46700   -945.71554    48.268597   -897.44695    1728.8061    6144.3444    2.1866037    4.5615911   0.14455756 
   46800   -945.06645    46.197597   -898.86886    1654.6304    2618.2518    2.1802787   0.69363615    0.1521207 
   46900   -944.22097    53.914877   -890.30609    1931.0354   -13964.374    2.1326852    2.0882431   0.15441158 
   47000    -942.5462    46.482661   -896.06354    1664.8403   -1263.2748    2.1643409    7.9619243   0.15685917 
   47100   -945.08788    47.403803   -897.68407    1697.8323    12772.294    2.2019957    7.1998074   0.15609858 
   47200   -940.50333    44.546438   -895.95689    1595.4919    3502.7138    2.1651711     3.194765   0.17092749 
   47300   -937.91385    45.970055    -891.9438    1646.4807   -17361.029    2.1082732    5.0764973   0.15552243 
   47400   -944.61185    41.800965   -902.81089     1497.159    12795.498    2.2017909    6.1975189   0.16436277 
   47500   -943.62744     47.67587   -895.95157    1707.5768    11886.558    2.1959851    2.6760842   0.14877633 
   47600   -942.21282    45.510528   -896.70229    1630.0221   -6265.7919    2.1468545    3.8277599   0.16273607 
   47700   -946.23712    42.624089   -903.61303    1526.6403   -6037.0855    2.1602191    3.5534502    0.1441275 
   47800   -947.68997    47.410747   -900.27923     1698.081    6244.3928    2.1886535    5.3189876   0.15127588 
   47900   -943.23439    48.696627   -894.53777    1744.1366      4637.78    2.1738504    5.7465828   0.15695267 
   48000   -947.98879    47.778418   -900.21037    1711.2497   -7573.4518     2.154322    4.1927622   0.16387381 
   48100   -946.21007    44.657915   -901.55215    1599.4845    242.40164    2.1734985    4.7537092   0.14705896 
   48200   -942.72182    49.989293   -892.73253    1790.4352    2617.7441    2.1751535    3.2252684   0.16374558 
   48300   -946.13887    48.400818   -897.73806    1733.5418   -4228.9151    2.1597291    6.4641856   0.13329405 
   48400     -947.583     47.31222   -900.27078    1694.5521   -4967.5108    2.1637687    4.8589309   0.14274995 
   48500    -944.4653    46.326823   -898.13848    1659.2588    10066.575    2.1958169    3.0128174    0.1455691 
   48600   -938.80093    47.360755   -891.44017    1696.2905    1084.2496    2.1632252    4.7012588   0.18017902 
   48700   -940.69276    43.505414   -897.18735    1558.2062   -8476.0869    2.1419684      4.04284   0.15916957 
   48800    -949.3813    51.395122   -897.98618    1840.7869    1304.8442    2.1849637    4.8068283    0.1448475 
   48900   -946.91044    45.854498   -901.05594    1642.3418    7715.3564    2.1999733    3.2871083   0.15502349 
   49000   -947.51367    39.128893   -908.38478     1401.455   -4786.7531    2.1719153    4.7855731    0.1448994 
   49100   -945.55406    45.081985   -900.47207    1614.6732   -7191.1889    2.1558887    5.0430375   0.15212741 
   49200   -946.94253    50.206832    -896.7357    1798.2266    1835.1705    2.1825473    3.5186498   0.14842174 
   49300   -942.56372    45.823555   -896.74017    1641.2336    2669.4834    2.1769269    3.9429593   0.16286373 
   49400   -948.38835    42.807447    -905.5809    1533.2075   -4620.2472    2.1704291    3.3362177    0.1655731 
   49500   -944.59776    43.176218   -901.42155    1546.4156   -630.93717    2.1730883    2.8844971   0.15324153 
   49600   -939.49106    44.114608   -895.37645    1580.0253    8592.4041      2.18673    0.5549492   0.15391082 
   49700   -940.98375    44.093614   -896.89014    1579.2733     2119.723    2.1721895    14.415831   0.14456813 
   49800   -945.72679    40.508959   -905.21783     1450.884    -3007.632    2.1744184    13.055501   0.16555384 
   49900   -942.13621    45.550597   -896.58561    1631.4572   -4338.5355    2.1611881    10.850359   0.15453755 
   50000   -941.99489    47.057759   -894.93713    1685.4383    8370.1716    2.1867986    11.595375   0.15747902 
   50100   -950.24399    47.570773   -902.67322    1703.8126     280.6175    2.1859314    19.626335    0.1278216 
   50200   -946.06924    45.914706   -900.15454    1644.4983   -6455.8289    2.1581418    20.221414   0.12849832 
   50300   -946.54348     51.29058    -895.2529    1837.0426   -2529.6955    2.1680583    18.996201   0.14256796 
   50400     -943.917    44.796289   -899.12071    1604.4406    8828.2546    2.1910868    18.847212    0.1370143 
   50500    -949.7715     46.36256   -903.40894    1660.5388   -4365.1355     2.172016    18.252368   0.13490019 
   50600   -941.44176     48.55958   -892.88218    1739.2281   -11571.046    2.1353764    17.927638   0.16001248 
   50700   -944.80429    47.907543   -896.89675    1715.8745    11054.301    2.1989824    19.041715   0.13735894 
   50800   -944.25894    44.780218   -899.47873     1603.865    11171.884    2.1985238    18.755748   0.14171065 
   50900   -946.05656    51.748817   -894.30774    1853.4549   -16695.566    2.1300869    18.522854   0.14759494 
   51000   -939.65756    47.407567   -892.24999    1697.9671    -4678.225    2.1473544    19.127692   0.15396126 
   51100   -947.24875    48.596097   -898.65266     1740.536    12449.113    2.2083822    19.042424   0.14690881 
   51200   -943.85098     44.88193   -898.96905     1607.508    2520.3348    2.1759134    20.792537   0.13813531 
   51300   -938.92924    47.389706   -891.53953    1697.3274   -7282.1297    2.1408568    18.392275   0.14124596 
   51400   -947.09048    45.762666   -901.32781    1639.0528     462.3195    2.1827876    16.929679   0.13155089 
   51500   -946.67178    46.915102   -899.75667    1680.3288    1454.2479    2.1808219    17.845477   0.12604231 
   51600   -943.73497     48.45711   -895.27786    1735.5579   -3696.8199    2.1617766    19.786323   0.14613619 
   51700   -944.59054    47.058059   -897.53248     1685.449   -3264.3375     2.162531    18.268074   0.13635167 
   51800   -949.83957    46.846182   -902.99339    1677.8603    3146.2674    2.1914357    17.420103   0.12765662 
   51900   -945.48051     48.91881    -896.5617    1752.0944    2961.4418    2.1790493    18.605784   0.13504759 
   52000   -944.10019    47.086878   -897.01331    1686.4812   -7345.2569    2.1527922    19.204458   0.13562286 
   52100   -949.14648    43.069566   -906.07691    1542.5957    250.77705    2.1846756    18.565587   0.13143144 
   52200   -947.78781    49.663112    -898.1247    1778.7526    3982.1967    2.1866617    19.132681   0.11117971 
   52300   -940.33666    43.575714   -896.76094    1560.7241    108.01879    2.1668949    19.874037   0.12974314 
   52400   -947.45079    44.725992   -902.72479    1601.9228   -8865.5483    2.1576934    19.898129   0.12264474 
   52500   -951.23619    48.929765   -902.30643    1752.4867    4064.1202    2.1923995    19.344648   0.12375406 
   52600   -943.78987    49.576501   -894.21337    1775.6505    10219.582     2.191095    16.169763   0.13624801 
   52700   -945.12143    45.873501   -899.24793    1643.0224   -13753.648    2.1409932    18.762308   0.13089387 
   52800   -944.56223    44.276954   -900.28527    1585.8399   -5424.4916    2.1572351    17.492515   0.13975829 
   52900   -945.14378    53.263393   -891.88039    1907.7016    16187.489    2.2071472    19.450997   0.13332934 
   53000   -943.87652    50.543439   -893.33308    1810.2827    189.94167    2.1656509    18.360764   0.13416401 
   53100   -945.56367    45.509776   -900.05389    1629.9951   -11548.409    2.1440758    18.431612   0.13260939 
   53200   -944.69661    47.120624   -897.57598    1687.6899    3122.4209    2.1760719    16.732076   0.11877157 
   53300   -943.06319    54.077581   -888.98561    1936.8628    2884.5849    2.1728962    19.523836   0.13451665 
   53400   -944.84016    46.502791   -898.33737    1665.5613   -2280.2178     2.166556    16.541038   0.13335066 
   53500   -945.90469    46.341432   -899.56325    1659.7821    -7061.552    2.1555939     18.38029   0.12125194 
   53600   -945.59959    51.645673   -893.95391    1849.7607    2926.8105    2.1744322     16.42281    0.1333628 
   53700   -942.20393    49.071302   -893.13263    1757.5561    3050.9378    2.1709852    18.448118   0.14975596 
   53800   -945.54462    43.875018   -901.66961     1571.444    -2639.369    2.1679255    18.589359   0.14435501 
   53900   -947.25268    48.588243   -898.66444    1740.2547   -2387.6355    2.1697347     19.03118   0.13503783 
   54000   -941.93572    47.288807   -894.64692    1693.7136    4631.5768    2.1750978    18.599567   0.12331995 
   54100   -946.68544    45.377566   -901.30788    1625.2599   -2400.5514    2.1669488    19.237031   0.12379699 
   54200   -943.05719    40.394676   -902.66251    1446.7908   -3794.9899    2.1643081    16.607679   0.13019524 
   54300   -942.64336    45.919128   -896.72424    1644.6566    8904.3594    2.1938293    17.992999   0.12756076 
   54400   -946.99265    48.863677   -898.12897    1750.1197   -1162.5862    2.1757911    18.693912   0.12583133 
   54500   -947.57057    40.761947   -906.80862    1459.9451   -11964.972     2.152168    19.040369   0.12229448 
   54600   -944.69917     44.40895   -900.29022    1590.5675    55.731066    2.1730066    17.854706   0.14056368 
   54700   -941.35799    46.092067   -895.26592    1650.8507    16714.097    2.2078081    20.606661   0.15494167 
   54800   -946.99529    45.757266   -901.23802    1638.8593   -5164.4041    2.1653477    20.030803   0.13004966 
   54900   -949.08196    44.746182   -904.33578     1602.646   -12984.464    2.1507002    20.186365   0.12616607 
   55000   -944.47584    49.925198   -894.55064    1788.1395    3923.2482    2.1744758    14.153724   0.12790467 
   55100   -944.19818    48.959988    -895.2382    1753.5692    6246.2465    2.1858359     14.11223   0.13583494 
   55200   -947.50948    47.780297   -899.72918    1711.3169   -4972.8831    2.1651934    18.233134   0.12474661 
   55300   -948.14847    43.602198   -904.54627    1561.6726    -4123.595    2.1702815    18.405249   0.13708567 
   55400   -949.78267    42.337111   -907.44556    1516.3618    6490.9793    2.1995726    18.690065   0.12739572 
   55500   -943.76247    45.022874    -898.7396    1612.5561     148.1519    2.1730022    18.136802   0.13342624 
   55600    -945.9065    47.653689   -898.25281    1706.7823   -6434.4317    2.1581233    19.260409   0.14130465 
   55700   -941.74586    44.808999   -896.93686    1604.8958    2323.9111    2.1749942    21.486367   0.15681092 
   55800   -944.00171    42.867927   -901.13378    1535.3737    3590.6082    2.1847397    19.822783   0.14094589 
   55900   -947.99858    42.788004   -905.21058    1532.5111    529.21658     2.181404    21.834175   0.13476587 
   56000   -944.60104    44.932845   -899.66819    1609.3316    117.13002    2.1739048    16.579037   0.12711744 
   56100   -942.93153    46.153218   -896.77832    1653.0409   -1244.9472    2.1696126    15.433133   0.14489608 
   56200   -942.89501    45.651259   -897.24375    1635.0625   -234.33416    2.1710217    19.935034   0.12844195 
   56300   -953.39054    47.594744    -905.7958    1704.6711    1057.8283    2.1950338    17.771311   0.12240635 
   56400   -945.68678    47.084222   -898.60256    1686.3861   -166.27058     2.175097     22.34618   0.14017794 
   56500   -941.11931     43.99236   -897.12695    1575.6468   -5259.1972    2.1553504    16.999334   0.13582048 
   56600    -946.4458    44.130482   -902.31532    1580.5938    2047.7738    2.1782905    18.895743   0.12885195 
   56700    -949.1769    45.510715   -903.66619    1630.0288    9369.7114    2.2039871    19.915801   0.12409703 
   56800   -944.45661    47.897123   -896.55949    1715.5012   -4158.1792    2.1624697    20.548885   0.13775907 
   56900   -945.49136       46.915   -898.57636    1680.3252   -9781.9265    2.1476431    19.839196   0.13298765 
   57000   -952.37335    48.282957    -904.0904    1729.3204    3891.3542    2.1947434    19.837159   0.12192451 
   57100   -944.35802    47.456315   -896.90171    1699.7131    9264.8554    2.1942496    16.653129   0.12343176 
   57200   -942.02453     45.98759   -896.03694    1647.1087   -5695.4427    2.1512577    17.788244   0.12627422 
   57300   -945.73305     45.60453   -900.12852    1633.3889   -8256.4149    2.1524146    19.472282   0.13534027 
   57400   -944.72418    45.422339   -899.30184    1626.8634    9487.1693     2.197221    20.425308   0.14795758 
   57500   -941.95262    51.476823    -890.4758    1843.7131    1108.4614    2.1661918    21.137856   0.13350615 
   57600   -941.60005    43.167328   -898.43273    1546.0972   -4955.6954    2.1550848    18.407292   0.12279276 
   57700   -946.46098    46.873136   -899.58785    1678.8257    759.98541    2.1768905    17.370665   0.14472618 
   57800   -940.89954    48.536228   -892.36331    1738.3917    7005.2546    2.1820699    19.406713   0.14189055 
   57900   -942.06328    47.812844   -894.25044    1712.4827   -3363.3305    2.1575306    17.477031   0.15813605 
   58000   -948.72523    48.044805   -900.68043    1720.7907   -4735.4411    2.1667566    19.324443   0.13862697 
   58100   -942.37017    46.166636   -896.20353    1653.5215    3761.1995    2.1769958    18.716006   0.12680024 
   58200   -939.87063    48.134501   -891.73613    1724.0033    1925.7681    2.1643321    17.204795   0.14027746 
   58300    -946.9204    45.050447   -901.86996    1613.5436    1092.4551      2.18136    18.704796   0.12970802 
   58400   -944.90572     46.14366   -898.76206    1652.6986   -2372.0138    2.1690171    19.962772   0.12032802 
   58500   -941.56654    47.610837   -893.95571    1705.2475    1895.9088     2.166383    20.528689    0.1479536 
   58600   -947.21578    44.268046   -902.94773    1585.5209    2194.9803    2.1818271    19.061521   0.12808107 
   58700   -943.56468    42.548933   -901.01574    1523.9485   -1054.1173     2.170698     18.27935    0.1516139 
   58800   -942.27803    46.795193   -895.48284    1676.0341    2429.0132    2.1721125    17.910254   0.16893509 
   58900   -946.18488    45.204578    -900.9803     1619.064     1663.284    2.1819865    19.009658   0.13270202 
   59000   -949.54231    46.624898   -902.91741    1669.9348   -1300.2264    2.1787622    20.158878   0.14090035 
   59100   -945.69856     50.09484   -895.60372    1794.2155   -3257.4623    2.1677058    19.447368   0.12477533 
   59200   -945.81378    45.985758   -899.82802    1647.0431    1396.1173    2.1807513    18.549033   0.13191171 
   59300   -952.19838    48.848408   -903.34997    1749.5728    1173.3061    2.1907573    20.301266   0.12280016 
   59400   -941.89304    47.911984   -893.98106    1716.0335   -8413.0173    2.1447852    17.693235   0.14285026 
   59500   -946.04971    46.858032   -899.19167    1678.2848   -2489.9403    2.1663852    18.627674   0.12882914 
   59600   -948.13207    48.430421   -899.70165     1734.602    11066.228    2.2063492    20.040925   0.14160992 
   59700   -940.27815    49.811227   -890.46692    1784.0575   -3665.7654    2.1543745    16.781593   0.15882392 
   59800   -947.52468    49.845599   -897.67908    1785.2886   -12039.794    2.1455909    21.151959   0.13219997 
   59900   -945.63936    46.110552   -899.52881    1651.5127    3824.1955    2.1846139     16.81311   0.13903131 
   60000   -943.86553    49.592707   -894.27282    1776.2309    8407.7157    2.1931641     19.45195    0.1278259 
   60100     -940.969    47.241671   -893.72733    1692.0253   -8681.1113    2.1433198    19.737001   0.12680642 
   60200   -944.42264    42.157622   -902.26502    1509.9331   -3182.1862    2.1680148    20.042725   0.13799609 
   60300   -944.46251    47.888623   -896.57388    1715.1968    8664.4424    2.1960826    18.277782   0.14954726 
   60400   -945.24963    50.065886   -895.18375    1793.1785    724.01208    2.1717671    20.319374   0.13878619 
   60500   -948.15199    43.088303   -905.06368    1543.2668   -7183.6168    2.1677712     18.94813   0.15947179 
   60600   -940.99342     41.09844   -899.89498    1471.9971    3172.9625     2.172965     18.90512    0.1350911 
   60700   -944.28223    49.238122    -895.0441     1763.531    4107.8012    2.1846798    21.890257   0.13578828 
   60800   -945.97616    44.036436   -901.93972    1577.2255   -1365.0063    2.1746003    19.726758   0.14801578 
   60900    -947.8883    44.899267   -902.98904    1608.1289   -6227.4382    2.1671923    18.720053   0.13051708 
   61000   -942.44994    46.950428   -895.49951    1681.5941    3057.8777    2.1725974    19.846825   0.14288461 
   61100   -944.60544    45.646789   -898.95865    1634.9024    3135.8333     2.181457    20.601565   0.12361632 
   61200   -948.08985    43.475025   -904.61482    1557.1177   -1963.0071    2.1756748    21.275874   0.12558939 
   61300   -943.33641    48.713903    -894.6225    1744.7553   -3985.3942    2.1582211    20.806871   0.13536079 
   61400   -943.71538    47.810948   -895.90443    1712.4148    2577.2706    2.1748747    29.338117   0.16496352 
   61500   -944.27639    43.717708   -900.55869    1565.8097    2607.0275    2.1778281    35.997602   0.15837233 
   61600    -945.6547    43.559548   -902.09515    1560.1451   -2993.4632     2.172442    31.366036   0.16769487 
   61700   -942.82586    49.672921   -893.15294    1779.1039   -6568.8582    2.1500957    32.438807   0.16103889 
   61800   -944.00201    47.545247   -896.45677    1702.8983    5039.2956    2.1786297    34.187718   0.14339713 
   61900   -945.93472    46.482143   -899.45258    1664.8218    4318.4503    2.1800492    26.372115   0.15670961 
   62000   -938.23641    47.518411     -890.718    1701.9371   -3930.2849     2.153522    33.657035    0.1650749 
   62100    -943.1211     49.20248   -893.91862    1762.2544   -1819.4842    2.1654951    30.603795    0.1581858 
   62200    -948.3908    49.757018   -898.63379    1782.1159    272.37591    2.1758835    31.149002   0.14146764 
   62300   -944.08524    47.079961   -897.00527    1686.2335    3117.3925    2.1725428    31.438574   0.13595202 
   62400   -937.93317    49.472986   -888.46018     1771.943   -1861.6127     2.144656      32.0797   0.15150337 
   62500   -940.41328    42.102377    -898.3109    1507.9544    5622.5528    2.1770578    37.896941   0.14276357 
   62600   -944.27985    46.774421   -897.50543    1675.2901    5321.5327    2.1811419    35.231949   0.15345119 
   62700   -943.21512    51.084957   -892.13017    1829.6779   -4612.2348    2.1519589    32.742232   0.14819349 
   62800   -939.65391      46.4739   -893.18001    1664.5266   -9411.2905    2.1374739    34.222441    0.1701761 
   62900   -944.17473    45.696824    -898.4779    1636.6945    9645.5688    2.1937517    38.180769   0.14579318 
   63000   -943.06146    48.026323   -895.03514    1720.1287    10010.538    2.1930414    30.112253   0.15891743 
   63100   -942.97681    47.288576   -895.68824    1693.7053   -13243.399    2.1353322    36.081884   0.14961939 
   63200   -944.88092    39.874113   -905.00681    1428.1461    656.04742    2.1757322    31.972269   0.15267881 
   63300   -941.73986    44.676977   -897.06288    1600.1673    6937.1095    2.1942335    34.103452   0.15487636 
   63400   -939.25472    44.040056   -895.21466    1577.3551    583.87932    2.1645982    33.453991   0.14134799 
   63500   -939.40012    42.366287   -897.03383    1517.4067   -7859.2612    2.1418263     42.46969   0.15626694 
   63600   -949.08751    45.460919   -903.62659    1628.2453    3522.8234    2.1940496    49.807897   0.14992209 
   63700   -944.73711    50.045258   -894.69185    1792.4396     1776.041    2.1765874    45.289698   0.15453874 
   63800    -943.4718    47.142247   -896.32955    1688.4643   -10586.537    2.1508916    56.732292   0.16244731 
   63900   -945.18772    43.542377   -901.64535    1559.5301    -5441.558    2.1625298    44.814993   0.14802918 
   64000   -947.29643    47.540059   -899.75637    1702.7125    12201.075    2.2087567    57.999809   0.15056923 
   64100   -939.16922    45.640804   -893.52841    1634.6881    1221.0086     2.161837    93.208164   0.16003873 
   64200   -944.49504    45.915997   -898.57904    1644.5445   -9131.7364    2.1503057    107.52532   0.13724866 
   64300    -945.6584    47.918682   -897.73972    1716.2734   -2356.9752    2.1742741    81.286955   0.15289403 
   64400   -940.07029    52.917387    -887.1529    1895.3089    1905.2674    2.1610404    89.308166   0.16734303 
   64500   -942.30601     46.58453   -895.72148    1668.4889   -303.80495    2.1705617     81.11423    0.1689746 
   64600   -939.83964    41.728605   -898.11104    1494.5673    1336.9521     2.166705    82.602737   0.16352773 
   64700   -943.72769    48.015729   -895.71196    1719.7493   -2054.1564    2.1664834    75.686365    0.1616116 
   64800   -940.88923    54.485304   -886.40392     1951.466   -1662.9995    2.1519737    81.446389   0.15852804 
   64900   -945.36521    49.267008    -896.0982    1764.5656     5258.844    2.1821808    79.829851   0.15439308 
   65000   -942.76107    45.026947   -897.73413    1612.7019    837.76986    2.1662252     66.62356    0.1360656 
   65100   -940.70397    46.258393   -894.44557    1656.8079   -1939.1631    2.1559567    65.962857   0.14867515 
   65200   -936.88234    50.628311   -886.25403    1813.3225    2897.7732    2.1648212    63.560671   0.14945541 
   65300   -944.19146    48.234228   -895.95723    1727.5751    7410.7467    2.1855373    60.426878   0.13995176 
   65400   -944.33941    46.787188   -897.55222    1675.7474   -10247.308    2.1431658    61.632796   0.13712217 
   65500   -946.54499      47.4524   -899.09259    1699.5729   -8515.1579    2.1541811    64.260562   0.14005909 
   65600   -951.59017    46.603436   -904.98673    1669.1661    17573.687    2.2259974    57.428715   0.11535998 
   65700   -943.83733    48.215097   -895.62224    1726.8899   -1433.0465     2.162314    58.416598   0.12751197 
   65800   -945.84438    47.899188   -897.94519    1715.5752   -14266.005     2.138764     64.96164    0.1383317 
   65900   -944.66642    44.454032   -900.21239    1592.1822    3335.4945      2.18344    56.980639   0.12591369 
   66000   -949.45075    42.024961   -907.42579    1505.1817    9549.4159    2.2072726    60.516021   0.12937865 
   66100   -942.60304    45.331165   -897.27187    1623.5979   -7337.1164    2.1489862    57.253324   0.13322989 
   66200    -940.6203    42.712872   -897.90743    1529.8202    425.80198    2.1665473    58.262612   0.14264652 
   66300   -939.71374    41.445838    -898.2679    1484.4396    9313.1293    2.1873883    55.448681   0.15158891 
   66400   -944.44686    41.301815   -903.14504    1479.2812   -2161.8106    2.1707946    59.317876   0.14436318 
   66500   -949.82318    42.561114   -907.26206    1524.3847   -3710.8544     2.177837    63.403461   0.14147955 
   66600    -944.3203    44.944216   -899.37608    1609.7388    2878.4198    2.1838294    59.041319   0.13230045 
   66700   -941.87388    44.263736   -897.61014    1585.3665    2777.0994    2.1764035      56.9202   0.13483109 
   66800   -946.92384    50.240136    -896.6837    1799.4195   -7337.1737    2.1615022    58.380554    0.1412008 
   66900   -948.12466    41.182197   -906.94247    1474.9969    2815.2406    2.1898946    59.723696   0.12554836 
   67000   -945.89646    43.967355    -901.9291    1574.7512    1280.9824    2.1791456    59.503663   0.14135539 
   67100   -944.52579    47.014287    -897.5115    1683.8812   -2132.7374    2.1672082    58.209572   0.14094677 
   67200   -939.23419    42.467479   -896.76671    1521.0311    582.38207    2.1677242    62.009619   0.13964243 
   67300    -949.7102    43.324855   -906.38534    1551.7392    6173.3583    2.2012688    57.475013    0.1478998 
   67400   -947.98106    48.826116   -899.15495    1748.7744   -3072.1641    2.1703155    57.767845   0.13434114 
   67500   -945.88058    48.791538   -897.08904     1747.536   -5801.9084    2.1610595      61.0029   0.14227932 
   67600   -946.13933    45.828508   -900.31082     1641.411    1961.0686    2.1811286    55.988374    0.1273576 
   67700     -948.135    42.377747   -905.75725    1517.8172     7860.553    2.1999767    59.793001   0.11472832 
   67800   -944.31695    47.894216   -896.42273    1715.3971    -7615.415    2.1494749    57.015159    0.1229231 
   67900   -946.89652    48.736948   -898.15957    1745.5807   -5334.3963    2.1618098     58.87678   0.12237299 
   68000   -948.84886     46.45088   -902.39798    1663.7021    8169.9806    2.2030341    58.705077   0.11967574 
   68100   -949.21701     48.98043   -900.23658    1754.3014    1117.4217    2.1833051    61.955836   0.13234832 
   68200   -940.26533    45.571612   -894.69372    1632.2099   -9057.9517    2.1363456    62.657153    0.1299191 
   68300   -946.73986    47.818733   -898.92113    1712.6936   -2352.0131    2.1719787    56.469983   0.13554125 
   68400   -948.43526    49.365961    -899.0693    1768.1097    10378.656    2.2054174    58.762316   0.12991909 
   68500   -941.45905    52.360734   -889.09831    1875.3716   -5011.4298    2.1492173    58.830996   0.12887363 
   68600   -941.81409     44.78999    -897.0241     1604.215   -5508.6453    2.1550963    60.792565   0.13861334 
   68700   -944.94778    45.966727   -898.98105    1646.3615    4568.0497    2.1848274    63.290086    0.1270714 
   68800   -943.72059    47.014732   -896.70585    1683.8972    5668.5434    2.1860416    59.658696   0.13393218 
   68900   -936.33246    46.729638   -889.60283    1673.6862   -4669.5001    2.1452867    62.653449   0.15981989 
   69000   -945.24426    45.705777   -899.53848    1637.0152    -162.3068    2.1746017    65.016089   0.13272542 
   69100   -944.97133    46.450681   -898.52065    1663.6949    3324.8019    2.1843632     57.21413   0.15366454 
   69200   -941.21888    48.504904   -892.71397    1737.2698    708.67863    2.1671222    58.380261   0.13202904 
   69300   -940.07467    47.652413   -892.42226    1706.7366   -4383.9478     2.155137    62.024999    0.1384277 
   69400    -943.3229    43.616035   -899.70686    1562.1682    2597.0853    2.1802379    60.308619   0.15152645 
   69500   -946.91032    49.483156   -897.42716    1772.3072    3627.5663    2.1835928    61.484261    0.1152757 
   69600   -942.56681    48.767061   -893.79975    1746.6593   -1764.4472    2.1612797    56.543194   0.14923358 
   69700   -938.76392    52.807053   -885.95687    1891.3571   -3693.4726    2.1448076     62.61252   0.13579485 
   69800   -947.77852    50.316827   -897.46169    1802.1663    6795.0408    2.1910914    59.867866   0.12411161 
   69900   -944.00789    45.993271   -898.01462    1647.3122    1016.8414    2.1756546    58.143474   0.15093416 
   70000    -946.7045    47.550041   -899.15446      1703.07    -7095.795    2.1583236    59.171263    0.1417366 
   70100   -950.04057    43.754369    -906.2862    1567.1228    385.63797    2.1874769    60.736367   0.13723919 
   70200   -948.46206    43.958914   -904.50315    1574.4489    5998.1764    2.1986838    61.206545   0.13453053 
   70300   -946.20637    47.277038   -898.92933     1693.292    3.2241408    2.1754051    60.171349   0.14781817 
[...]
  186800   -947.86046    46.160256    -901.7002     1653.293    2295.1634    2.1900849    65.519352   0.14845265 
  186900   -946.60017    47.495733   -899.10444    1701.1249   -4649.5797    2.1678578    60.118243   0.15977647 
  187000   -942.95177    48.267924   -894.68384     1728.782    -3090.541    2.1604295    63.619009   0.15741347 
  187100   -947.99634    44.293374   -903.70297     1586.428    4409.5535     2.193253     63.49925   0.14768984 
  187200   -950.56208    49.478432   -901.08365     1772.138    -3818.533    2.1751246    62.627038   0.12965871 
  187300    -943.2383     47.04979   -896.18851    1685.1528   -3751.3688    2.1597164    57.927751   0.12685437 
  187400   -948.48369    48.841987   -899.64171    1749.3428    1020.4978    2.1824047    64.771519   0.12189091 
  187500   -950.88147    46.917481   -903.96399     1680.414    6141.2479    2.2025867    53.907066   0.13274619 
  187600   -942.92551    47.250866   -895.67465    1692.3547   -7769.6197    2.1498459    58.002072   0.14863768 
  187700   -943.00615    45.123268   -897.88288    1616.1518   -8019.3848    2.1509966    58.274013   0.16004378 
  187800   -946.42625    45.445748    -900.9805    1627.7019    9304.6688    2.2032319    63.566932     0.136432 
  187900   -944.59359    53.872528   -890.72106    1929.5186    1107.3882    2.1724466    59.251542   0.14404133 
  188000    -942.7175    47.520243   -895.19726    1702.0028   -7441.9295    2.1489759    68.674941    0.1517993 
  188100   -943.73082    43.926277   -899.80454    1573.2799   -281.04236    2.1714724    62.524535   0.15055279 
  188200   -945.34738    47.080076    -898.2673    1686.2376    9920.2965    2.2004109    66.042355   0.12743964 
  188300    -940.0383    49.815563   -890.22274    1784.2128   -4066.9595    2.1549644    63.382535    0.1528511 
  188400   -943.63603    43.933853   -899.70218    1573.5513   -5314.9414     2.163083     62.40583   0.14799827 
  188500   -944.59088    45.977135   -898.61375    1646.7342     4046.508    2.1863591    58.829824   0.15498528 
  188600    -943.0624    50.504802    -892.5576    1808.8988    4771.9466     2.181055    62.436646   0.13487373 
  188700   -945.52309    49.419491    -896.1036    1770.0269   -9970.3538    2.1528024    63.917851   0.14663763 
  188800   -946.77027    45.447925   -901.32235    1627.7798   -5068.9057    2.1698086    66.426354   0.14204469 
  188900   -944.83109    49.279054   -895.55203     1764.997    11404.908    2.2054512    64.134452   0.15946416 
  189000   -943.17391    45.298346   -897.87556    1622.4225    780.60825    2.1705987    62.400611   0.14628785 
  189100    -948.0324    41.886648   -906.14576    1500.2278   -9710.6274    2.1583281    68.244599   0.13202029 
  189200   -943.81117     44.63326   -899.17791    1598.6015    5833.0256    2.1866131    60.813961   0.13882819 
  189300   -942.57587    47.226174    -895.3497    1691.4703     11531.97    2.1985876    58.307036   0.14909696 
  189400   -944.85774    42.677528   -902.18021    1528.5543   -6366.9096    2.1597799    65.746209   0.15257679 
  189500   -944.71459    41.958569   -902.75603    1502.8038   -6434.5766     2.160178    67.493728   0.15191309 
  189600   -942.04165    47.094566   -894.94708    1686.7566    7503.5859    2.1857676    63.076235   0.13978618 
  189700   -945.84033    47.235377   -898.60495    1691.7999     79.87397    2.1757122    61.966578   0.13072767 
  189800    -948.4873    45.568116   -902.91918    1632.0847   -4158.6745    2.1698032    66.467204   0.14126316 
  189900   -948.31996    42.858655   -905.46131    1535.0416    1159.7246    2.1861849    65.959738   0.12998333 
  190000   -941.79626    46.213132   -895.58313    1655.1868    -667.3629    2.1629878    59.348823   0.14089455 
  190100   -943.40105    45.708002   -897.69305    1637.0949   -1772.5795    2.1680371    56.856971   0.13137912 
  190200   -945.01081    45.500647   -899.51017    1629.6682    2877.8432    2.1826202    58.776537   0.14373939 
  190300   -949.16851    43.056839   -906.11167    1542.1398   -604.52548    2.1852188    60.385847   0.13904809 
  190400   -945.23806    40.445985   -904.79207    1448.6285    217.52078    2.1764869    64.986274   0.13362545 
  190500   -944.68818     45.78694   -898.90124    1639.9221    560.69453    2.1778248    66.904834   0.14127362 
  190600   -941.77598    43.653286   -898.12269    1563.5024    1704.0773    2.1756117    65.255344   0.12507412 
  190700   -944.12628    46.066609   -898.05967    1649.9389    -1418.796    2.1651404    63.223446   0.13244378 
  190800   -948.83419    40.906204   -907.92799    1465.1119    1208.7991    2.1863664    58.917794   0.13004585 
  190900   -947.13326    44.099638   -903.03362    1579.4891   -325.92621    2.1807328    59.504948   0.13550311 
  191000    -947.8479    49.620154   -898.22775     1777.214   -250.85062    2.1770762    59.338963   0.14242325 
  191100   -947.12742    50.038271   -897.08915    1792.1894   -2136.9481    2.1684725    66.297333    0.1269863 
  191200   -952.60534    47.851475   -904.75387    1713.8663   -5329.0998    2.1751384    69.165401    0.1227951 
  191300   -951.62663    48.435597   -903.19103    1734.7874   -2257.4648    2.1810068    64.039996   0.12849321 
  191400   -948.37782    51.412228   -896.96559    1841.3995    2998.3581    2.1834259    63.810745   0.12525261 
  191500   -944.29672    46.271167   -898.02555    1657.2654   -2107.7681    2.1614223    61.358812   0.12220339 
  191600   -949.83485     43.47416   -906.36069    1557.0868   -4401.0137    2.1712627    59.327637   0.13100815 
  191700   -950.69679    49.473557   -901.22324    1771.9634    4174.7178    2.1918183    58.547237   0.13212349 
  191800   -943.76821    47.575989   -896.19222    1703.9994    7820.8575    2.1877529    63.145062   0.15960789 
  191900   -943.66715    43.384647    -900.2825    1553.8807   -7783.0056    2.1514342    60.245136   0.15941708 
  192000   -949.31387    43.516369    -905.7975    1558.5985   -3514.7099    2.1749738    65.376376   0.13899976 
  192100   -946.45484    49.604566   -896.85027    1776.6557     10490.14    2.2011202    60.962701   0.14879512 
  192200   -944.46701     47.90406   -896.56295    1715.7497    1275.3725    2.1773417    66.576595   0.14181551 
  192300   -946.21158    45.833559   -900.37802    1641.5919    -12900.87    2.1444117    63.822502   0.13365642 
  192400   -946.35741    49.456286   -896.90112    1771.3448    490.27019     2.175432    67.261696   0.13369255 
  192500   -941.87015    50.905791   -890.96436    1823.2608    3815.9322    2.1752278    62.692268    0.1364679 
  192600   -943.43112    44.789972   -898.64115    1604.2144   -2595.8272    2.1646844    63.720708   0.14454685 
  192700   -943.57204    44.218684   -899.35336    1583.7529   -1681.3414    2.1662355    56.978267   0.14033595 
  192800   -939.16175    48.541917   -890.61983    1738.5954    4199.9982    2.1684137    61.471516   0.16395804 
  192900   -943.02576    47.435602   -895.59016    1698.9712    1908.2243    2.1718459    60.913726    0.1460841 
  193000   -944.04116    43.974197   -900.06696    1574.9963   -4021.0422    2.1631266    61.075077   0.12358365 
  193100   -943.28453    47.279625    -896.0049    1693.3847   -453.80122    2.1691551    63.340521   0.14054187 
  193200   -941.92356    51.860271   -890.06329    1857.4468    1638.1468    2.1660558    68.341468   0.12189091 
  193300    -948.1527    47.575802   -900.57689    1703.9927    615.97366    2.1831915    64.714088   0.12846217 
  193400    -943.9189    45.016702    -898.9022     1612.335   -2173.0934    2.1598901    63.191472   0.11931545 
  193500   -945.77958    50.883767   -894.89581     1822.472   -2084.1776    2.1626349     65.48562   0.12380595 
  193600   -950.40797    47.387048   -903.02092    1697.2322    2739.3854    2.1902206    61.906422    0.1231836 
  193700    -944.5547    42.312191   -902.24251    1515.4692   -1989.9744    2.1692975    67.291915    0.1454405 
  193800   -944.11934    46.784019   -897.33532    1675.6339   -2903.7047    2.1631521    64.601016   0.14772222 
  193900   -948.38434    51.589051   -896.79529    1847.7327    2731.2332    2.1843473     64.68707   0.13643488 
  194000   -947.39327    41.778995   -905.61427    1496.3721    5972.2942    2.1991395    65.899189   0.12653283 
  194100   -940.63437    43.270107   -897.36426    1549.7783   -12224.355    2.1348108    65.802637   0.13650556 
  194200   -944.28097    47.505648   -896.77533      1701.48    160.65846    2.1701326     63.79565   0.12953867 
  194300   -947.64447       47.635   -900.00947     1706.113    13198.971    2.2119715    65.027208    0.1220388 
  194400   -947.04139    41.640589   -905.40081    1491.4149   -3059.8035    2.1730087    59.362615   0.14057413 
  194500   -940.65928    44.750903   -895.90838    1602.8151    -7740.811    2.1447765    65.818747   0.14202819 
  194600   -945.38808    49.239447   -896.14863    1763.5784    9212.7758    2.1956527    61.976012   0.14681743 
  194700   -946.73752    48.823288   -897.91423    1748.6731    2528.3629    2.1798016    64.307533   0.14369781 
  194800   -945.35723    44.072884   -901.28435    1578.5309   -10395.327     2.150589    64.801925   0.13631498 
  194900   -951.02951     42.34549   -908.68402    1516.6619   -388.28441    2.1858387    66.443511   0.12827991 
  195000   -944.06588    44.398815   -899.66707    1590.2046      8743.81    2.1889175    63.893057   0.12815651 
  195100   -943.91539    45.807415   -898.10798    1640.6555    1464.3908    2.1713746    58.499255   0.14870409 
  195200   -942.37427    45.465817   -896.90846    1628.4207   -4738.5155    2.1504299    61.475173   0.12653877 
  195300   -944.31052    46.224519     -898.086    1655.5946    -1767.245    2.1641993    62.900962   0.12747954 
  195400   -948.96285    44.057882   -904.90497    1577.9936     11872.66    2.2066464    61.667516   0.11902055 
  195500   -939.77702    42.248052   -897.52897     1513.172    2331.4257    2.1636758    65.572116    0.1353479 
  195600    -942.7987     45.06816   -897.73054     1614.178   -9204.9186    2.1435621    58.615784   0.15406525 
  195700   -947.33492    43.106059   -904.22886    1543.9027    5862.5918    2.1927262    59.151489   0.14028776 
  195800   -948.47051    45.971534   -902.49898    1646.5336    10104.813     2.206058    64.557331   0.13337334 
  195900   -945.03827    48.219128   -896.81914    1727.0343   -8349.8732    2.1492029    62.461441    0.1418713 
  196000   -944.44355    45.007389   -899.43616    1612.0014    -10151.94    2.1476102    60.847112   0.15153052 
  196100   -950.39583    48.130463   -902.26536    1723.8586    9476.0048    2.2081437    59.858558   0.13446396 
  196200   -939.76906    48.203569   -891.56549     1726.477    4621.9806    2.1655532    60.311333   0.13358797 
  196300   -941.62349    45.157012   -896.46648    1617.3604   -4071.9343    2.1549099    63.723659   0.12986704 
  196400   -948.56415    48.398794   -900.16535    1733.4693   -675.07986    2.1739782    65.810818   0.11420433 
  196500   -944.75151    45.797182   -898.95433     1640.289    3978.2875    2.1807311    57.724258   0.13294189 
  196600   -942.47089    50.756583   -891.71431    1817.9167   -5575.1034    2.1489994    61.188639   0.13444285 
  196700   -948.36454    48.773643    -899.5909     1746.895   -2379.9084    2.1700991    62.322176   0.11842067 
  196800   -947.29059     48.73531   -898.55528    1745.5221    3095.1743    2.1847241    60.129773   0.12952391 
  196900   -936.86192    46.541366   -890.32055    1666.9429    2086.9411    2.1569167    63.364496   0.13517089 
  197000   -945.27176    46.103908   -899.16785    1651.2748   -3611.5556    2.1640923     61.38765   0.14243611 
  197100   -947.92715    48.146391   -899.78076    1724.4291   -3058.1921    2.1697917    62.379449   0.13236513 
  197200   -942.54967    48.520836   -894.02883    1737.8404    4391.4725    2.1763468    66.511797   0.12582489 
  197300   -944.10583    47.134609   -896.97122    1688.1908   -3426.6268    2.1645938    57.522101    0.1284334 
  197400    -945.9524    43.338639   -902.61376    1552.2329   -3381.9554    2.1683848    63.180901   0.13973325 
  197500   -944.79715    47.893129   -896.90403    1715.3582    4622.7412    2.1845876    64.724779   0.13506988 
  197600   -944.05897    47.694175   -896.36479    1708.2324    138.12879    2.1734088     69.22464   0.14189228 
  197700   -950.57957    44.752877   -905.82669    1602.8858   -6512.9434     2.169313    66.315394   0.13212166 
  197800   -946.67441    47.142565   -899.53184    1688.4757   -3228.4798    2.1658681    61.078281   0.12906116 
  197900   -945.13162    49.920949   -895.21067    1787.9873     8371.713    2.1902121    63.368503   0.13354515 
  198000   -946.23086    43.669255    -902.5616    1564.0743    1198.4617    2.1804823    62.377975   0.13410035 
  198100   -945.17247    43.836856   -901.33562    1570.0772   -9552.0916    2.1487942    61.472572   0.12761217 
  198200   -947.03245    51.536837   -895.49561    1845.8626    1607.4712     2.181798    70.438474   0.12566873 
  198300   -946.07235    48.402544   -897.66981    1733.6036    11494.182    2.2012401    64.318518   0.13427371 
  198400     -950.914     46.98095   -903.93305    1682.6872   -11053.635    2.1597701    61.553549   0.13074474 
  198500    -944.9415    50.008358   -894.93315     1791.118   -8484.4872    2.1494035    72.026416    0.1421199 
  198600   -944.08222     49.57304   -894.50918    1775.5265    11614.512    2.2000877    62.365685    0.1421415 
  198700   -946.02902       46.243   -899.78602    1656.2566    -140.4293    2.1774676    65.671379   0.13349285 
  198800   -945.12116    48.665066   -896.45609    1743.0062   -8404.7726    2.1521261    60.369831   0.14166084 
  198900   -938.05778    47.055244   -891.00253    1685.3482    15.689312    2.1587563    67.745076   0.14598921 
  199000   -944.00844    45.152267   -898.85617    1617.1905    7624.0769    2.1888979    63.208448   0.12088112 
  199100     -944.417    45.513694    -898.9033    1630.1355    2118.7235    2.1730445    67.924336   0.12683979 
  199200   -940.73579    49.812764   -890.92303    1784.1125   -6106.5097    2.1463263    67.751106   0.14369292 
  199300   -946.59262     46.60654   -899.98608    1669.2773    3075.7102    2.1811729    62.942763   0.13137963 
  199400   -950.07661    50.197845   -899.87877    1797.9048   -3162.8807    2.1767771    61.389955   0.13533865 
  199500   -941.54153     46.18258   -895.35895    1654.0925   -1562.6285    2.1641804    62.609575   0.15090206 
  199600    -943.2821    48.967033   -894.31507    1753.8215   -860.99344    2.1666805    62.067568   0.14870228 
  199700   -946.28943    43.456481   -902.83295    1556.4536    5828.4779    2.1923909    64.495041   0.15270535 
  199800    -942.7996    44.722915   -898.07668    1601.8126    739.68993    2.1717653     61.55358   0.14849213 
  199900   -942.06114    45.874058   -896.18708    1643.0424   -7342.5374    2.1486855    63.731682     0.147803 
  200000   -950.24706    44.216224   -906.03084    1583.6648    896.75802    2.1906664    63.854706   0.13483719 
  200100   -944.76272    44.540917    -900.2218    1595.2941    9504.4099    2.1935262     66.24202   0.12564922 
  200200   -943.29905    46.453547    -896.8455    1663.7976   -7147.3914    2.1510055    64.776838   0.13878284 
  200300   -941.61717    42.450275    -899.1669    1520.4149   -7217.9974    2.1475873    59.756615   0.14844011 
  200400   -948.15167    44.320508   -903.83116    1587.3999    13050.861     2.211964    62.000791   0.11810527 
  200500   -944.05779    49.783574   -894.27422    1783.0671    3066.9231    2.1770452     60.42125   0.14725823 
  200600   -942.38696    44.489127   -897.89783    1593.4392   -10299.881    2.1396707    60.116217   0.14394545 
  200700   -947.27607    46.477188   -900.79888    1664.6443   -2030.0365    2.1710186    56.501284   0.13782616 
  200800   -940.86507     48.16079   -892.70428    1724.9449    13086.596    2.1913591    56.012806   0.17010701 
  200900   -941.16142    47.505331   -893.65609    1701.4687    185.89121    2.1611533    59.508496   0.13897834 
  201000   -945.71099    45.096007   -900.61498    1615.1754   -9772.9932    2.1524242    63.960241    0.1209637 
  201100    -938.6797     41.37081   -897.30889    1481.7524    6353.2578     2.177604    61.609487   0.14157861 
  201200   -939.47913    49.220743   -890.25838    1762.9085    3810.4346    2.1671313     62.17572   0.14032868 
  201300   -943.15564    43.237627   -899.91801     1548.615    2141.8829    2.1724944     59.84615   0.14305959 
  201400   -946.19073     47.07562   -899.11511     1686.078    -4058.757    2.1616328    62.351728   0.12257923 
  201500   -941.48959    49.488016   -892.00157    1772.4813    4150.0722    2.1679101    58.963281   0.13055015 
  201600   -944.00726    44.801631   -899.20563    1604.6319    1751.9942    2.1746962    68.436289   0.13380755 
  201700   -944.44809    44.324347   -900.12374    1587.5374   -2481.7101     2.164592    74.470763   0.14522905 
  201800   -944.47136    50.086751   -894.38461    1793.9258    1722.9493    2.1711037    68.195605   0.13838278 
  201900   -946.56147     44.90692   -901.65455     1608.403    3080.0407     2.184338    64.444956     0.135075 
  202000   -946.67856    44.744586   -901.93397    1602.5888   -5253.5441     2.164867     63.30469   0.13773928 
  202100   -944.36881    48.881936   -895.48687    1750.7737   -3912.6158    2.1585897    64.576303   0.12986131 
  202200   -949.70856    49.745338   -899.96323    1781.6976     5157.253    2.1913722    57.356346    0.1182352 
  202300   -951.75693    48.563565   -903.19336    1739.3708    469.68916    2.1839955    64.701691   0.11012658 
  202400   -943.70282    48.852503   -894.85032    1749.7195   -14366.333    2.1274735    61.558776   0.12754187 
  202500    -942.4591    44.022436   -898.43667     1576.724    3712.8186    2.1727875    61.341854   0.11528359 
  202600   -949.33623    48.247041   -901.08919     1728.034    10598.647    2.2073671     60.86509   0.12402258 
  202700   -942.61183    49.678635    -892.9332    1779.3086   -6050.1215    2.1478667    65.269062   0.13378225 
  202800   -943.88228    46.241598   -897.64068    1656.2063   -7834.6923    2.1452189    66.746158   0.14042374 
  202900   -945.57002    45.245304   -900.32471    1620.5227    9094.8773    2.1905276    64.017728   0.13234829 
  203000   -944.62253    51.523226   -893.09931    1845.3751     6220.306    2.1809941    62.274703   0.13513785 
  203100   -942.89049    46.865384    -896.0251    1678.5481   -8528.4671    2.1459106    61.645552   0.12594573 
  203200   -947.39104    45.065519   -902.32552    1614.0835   -5464.4278     2.165526    62.521372   0.12832134 
Loop time of 142.658 on 1 procs for 200000 steps with 217 atoms

Performance: 363.386 ns/day, 0.066 hours/ns, 1401.952 timesteps/s
100.0% CPU use with 1 MPI tasks x no OpenMP threads

MPI task timing breakdown:
Section |  min time  |  avg time  |  max time  |%varavg| %total
---------------------------------------------------------------
Pair    | 137.31     | 137.31     | 137.31     |   0.0 | 96.25
Neigh   | 2.1939     | 2.1939     | 2.1939     |   0.0 |  1.54
Comm    | 0.91931    | 0.91931    | 0.91931    |   0.0 |  0.64
Output  | 0.068611   | 0.068611   | 0.068611   |   0.0 |  0.05
Modify  | 1.8473     | 1.8473     | 1.8473     |   0.0 |  1.29
Other   |            | 0.3154     |            |       |  0.22

Nlocal:    217 ave 217 max 217 min
Histogram: 1 0 0 0 0 0 0 0 0 0
Nghost:    951 ave 951 max 951 min
Histogram: 1 0 0 0 0 0 0 0 0 0
Neighs:    4249 ave 4249 max 4249 min
Histogram: 1 0 0 0 0 0 0 0 0 0
FullNghs:  8498 ave 8498 max 8498 min
Histogram: 1 0 0 0 0 0 0 0 0 0

Total # of neighbors = 8498
Ave neighs/atom = 39.1613
Neighbor list builds = 3711
Dangerous builds = 45
Total wall time: 0:02:24
