LAMMPS (3 Mar 2020)
Reading data file ...
  orthogonal box = (0 0 0) to (12.27 12.27 12.27)
  1 by 1 by 1 MPI processor grid
  reading atoms ...
  108 atoms
  read_data CPU = 0.00085841 secs
Reading potential file /usr/share/lammps-stable/potentials/Ag_u3.eam with DATE: 2007-06-11
Neighbor list info ...
  update every 1 steps, delay 10 steps, check yes
  max neighbors/atom: 2000, page size: 100000
  master list distance cutoff = 7.55
  ghost atom cutoff = 7.55
  binsize = 3.775, bins = 4 4 4
  2 neighbor lists, perpetual/occasional/extra = 1 1 0
  (1) pair eam, perpetual
      attributes: half, newton on
      pair build: half/bin/atomonly/newton
      stencil: half/bin/3d/newton
      bin: standard
  (2) compute rdf, occasional, copy from (1)
      attributes: half, newton on
      pair build: copy
      stencil: none
      bin: none
Setting up Verlet run ...
  Unit style    : metal
  Current step  : 0
  Time step     : 0.005
Per MPI rank memory allocation (min/avg/max) = 3.723 | 3.723 | 3.723 Mbytes
Step PotEng KinEng TotEng Temp Press Density c_msdall[4] 
       0       -307.8    31.810922   -275.98908         2300    18393.327    10.472245            0 
     100   -287.38874    23.196994   -264.19174     1677.194    83862.379    10.472245   0.11301113 
     200   -276.90321    30.571731   -246.33148    2210.4038    119302.66    10.472245   0.15269525 
     300   -273.25835    36.386189   -236.87216     2630.802    133357.21    10.472245   0.25561583 
     400    -274.5969     31.25357   -243.34333    2259.7022     126008.3    10.472245   0.28011428 
     500   -276.86192    31.934239   -244.92768    2308.9161    121852.38    10.472245   0.17432816 
     600   -273.84394    33.041567   -240.80238    2388.9784    132644.15    10.472245   0.19394757 
     700   -276.53047    29.768166   -246.76231    2152.3042    121212.88    10.472245   0.21324364 
     800   -276.21777    31.977595   -244.24018    2312.0509    121854.69    10.472245    0.1596167 
     900   -275.79335    36.029509   -239.76384    2605.0132    128457.06    10.472245   0.20427046 
    1000   -274.09422    28.007947   -246.08628    2025.0365    126502.96    10.472245   0.23469468 
    1100   -270.52175    31.498508   -239.02324    2277.4118    140478.86    10.472245   0.26015671 
    1200   -270.92599    31.685603   -239.24039    2290.9392    136552.12    10.472245   0.26787995 
    1300   -278.47768     33.09389   -245.38379    2392.7614    116761.52    10.472245   0.19798462 
    1400   -276.91354    35.203791   -241.70975    2545.3119    124068.31    10.472245   0.21660952 
    1500   -273.27873     36.86718   -236.41155    2665.5787    136830.51    10.472245   0.22238894 
    1600   -277.59639    33.640732   -243.95566    2432.2993    119455.72    10.472245   0.16795765 
    1700   -272.24798    25.870958   -246.37702    1870.5275    131683.19    10.472245   0.27871393 
    1800   -272.87602    34.173336   -238.70268    2470.8078    133728.03    10.472245   0.28644892 
    1900   -274.62665    29.402194   -245.22446    2125.8437    127106.37    10.472245   0.19217889 
    2000   -279.75621    31.542245   -248.21397    2280.5741    111320.73    10.472245   0.14854401 
    2100   -272.73965    27.900595   -244.83906    2017.2747    130623.41    10.472245   0.22750296 
    2200   -274.56451    33.251761   -241.31275    2404.1759    128024.44    10.472245    0.2630715 
    2300   -278.23677    31.136079    -247.1007    2251.2074    117008.77    10.472245   0.16823685 
    2400   -275.22718    29.139729   -246.08745    2106.8668    126848.83    10.472245   0.21171089 
    2500   -273.18306    33.228269   -239.95479    2402.4773    132079.51    10.472245   0.21765429 
    2600   -274.96182    29.073143   -245.88868    2102.0525     121913.3    10.472245   0.20444673 
    2700   -280.42359    28.152435   -252.27116    2035.4833    107887.86    10.472245   0.14659869 
    2800   -277.74154    31.980302   -245.76124    2312.2465    119191.66    10.472245    0.1559577 
    2900   -272.01127    31.345187   -240.66608    2266.3264    134228.74    10.472245   0.22654071 
    3000    -273.7642     29.06119   -244.70301    2101.1883    127386.14    10.472245   0.21421521 
    3100   -276.05231    30.030514   -246.02179    2171.2726    122046.97    10.472245   0.20030429 
    3200    -274.7721    33.203997   -241.56811    2400.7224    125428.41    10.472245   0.22078845 
    3300   -272.69629    31.605598   -241.09069    2285.1546    135292.76    10.472245   0.22667603 
    3400   -279.43813    31.627901   -247.81023    2286.7672    112449.15    10.472245   0.19297652 
    3500   -275.37047      29.5597   -245.81077    2137.2317    123863.83    10.472245   0.16897847 
    3600   -277.05333    35.537079   -241.51625    2569.4094    124559.03    10.472245   0.22928654 
    3700   -276.93533    31.765832    -245.1695    2296.7399    122944.44    10.472245   0.18246386 
    3800   -278.08356    29.420558     -248.663    2127.1714    117406.07    10.472245   0.15782771 
    3900    -273.6086    34.139837   -239.46876    2468.3857    131201.59    10.472245   0.21727736 
    4000   -274.95149    30.640036   -244.31145    2215.3424    127978.89    10.472245   0.20412616 
    4100    -278.0624    30.733894   -247.32851    2222.1285    115630.32    10.472245   0.18738794 
    4200   -276.95115    32.871155   -244.07999    2376.6572       118580    10.472245   0.17389441 
    4300   -274.22256    34.193628   -240.02893    2472.2749    128720.19    10.472245   0.20576478 
    4400   -273.60965    37.951906   -235.65774    2744.0068    136210.68    10.472245   0.21961892 
    4500     -273.045    26.879411   -246.16559    1943.4409    130500.66    10.472245   0.22632173 
    4600   -276.22945     32.23494   -243.99451    2330.6575    123077.61    10.472245   0.19732968 
    4700   -269.82749    32.405952   -237.42154     2343.022    141526.56    10.472245   0.28586309 
    4800   -272.56945    31.351755    -241.2177    2266.8012    135901.94    10.472245   0.22247185 
    4900   -276.87666    31.550878   -245.32578    2281.1983    120494.92    10.472245   0.18377442 
    5000   -276.25643    31.481086   -244.77534    2276.1522    122803.61    10.472245   0.18262653 
    5100   -271.79831    32.845872   -238.95244    2374.8292    140678.39    10.472245   0.22951054 
    5200   -277.95974     31.59988   -246.35986    2284.7412    116164.15    10.472245   0.18042705 
    5300   -277.53404    31.868866   -245.66517    2304.1895     115626.9    10.472245   0.17544874 
    5400   -275.20972    32.162549   -243.04717    2325.4234    127282.86    10.472245   0.21441922 
    5500   -279.18778    35.277921   -243.90986    2550.6717    115273.54    10.472245   0.17077818 
    5600   -274.30538    29.433078    -244.8723    2128.0766    125574.38    10.472245   0.22836819 
    5700   -275.01133    36.255281   -238.75605     2621.337    127436.88    10.472245   0.22436842 
    5800   -277.26411    32.423708    -244.8404    2344.3058    119235.77    10.472245   0.19787851 
    5900   -277.26486    30.746652   -246.51821    2223.0509    119029.18    10.472245   0.19137951 
    6000   -275.73214    33.080529   -242.65162    2391.7954    125332.94    10.472245   0.22188694 
    6100   -272.91626    30.315027   -242.60123    2191.8435     132451.5    10.472245   0.23313463 
    6200   -275.14429    28.081386   -247.06291    2030.3463    122261.55    10.472245   0.21513215 
    6300   -271.93589    31.079731   -240.85616    2247.1333     133351.6    10.472245   0.19417329 
    6400   -274.14578    31.551913   -242.59387    2281.2731    129285.89    10.472245    0.2293454 
    6500    -279.5808    30.984738   -248.59606    2240.2651    112806.11    10.472245   0.15728937 
    6600   -270.96015    28.906262   -242.05389    2089.9866    139662.84    10.472245   0.19323778 
    6700   -276.99909    33.062143   -243.93695    2390.4661    117682.39    10.472245   0.18643468 
    6800   -277.48576    26.110766     -251.375    1887.8661    114286.07    10.472245    0.1899357 
    6900   -274.76274    31.374301   -243.38844    2268.4314    126710.92    10.472245   0.17656075 
    7000    -274.5141     32.58761   -241.92649    2356.1563    129041.64    10.472245   0.19841723 
    7100   -271.98019    30.673311   -241.30688    2217.7482    133501.92    10.472245   0.22428953 
    7200   -279.35565    31.517333   -247.83832    2278.7729    111520.61    10.472245   0.20152005 
    7300   -269.43745    30.794351    -238.6431    2226.4997    143723.15    10.472245   0.26560274 
    7400   -269.56025    31.123873   -238.43637    2250.3248    142717.23    10.472245   0.33819325 
    7500   -280.38227    31.952252   -248.43002    2310.2185    109490.07    10.472245   0.19484806 
    7600   -277.48758    31.767044   -245.72054    2296.8276     118833.1    10.472245   0.19302374 
    7700   -272.67577    30.439872    -242.2359      2200.87    132871.08    10.472245   0.21113856 
    7800   -276.86188    32.687974   -244.17391    2363.4128    119556.68    10.472245   0.14515197 
    7900   -274.99219    30.300056   -244.69213    2190.7611    126915.52    10.472245   0.19098772 
    8000   -278.04002    35.301351   -242.73867    2552.3658    119725.19    10.472245   0.18651393 
    8100   -274.47522    33.398845   -241.07637    2414.8104    125706.12    10.472245    0.1834644 
    8200   -273.99361    26.271809    -247.7218    1899.5099    127151.24    10.472245   0.20409436 
    8300   -277.09875     34.57732   -242.52143    2500.0167    120766.38    10.472245   0.14891724 
    8400   -272.95565    32.106211   -240.84944      2321.35    131489.48    10.472245   0.18945755 
    8500   -276.23455    32.530732   -243.70382    2352.0439    122250.44    10.472245   0.21648703 
    8600   -269.89456    34.490068   -235.40449    2493.7082    142252.22    10.472245   0.28990315 
    8700   -275.96919      34.0055   -241.96369    2458.6729    125977.21    10.472245   0.17020942 
    8800   -276.14513    31.205865   -244.93927     2256.253    125620.24    10.472245   0.18524782 
    8900   -276.37108    36.621264   -239.74982    2647.7984    124006.43    10.472245   0.21402558 
    9000   -271.88621    33.452125   -238.43409    2418.6626    137454.44    10.472245   0.24645196 
    9100   -274.75863    28.251354   -246.50728    2042.6354    125294.14    10.472245   0.21190902 
    9200   -275.21253    34.568171   -240.64436    2499.3552    127179.47    10.472245   0.20305057 
    9300   -271.96242    33.873647   -238.08877    2449.1396    136387.95    10.472245   0.19318328 
    9400   -276.72988    33.171265   -243.55861    2398.3559    121705.33    10.472245    0.1685899 
    9500   -277.68317    30.685197   -246.99798    2218.6076    118537.09    10.472245   0.19443865 
    9600   -270.54859     32.30693   -238.24166    2335.8625    144728.84    10.472245   0.24574347 
    9700   -273.14819    28.618283   -244.52991    2069.1651    130185.67    10.472245   0.21999157 
    9800   -274.45753    30.168997   -244.28853    2181.2852    126240.27    10.472245   0.23360084 
    9900    -270.1371    34.422639   -235.71447    2488.8329    142931.49    10.472245   0.22372625 
   10000   -274.45761    30.148277   -244.30933    2179.7871    128000.26    10.472245   0.20971125 
   10100   -275.39125    31.518658   -243.87259    2278.8687     126005.9    10.472245   0.20554444 
   10200   -272.12508    36.530468   -235.59461    2641.2336    138371.84    10.472245   0.24951693 
   10300   -275.08625    31.174958   -243.91129    2254.0184    125771.48    10.472245   0.21060628 
   10400   -274.12177    29.720763   -244.40101    2148.8769    127094.52    10.472245   0.19104033 
   10500    -274.0252     33.72034   -240.30486    2438.0551    126662.32    10.472245   0.21520125 
   10600   -275.88112    32.609662   -243.27146    2357.7507    125408.34    10.472245   0.18170003 
   10700   -276.73353    29.859816   -246.87371    2158.9308    120391.58    10.472245   0.17492818 
   10800   -274.04159    33.437938   -240.60365    2417.6369    132511.02    10.472245   0.21566343 
   10900   -268.47149    39.442821   -229.02866    2851.8032     147890.9    10.472245   0.29008301 
   11000   -273.99487    34.508583   -239.48628    2495.0468    130461.06    10.472245   0.30318905 
   11100   -272.37182    28.688126    -243.6837     2074.215    132967.84    10.472245    0.2338156 
   11200   -280.68921    31.039918   -249.64929    2244.2547    106995.22    10.472245   0.14783711 
   11300   -280.04937    34.477961   -245.57141    2492.8329    113386.99    10.472245   0.19202449 
   11400   -274.87824    33.521017   -241.35722    2423.6437    128683.61    10.472245   0.25126306 
   11500   -272.84121    29.341983   -243.49923    2121.4902    131303.57    10.472245   0.30017315 
   11600   -273.08562     31.47934   -241.60628    2276.0259    131992.89    10.472245   0.24032535 
   11700   -273.67051    33.168319   -240.50219    2398.1428    132811.43    10.472245   0.21895216 
   11800   -278.47364    30.364913   -248.10873    2195.4504    115459.72    10.472245   0.19399303 
   11900   -272.18075    29.319799   -242.86095    2119.8863    134197.59    10.472245   0.23098424 
   12000   -274.39497     31.27924   -243.11573    2261.5582     126064.9    10.472245   0.20701486 
   12100   -277.57198    28.344104   -249.22787    2049.3414    119368.76    10.472245   0.19312106 
   12200   -277.23924    30.277896   -246.96134    2189.1589    119961.05    10.472245   0.18100628 
   12300   -271.23671    28.148825   -243.08788    2035.2223    134460.23    10.472245     0.229368 
   12400    -274.3998     32.01693   -242.38287    2314.8949    129520.49    10.472245   0.20180429 
   12500   -274.23334    31.552431   -242.68091    2281.3106     130716.8    10.472245   0.25378129 
   12600   -276.11668    29.981474   -246.13521    2167.7269    119402.12    10.472245   0.22191847 
   12700   -275.25451    31.335657   -243.91885    2265.6373    124183.99    10.472245   0.20739303 
   12800   -274.94905    36.509625   -238.43942    2639.7267    131539.16    10.472245   0.17760256 
   12900   -275.84097    28.373001   -247.46797    2051.4307    120572.51    10.472245   0.17688124 
   13000   -276.08508    32.662506   -243.42257    2361.5714    123008.42    10.472245   0.22380103 
   13100    -274.3309    35.410612   -238.92029    2560.2655    130880.25    10.472245   0.20828102 
   13200   -275.17785    31.863349    -243.3145    2303.7906    125218.12    10.472245    0.2153001 
   13300   -276.36601    28.217346   -248.14867    2040.1765    119809.99    10.472245   0.18898042 
   13400   -277.11552     30.65342    -246.4621    2216.3101     119870.6    10.472245   0.20311767 
   13500   -272.27333    32.198695   -240.07464    2328.0368    133919.45    10.472245   0.23644304 
   13600   -276.63413    29.450858   -247.18327    2129.3622    118922.05    10.472245   0.23146797 
   13700   -276.95358    31.315872   -245.63771    2264.2068    120338.94    10.472245   0.22814255 
   13800    -273.9946    32.150175   -241.84442    2324.5288    128862.26    10.472245   0.20976993 
   13900   -276.64827    34.277592   -242.37068    2478.3457    125072.24    10.472245   0.15280487 
   14000     -279.458    31.429816   -248.02818    2272.4452    113747.81    10.472245   0.15512004 
   14100   -275.76539    33.980782   -241.78461    2456.8857    123895.09    10.472245   0.22020057 
   14200   -275.08102    31.592554   -243.48846    2284.2115    123606.86    10.472245   0.22719135 
   14300   -274.21465     29.99032   -244.22433    2168.3665    130071.51    10.472245   0.20813314 
   14400   -272.40997    29.725006   -242.68496    2149.1837    132889.63    10.472245   0.20578478 
   14500   -275.70846    27.745868   -247.96259    2006.0876    122030.07    10.472245   0.19111058 
   14600   -277.83532    30.836797   -246.99852    2229.5687    118136.05    10.472245   0.18048034 
   14700   -274.61923    32.103654   -242.51558    2321.1652    128793.64    10.472245   0.18772893 
   14800   -277.22531    29.874262   -247.35104    2159.9752    120106.51    10.472245   0.18807662 
   14900   -278.71605    28.871155    -249.8449    2087.4484     114796.1    10.472245   0.17128096 
   15000   -276.25201    35.378961   -240.87305    2557.9771    124773.01    10.472245   0.18058273 
   15100   -276.16126    29.704249   -246.45701    2147.6829    120247.91    10.472245   0.19313907 
   15200   -278.09196    30.142147   -247.94981    2179.3439    115140.26    10.472245   0.17019585 
   15300   -267.66093    28.009675   -239.65126    2025.1615    145711.64    10.472245   0.26887646 
   15400   -274.01022    27.080589   -246.92963    1957.9865    124217.38    10.472245   0.23238206 
   15500   -275.42863    29.824495   -245.60413    2156.3769    125676.47    10.472245   0.19785288 
   15600   -277.15685     33.82877   -243.32808    2445.8949    119781.76    10.472245    0.2276395 
   15700   -273.27286    35.165229   -238.10763    2542.5238    134420.61    10.472245    0.2039031 
   15800   -273.69115    31.914138   -241.77701    2307.4628    130718.96    10.472245   0.22230656 
   15900   -277.31118    31.338319   -245.97286    2265.8298    119705.51    10.472245   0.17984619 
   16000   -279.63164    38.004077   -241.62756    2747.7788    116898.56    10.472245    0.1701246 
   16100   -272.39394    35.157919   -237.23602    2541.9953     136293.1    10.472245   0.24461747 
   16200   -276.84667    29.439165   -247.40751    2128.5167    120419.18    10.472245   0.19062513 
   16300    -271.4436    30.632489   -240.81111    2214.7967    138801.19    10.472245   0.23538256 
   16400   -269.67475     28.00367   -241.67108    2024.7273    143293.05    10.472245   0.19263282 
   16500   -273.63674    28.868727   -244.76801    2087.2728    128835.91    10.472245   0.20315377 
   16600   -274.12869    32.229087    -241.8996    2330.2343    128605.49    10.472245   0.17706131 
   16700   -274.18233    34.345821   -239.83651    2483.2788     129127.5    10.472245   0.21462089 
   16800    -278.3383    32.424454   -245.91384    2344.3598    118766.52    10.472245   0.15369006 
   16900   -276.61793    31.605484   -245.01244    2285.1464    119100.58    10.472245    0.1883369 
   17000   -271.91768    34.096181    -237.8215    2465.2293    136784.99    10.472245    0.2492025 
   17100   -272.30373    28.698222   -243.60551     2074.945    131760.06    10.472245   0.26239296 
   17200   -274.79629    30.575595    -244.2207    2210.6832    125882.45    10.472245   0.19453817 
   17300   -279.48443    31.341375   -248.14306    2266.0507     113785.7    10.472245   0.19290079 
   17400   -273.35487    32.451632   -240.90324    2346.3248    127602.83    10.472245   0.20991461 
   17500   -278.13774    34.551487   -243.58625     2498.149    119351.34    10.472245   0.17352997 
   17600   -275.82751    26.047612    -249.7799       1883.3    118857.27    10.472245    0.1739562 
   17700   -276.38763    33.258745   -243.12889    2404.6808     122895.3    10.472245   0.19961672 
   17800   -275.51909    32.659088      -242.86    2361.3243    125553.88    10.472245   0.17201951 
   17900   -280.47562    30.098207   -250.37741     2176.167    109495.24    10.472245   0.15963792 
   18000   -272.64441    29.594561   -243.04985    2139.7522    130363.71    10.472245   0.25616877 
   18100   -274.80363     32.12613    -242.6775    2322.7903    125476.39    10.472245   0.22066857 
   18200   -280.01708    28.660559   -251.35652    2072.2218    109685.58    10.472245   0.18272279 
   18300   -275.44674    30.861527   -244.58522    2231.3567    124919.82    10.472245   0.19716497 
   18400   -274.18398    32.239883   -241.94409    2331.0149    129487.91    10.472245   0.20470698 
   18500   -279.57037    33.309375     -246.261    2408.3415    111509.94    10.472245   0.16170709 
   18600   -274.79114     26.23592   -248.55522    1896.9151    124099.54    10.472245   0.22722502 
   18700   -274.55094    32.969979   -241.58096    2383.8024    125306.08    10.472245   0.22834316 
   18800   -273.60771    27.823946   -245.78377    2011.7328    130854.88    10.472245   0.21293615 
   18900   -280.37543    31.807946   -248.56748    2299.7848    109225.93    10.472245   0.14624408 
   19000    -274.5167    34.264773   -240.25193    2477.4189    129539.39    10.472245   0.18069442 
   19100   -276.41419    31.140415   -245.27378    2251.5209     123524.5    10.472245   0.21432045 
   19200   -277.33768    28.399803   -248.93788    2053.3686    116769.78    10.472245    0.1691659 
   19300   -275.50464    31.465677   -244.03896     2275.038    126627.01    10.472245   0.19934681 
   19400   -276.32159    35.228255   -241.09334    2547.0807     122482.4    10.472245   0.20525073 
   19500   -277.73346    29.927482   -247.80598    2163.8232    115367.33    10.472245   0.17437926 
   19600   -276.81395    31.856537   -244.95741    2303.2981    121361.52    10.472245   0.22499708 
   19700    -273.1362    32.865309   -240.27089    2376.2346    133249.31    10.472245   0.23508957 
   19800   -277.31971    31.205951   -246.11376    2256.2593    117237.18    10.472245   0.20506283 
   19900   -277.24794    29.838004   -247.40993    2157.3537    121970.25    10.472245   0.19944304 
   20000   -276.81091    37.259144   -239.55176    2693.9185    123351.74    10.472245   0.16042765 
   20100   -277.19413    30.272842   -246.92129    2188.7934    117491.49    10.472245   0.17683614 
   20200    -278.3531     31.18748   -247.16562    2254.9238    117112.85    10.472245   0.15016653 
   20300   -274.33207    30.980105   -243.35197    2239.9301    127858.04    10.472245    0.2260046 
   20400   -274.34212    33.555237   -240.78689    2426.1179    127128.15    10.472245   0.21326739 
   20500   -276.60119    29.623236   -246.97795    2141.8255    118148.03    10.472245   0.22132996 
   20600     -276.629    33.709308   -242.91969    2437.2576    120320.76    10.472245   0.17972629 
   20700   -274.08632     35.50953   -238.57679    2567.4176    133019.53    10.472245   0.19530644 
   20800   -279.08905    30.804411   -248.28464    2227.2271    111167.73    10.472245   0.16175278 
   20900   -276.56006    34.950286   -241.60977     2526.983    124730.64    10.472245   0.19237355 
   21000   -272.72689    30.578538   -242.14835    2210.8959     131158.9    10.472245    0.2521464 
   21100   -274.68201    25.103962   -249.57805     1815.072    123128.94    10.472245   0.19068795 
   21200     -274.332    31.607329   -242.72467    2285.2798    128590.84    10.472245   0.22778907 
   21300    -274.5856    32.395695   -242.18991    2342.2804    129147.21    10.472245   0.24276139 
   21400   -277.96416     27.33953   -250.62463    1976.7085    116034.46    10.472245   0.17831193 
   21500   -274.92074    31.772435    -243.1483    2297.2173    128351.47    10.472245   0.22866784 
   21600    -271.5959    28.391353   -243.20454    2052.7576    133711.81    10.472245   0.20586566 
   21700   -277.21137    27.013071    -250.1983    1953.1048    115307.45    10.472245   0.20894431 
   21800   -275.58959    35.211819   -240.37777    2545.8924    128247.07    10.472245   0.20824319 
   21900    -277.8483    34.532294   -243.31601    2496.7613    119211.29    10.472245   0.16373567 
   22000   -275.62145    29.162698   -246.45875    2108.5276    123304.92    10.472245   0.23128398 
   22100   -276.23235    34.436722   -241.79562    2489.8512    126691.94    10.472245   0.19338048 
   22200   -276.97896     33.33916    -243.6398     2410.495    121374.88    10.472245    0.1795111 
   22300   -280.58217    30.569419   -250.01275    2210.2366    107533.13    10.472245   0.17113426 
   22400   -272.37898    31.405308   -240.97367    2270.6732    134447.18    10.472245   0.20924691 
   22500   -274.74807    30.973248   -243.77483    2239.4344    126364.82    10.472245   0.20572162 
   22600   -278.76668    28.955659   -249.81102    2093.5582    111128.38    10.472245   0.18072032 
   22700   -277.93145    35.325608   -242.60584    2554.1196     120465.8    10.472245   0.19310268 
   22800   -273.70019    34.135956   -239.56423    2468.1051    132993.26    10.472245   0.23021019 
   22900   -276.51028    28.031483    -248.4788    2026.7382    118204.95    10.472245   0.20774488 
   23000   -277.89498    32.626873    -245.2681    2358.9951    119389.73    10.472245   0.16193347 
   23100   -271.74303    31.386509   -240.35652     2269.314     132313.2    10.472245   0.20618417 
   23200   -268.19148    35.493004   -232.69848    2566.2227    147528.07    10.472245    0.2691592 
   23300   -276.32493    33.139567   -243.18537     2396.064    122723.85    10.472245   0.15505906 
   23400   -277.76602    30.380513   -247.38551    2196.5783    117226.74    10.472245   0.16066018 
   23500   -268.61173    29.211465   -239.40026    2112.0536    147776.94    10.472245   0.19982241 
   23600   -275.16763    31.298654   -243.86898    2262.9619    124848.89    10.472245   0.15805168 
   23700    -276.6222    30.771842   -245.85036    2224.8723    122755.45    10.472245   0.18554343 
   23800     -275.646    34.894061   -240.75194    2522.9178    126503.67    10.472245   0.19663069 
   23900   -270.13939    35.016107   -235.12328     2531.742    141992.91    10.472245    0.2666962 
   24000    -278.8021     33.95432   -244.84778    2454.9725     115319.1    10.472245   0.14489776 
   24100   -275.20827    30.025573    -245.1827    2170.9153    122653.67    10.472245   0.21246127 
   24200   -269.54394    32.062026   -237.48191    2318.1554    143479.87    10.472245   0.33344189 
   24300   -268.95961    31.877779   -237.08183    2304.8339    143493.86    10.472245   0.36377195 
   24400   -275.43112    33.152578   -242.27854    2397.0047    123480.41    10.472245    0.1965457 
   24500   -277.49793    31.190004   -246.30793    2255.1062    118712.26    10.472245   0.17486749 
   24600   -271.90313    34.173598   -237.72953    2470.8267    136481.23    10.472245   0.23428544 
   24700   -272.89867    33.110733   -239.78794    2393.9792    131547.73    10.472245   0.28621821 
   24800   -273.63214    35.601709   -238.03044    2574.0823    131772.45    10.472245   0.25876173 
   24900   -272.33479    32.488726   -239.84607    2349.0068    133608.86    10.472245    0.2034213 
   25000   -272.97009    26.963062   -246.00703     1949.489    130600.16    10.472245   0.27448446 
   25100   -272.46791     32.20116   -240.26675    2328.2151    135009.23    10.472245   0.28781193 
   25200   -273.65356    27.582621   -246.07094    1994.2845     127870.8    10.472245   0.22607477 
   25300   -277.35995    30.953098   -246.40686    2237.9774    117566.56    10.472245   0.19936122 
   25400   -274.13276    35.073473   -239.05929    2535.8897    128988.16    10.472245   0.19862405 
   25500   -275.97112    33.410886   -242.56023     2415.681    123926.83    10.472245   0.21862617 
   25600   -274.17001    30.624378   -243.54563    2214.2103    129822.64    10.472245   0.24132569 
   25700   -272.01491    27.355708    -244.6592    1977.8782    134532.26    10.472245   0.22108759 
   25800   -278.77301    34.442537   -244.33047    2490.2716    117406.99    10.472245   0.17709026 
   25900   -270.80586    32.802261    -238.0036    2371.6761    138307.91    10.472245   0.25307031 
   26000   -277.14169    30.953864   -246.18783    2238.0328    118496.83    10.472245   0.18028151 
   26100   -275.50804    30.000901   -245.50714    2169.1315    123105.09    10.472245      0.19587 
   26200   -272.99252    33.835682   -239.15684    2446.3946    133200.97    10.472245   0.22404244 
   26300   -274.18968     31.43069   -242.75899    2272.5084    128035.43    10.472245   0.19917133 
   26400    -276.8176    32.729495   -244.08811    2366.4149    120133.53    10.472245    0.1892064 
   26500   -276.81596    28.093319   -248.72264    2031.2091    119300.58    10.472245   0.17076267 
   26600   -275.30855    32.046837   -243.26171    2317.0572    125717.51    10.472245   0.18741935 
   26700   -273.83604    33.303818   -240.53222    2407.9397    131603.53    10.472245   0.19649546 
   26800   -279.46949    30.114981   -249.35451    2177.3797    110031.11    10.472245    0.1442671 
   26900   -274.36086    28.244685   -246.11617    2042.1532    128022.18    10.472245    0.2045141 
   27000   -272.33453    30.133715   -242.20081    2178.7343    135948.14    10.472245   0.27842218 
   27100   -270.92527    35.673341   -235.25192    2579.2614    142184.41    10.472245   0.22501344 
   27200   -272.15814    29.167189   -242.99095    2108.8523    133980.18    10.472245   0.26084434 
   27300    -277.4322    32.575785   -244.85641    2355.3013    121324.08    10.472245   0.16498407 
   27400   -275.55437    36.550309   -239.00406    2642.6682    126936.77    10.472245   0.17244107 
   27500   -273.12031    29.293774   -243.82653    2118.0047    128530.39    10.472245   0.26557616 
   27600   -280.77771    33.453227   -247.32449    2418.7423    109690.88    10.472245   0.14917608 
   27700   -274.40726    30.722993   -243.68427    2221.3403    127793.03    10.472245   0.19258174 
   27800   -273.94814    34.869975   -239.07817    2521.1763    132100.37    10.472245   0.21582374 
   27900   -267.67674     36.62106   -231.05568    2647.7836     151029.2    10.472245   0.28708882 
   28000   -277.83672    35.261995   -242.57472    2549.5203    117050.69    10.472245   0.18158877 
   28100   -279.42386    32.692844   -246.73101     2363.765    113698.56    10.472245   0.14861621 
   28200   -274.52829    36.413874   -238.11441    2632.8036    130980.54    10.472245   0.22229976 
   28300   -273.55587     32.86428   -240.69159    2376.1601    131274.84    10.472245   0.26852012 
   28400   -273.06734    28.814444    -244.2529     2083.348    130842.91    10.472245   0.22702746 
   28500   -276.94827    34.925256   -242.02302    2525.1733    124041.61    10.472245   0.21968259 
   28600   -267.42797     32.44815   -234.97982     2346.073    147198.19    10.472245   0.24978126 
   28700   -276.68255    34.576622   -242.10592    2499.9662    124761.88    10.472245   0.16981308 
   28800   -277.81531    33.093626   -244.72168    2392.7424    119067.91    10.472245   0.16080225 
   28900   -275.82745     29.17892   -246.64853    2109.7005    122399.79    10.472245   0.16153735 
   29000   -271.86772    31.800619   -240.06711    2299.2551     134792.9    10.472245   0.23470017 
   29100   -272.16944    31.782315   -240.38712    2297.9317     133277.2    10.472245   0.23054677 
   29200   -278.16216    29.936673   -248.22549    2164.4877    115904.73    10.472245   0.15562766 
   29300   -274.99954    33.506759   -241.49278    2422.6128     126070.1    10.472245   0.15746324 
   29400   -275.73285    29.542275   -246.19058    2135.9718    123728.05    10.472245   0.16391014 
   29500   -276.79907    28.453685   -248.34538    2057.2644    119387.94    10.472245   0.19209958 
   29600   -272.77718     31.00709   -241.77009    2241.8812    131751.12    10.472245   0.23381739 
   29700   -275.74568    28.882991   -246.86269    2088.3041    120641.04    10.472245   0.22340707 
   29800   -279.10428    31.391212   -247.71307     2269.654    115308.36    10.472245   0.15455747 
   29900   -277.16287    34.283525   -242.87934    2478.7747    121746.18    10.472245   0.21302067 
   30000   -272.31448    29.854696   -242.45978    2158.5605    133628.01    10.472245   0.26510095 
   30100    -273.3511    33.412587   -239.93851    2415.8039    132201.59    10.472245   0.24269885 
   30200   -274.93259    28.809375   -246.12322    2082.9815    120766.06    10.472245   0.19607672 
   30300   -277.02393    30.941133    -246.0828    2237.1123    119190.62    10.472245   0.20936832 
   30400   -277.10713    35.300382   -241.80674    2552.2957    121678.78    10.472245   0.21240032 
   30500   -276.02566    32.042571   -243.98309    2316.7488    125002.18    10.472245   0.15982394 
   30600    -279.7776    29.737886   -250.03971    2150.1149       109441    10.472245   0.17414021 
   30700   -276.88482    32.816037   -244.06878    2372.6721    121810.66    10.472245   0.16114371 
   30800   -272.89579    31.072824   -241.82297    2246.6339    133090.07    10.472245    0.2451023 
   30900   -270.91723    32.957121   -237.96011    2382.8727    141731.22    10.472245    0.2197577 
   31000   -276.80531    30.321413   -246.48389    2192.3052    119733.96    10.472245   0.17173807 
   31100   -271.16125    29.384657   -241.77659    2124.5757    137075.36    10.472245   0.25685542 
   31200    -271.6815    32.965436   -238.71606    2383.4739     138569.1    10.472245   0.24633935 
   31300   -274.21696    30.358749   -243.85821    2195.0047    127779.61    10.472245   0.24566722 
   31400   -278.02105    33.264567   -244.75648    2405.1018    117079.93    10.472245   0.15815397 
   31500    -273.7151    31.588544   -242.12655    2283.9216    132851.15    10.472245   0.21593848 
   31600   -271.95469    31.372785   -240.58191    2268.3217    137703.31    10.472245    0.2096777 
   31700   -277.34473    29.156412   -248.18832    2108.0731    117846.49    10.472245   0.17134291 
   31800   -275.24401      32.4785   -242.76551    2348.2674     125097.4    10.472245   0.19521404 
   31900   -272.47581    30.006579   -242.46923    2169.5421    133160.18    10.472245   0.23972796 
   32000   -276.68889    31.404136   -245.28476    2270.5885    121048.95    10.472245   0.20526223 
   32100   -280.14014    29.765173   -250.37497    2152.0879    108779.19    10.472245   0.16192952 
   32200   -274.44534    32.052344   -242.39299    2317.4554     126554.2    10.472245    0.1979813 
   32300   -277.31973    31.287722   -246.03201    2262.1715    119010.75    10.472245   0.21929525 
   32400   -274.40723    29.050771   -245.35646     2100.435    128506.19    10.472245   0.26360336 
   32500   -272.82649    32.223214   -240.60328    2329.8097    133743.98    10.472245   0.19601459 
   32600   -279.70273    32.080444   -247.62229    2319.4871    112175.51    10.472245   0.16089873 
   32700   -271.30826    33.260711   -238.04755     2404.823    137670.57    10.472245   0.23205493 
   32800   -275.13962    32.383595   -242.75602    2341.4055    125396.79    10.472245   0.26063001 
   32900    -276.7645    32.760844   -244.00366    2368.6815    121278.84    10.472245    0.1665768 
   33000   -273.61041    32.493671   -241.11674    2349.3643    128779.43    10.472245   0.20665958 
   33100   -274.21112    30.584642   -243.62648    2211.3373    127495.52    10.472245   0.23047817 
   33200   -280.30233    31.759188   -248.54314    2296.2595    109491.11    10.472245    0.1815308 
   33300   -274.53805    35.880539   -238.65751    2594.2424    130451.58    10.472245   0.20167678 
   33400   -274.86642    29.706136   -245.16029    2147.8194    124322.22    10.472245   0.20384323 
   33500   -276.48992    30.611456   -245.87847     2213.276     119722.5    10.472245   0.15744373 
   33600   -270.39517    31.888327   -238.50684    2305.5966    139298.83    10.472245   0.20659768 
   33700   -277.97919    31.908986   -246.07021    2307.0903    117052.46    10.472245   0.16624543 
   33800   -278.45131    32.800713    -245.6506    2371.5641    116563.54    10.472245   0.17793137 
   33900   -273.00742    29.745816   -243.26161    2150.6883    132907.48    10.472245   0.28018226 
   34000   -272.94725    33.050261   -239.89699     2389.607    131021.98    10.472245   0.23865083 
   34100   -278.82801    27.612472   -251.21554    1996.4428     111051.3    10.472245    0.1513986 
   34200   -274.86443    29.669004   -245.19543    2145.1346    126422.78    10.472245   0.19474088 
   34300   -274.82143    33.407595   -241.41384     2415.443     128315.5    10.472245   0.19310196 
   34400   -279.66341    30.140618   -249.52279    2179.2334    110542.81    10.472245   0.14813642 
   34500   -274.86654    30.879722   -243.98682    2232.6722    125361.32    10.472245    0.2227287 
   34600   -272.41557    31.222842   -241.19273    2257.4805    134847.53    10.472245   0.23321568 
   34700   -277.39378    30.932329   -246.46146    2236.4758    118188.75    10.472245   0.17299885 
   34800   -277.19803    33.363609   -243.83442    2412.2627    123322.17    10.472245   0.18503479 
   34900   -271.15921    30.289573   -240.86964    2190.0031    137874.68    10.472245   0.19707906 
   35000   -273.78548    27.393522   -246.39196    1980.6122    128446.15    10.472245   0.23025082 
   35100   -274.59715    31.919189   -242.67796     2307.828    125863.95    10.472245   0.19873668 
   35200   -277.52901    35.023222   -242.50579    2532.2564    119965.39    10.472245   0.20916409 
   35300   -272.84986     30.26082   -242.58904    2187.9242    130635.38    10.472245   0.19832848 
   35400    -272.9363    31.776595   -241.15971    2297.5181    135418.67    10.472245   0.26169911 
   35500   -271.21562    35.831458   -235.38416    2590.6937     141128.9    10.472245   0.29847769 
   35600   -276.71138    30.737565   -245.97382    2222.3939    119332.72    10.472245   0.18281476 
   35700   -273.41262    30.200598   -243.21202      2183.57    128703.26    10.472245   0.19963037 
   35800   -269.97054    33.626218   -236.34432    2431.2499    146921.05    10.472245   0.28533771 
   35900    -278.9523    31.988201    -246.9641    2312.8177    113460.16    10.472245   0.17307758 
   36000   -274.21601    28.272399   -245.94361     2044.157    125928.53    10.472245   0.18034823 
   36100   -273.76836    33.030466    -240.7379    2388.1757    129487.24    10.472245   0.21557871 
   36200   -277.22595    28.776906   -248.44905     2080.634    117982.17    10.472245   0.20231736 
   36300   -277.35608     32.13135   -245.22473    2323.1677    119227.11    10.472245    0.1902158 
   36400   -274.48611    32.921881   -241.56423    2380.3248    127402.54    10.472245   0.22303892 
   36500    -274.8921    30.725132   -244.16696     2221.495    124978.13    10.472245   0.19345691 
   36600   -276.07031    25.735071   -250.33524    1860.7026    120741.52    10.472245   0.16676017 
   36700   -274.51428    32.813302   -241.70098    2372.4743    129286.66    10.472245    0.1944135 
   36800   -277.39632    32.688276   -244.70805    2363.4347    117650.44    10.472245   0.20163264 
   36900   -277.03655    25.711984   -251.32457    1859.0333     115326.5    10.472245    0.1969426 
   37000   -274.47047    31.160468      -243.31    2252.9707    131444.39    10.472245    0.2161552 
   37100   -277.63552    35.118634   -242.51688    2539.1549    119539.59    10.472245   0.17664631 
   37200   -277.52954    28.799017   -248.73053    2082.2327     117341.2    10.472245   0.18086701 
   37300   -274.54183    36.386782   -238.15505    2630.8448    129549.51    10.472245   0.20413869 
   37400   -276.75561    31.021192   -245.73442    2242.9008    122330.57    10.472245   0.17705354 
   37500   -277.36226    32.566652   -244.79561     2354.641    119379.04    10.472245   0.21567206 
   37600   -272.29682    34.282767   -238.01405    2478.7198    137464.27    10.472245   0.29159998 
   37700    -273.3486    31.378739   -241.96986    2268.7522     133930.4    10.472245    0.2025411 
   37800   -279.18291    31.598288   -247.58462    2284.6261    112830.74    10.472245   0.15857858 
   37900   -272.54107    33.257806   -239.28327     2404.613    134260.08    10.472245   0.25050341 
   38000   -276.66554    33.733677   -242.93186    2439.0194    122032.14    10.472245    0.2046639 
   38100   -276.68914    30.706499   -245.98265    2220.1478    123922.42    10.472245    0.2231983 
   38200   -275.48464    32.050896   -243.43374    2317.3507    125300.17    10.472245   0.21328151 
   38300   -274.76071    31.647145   -243.11357    2288.1586    126409.94    10.472245   0.18470518 
   38400   -277.71035    28.834195   -248.87615    2084.7761    115007.47    10.472245    0.1646666 
   38500   -275.90679    31.264083   -244.64271    2260.4624    120995.93    10.472245   0.17673996 
   38600   -269.49836    28.103576   -241.39478    2031.9507    138955.43    10.472245   0.24798484 
   38700    -277.6552    28.943714   -248.71149    2092.6946    115800.61    10.472245   0.18367864 
   38800   -279.33999    36.092499   -243.24749    2609.5675     114469.7    10.472245   0.15786758 
   38900   -275.98607    36.666522   -239.31954    2651.0706     126870.5    10.472245   0.22201155 
   39000   -275.03727    30.154727   -244.88255    2180.2535    126933.53    10.472245   0.23727908 
   39100   -276.87545    29.266584   -247.60887    2116.0388     119304.2    10.472245   0.19891977 
   39200   -273.07836    34.018614   -239.05975    2459.6211    133179.44    10.472245   0.24092555 
   39300    -275.2288     30.83157   -244.39723    2229.1907    123981.49    10.472245   0.19412553 
   39400   -277.45291    31.389566   -246.06334    2269.5351    119418.56    10.472245   0.18829877 
   39500   -273.26646    31.227932   -242.03853    2257.8485    134490.46    10.472245   0.18313182 
   39600   -269.49565    34.485735   -235.00991    2493.3949    144839.82    10.472245   0.23967507 
   39700   -273.67882    28.990209   -244.68861    2096.0562    128176.11    10.472245   0.19818036 
   39800   -276.14765    30.608808   -245.53884    2213.0845    124292.33    10.472245   0.18381144 
   39900   -273.62064    36.824462   -236.79618      2662.49    136676.06    10.472245   0.19854553 
   40000    -277.1191    32.576289   -244.54281    2355.3377    121080.31    10.472245    0.1883304 
   40100   -276.98405    33.024288   -243.95976    2387.7291    122369.59    10.472245    0.1749244 
   40200    -273.0576    33.124849   -239.93275    2394.9999    132605.79    10.472245   0.19019669 
   40300   -277.13598    30.008888   -247.12709     2169.709    118136.75    10.472245     0.197602 
   40400   -273.34043    29.952084   -243.38834    2165.6019    129185.08    10.472245   0.23608853 
   40500   -275.49713    34.574016   -240.92311    2499.7779    125909.91    10.472245   0.17432699 
   40600   -275.99582    28.841193   -247.15463     2085.282    121404.15    10.472245   0.21875755 
   40700   -274.66113    37.649631    -237.0115    2722.1516    132569.52    10.472245   0.22030311 
   40800   -276.62519    32.915529   -243.70966    2379.8655    120744.69    10.472245   0.16843972 
   40900   -278.71004    32.089563   -246.62048    2320.1464    114813.86    10.472245   0.14980146 
   41000   -274.30908    37.721477    -236.5876    2727.3462    129885.84    10.472245   0.21583222 
   41100    -272.7951    29.479924   -243.31517    2131.4637    130296.56    10.472245   0.25427461 
   41200   -274.70615    30.002456   -244.70369    2169.2439     129003.6    10.472245   0.19629326 
   41300    -272.7613    32.926873   -239.83442    2380.6858    132192.42    10.472245   0.29235184 
   41400   -272.35595    32.038468   -240.31748    2316.4521    135659.82    10.472245   0.26176763 
   41500   -278.77964    32.898858   -245.88078    2378.6602    113785.09    10.472245   0.13525963 
   41600   -275.77851    32.416815    -243.3617    2343.8074    123811.75    10.472245   0.18702622 
   41700   -269.64639    36.208455   -233.43794    2617.9514    144573.03    10.472245   0.25200224 
   41800   -274.11441    31.011865   -243.10255    2242.2264    129869.93    10.472245   0.22414842 
   41900   -276.60163    30.572428    -246.0292    2210.4541    120190.52    10.472245   0.20798259 
   42000   -273.13599    35.347443   -237.78855    2555.6983    132931.01    10.472245   0.16626097 
   42100   -272.21195    28.613466   -243.59848    2068.8169    133933.04    10.472245    0.2277298 
   42200   -275.87327    30.488333   -245.38493    2204.3739    125526.28    10.472245    0.1858316 
   42300   -274.45683    30.335906   -244.12092    2193.3531    126222.82    10.472245   0.18504869 
   42400   -277.54232    35.989826    -241.5525     2602.144    119140.43    10.472245   0.16195695 
   42500   -271.64852    35.588262   -236.06026    2573.1101    139714.21    10.472245   0.20930745 
   42600   -275.90352    30.578391   -245.32513    2210.8853    124129.97    10.472245   0.19724053 
   42700   -276.67585    34.381246    -242.2946    2485.8402    123410.27    10.472245   0.18046168 
   42800   -268.46642    35.594435   -232.87198    2573.5564    150024.56    10.472245     0.247832 
   42900   -273.73329    31.337729   -242.39556    2265.7871    128498.14    10.472245   0.24833184 
   43000   -274.72385    31.808061   -242.91579    2299.7931    126601.75    10.472245   0.18932569 
   43100   -276.50335    28.247958    -248.2554    2042.3898     120029.4    10.472245   0.17892079 
   43200   -276.04758    33.042276    -243.0053    2389.0297    122801.63    10.472245   0.19004972 
   43300    -275.9601    35.058683   -240.90141    2534.8203    124555.92    10.472245   0.19789115 
   43400   -276.52696    28.169215   -248.35775    2036.6965    121187.68    10.472245   0.17468139 
   43500   -271.12884    33.384371   -237.74447    2413.7639    138615.41    10.472245    0.2273779 
   43600   -276.55727    33.368172    -243.1891    2412.5927    123274.82    10.472245   0.20992238 
   43700   -277.14868    31.367323   -245.78136    2267.9268    118218.37    10.472245    0.1747164 
   43800   -268.96077    32.193027   -236.76774     2327.627    143819.89    10.472245   0.24702038 
   43900   -272.75433    29.167312   -243.58701    2108.8612    131832.94    10.472245    0.2329965 
   44000   -273.94391      30.3274   -243.61651    2192.7381    128437.51    10.472245   0.17517073 
   44100   -275.24728    31.357706   -243.88957    2267.2315    124345.06    10.472245   0.18235721 
   44200   -278.70354    33.920554   -244.78298    2452.5311    115934.42    10.472245   0.20245581 
   44300    -273.6602     33.92038   -239.73982    2452.5185    131213.21    10.472245   0.25924817 
   44400   -269.96827    34.858601   -235.10967     2520.354     141933.9    10.472245   0.24096434 
   44500   -279.04824    33.690544    -245.3577    2435.9008    115725.82    10.472245   0.16869474 
   44600   -276.46311    31.516619   -244.94649    2278.7213    120794.22    10.472245   0.16219636 
   44700   -270.90814    33.271832   -237.63631     2405.627    134917.04    10.472245   0.24217973 
   44800   -278.69277    32.673138   -246.01963    2362.3401    115644.37    10.472245    0.1691718 
   44900   -274.67992    29.531613   -245.14831    2135.2009    125634.78    10.472245   0.19213046 
   45000   -271.49644    33.562744    -237.9337    2426.6606    138654.56    10.472245   0.24380476 
   45100   -280.59843    31.979812   -248.61861    2312.2112    108794.08    10.472245   0.16226395 
   45200   -274.67344    31.736377   -242.93706    2294.6102     128789.2    10.472245   0.18518269 
   45300   -275.38138    34.413382     -240.968    2488.1637    128730.14    10.472245   0.20623999 
   45400   -277.92032    28.405745   -249.51457    2053.7982    116647.46    10.472245   0.18052565 
   45500   -275.10803    31.735483   -243.37255    2294.5456    128936.33    10.472245   0.19181288 
   45600   -274.60478    31.247288   -243.35749     2259.248       127057    10.472245    0.1938102 
   45700   -275.64036    28.751652   -246.88871     2078.808    121152.58    10.472245   0.18317025 
   45800   -276.92546    30.468469   -246.45699    2202.9377    118980.73    10.472245   0.21925326 
   45900   -270.90081    29.676663   -241.22414    2145.6884    139344.21    10.472245   0.22847321 
   46000   -278.22032    30.599807   -247.62051    2212.4337    115146.34    10.472245   0.18847544 
   46100   -279.99038    27.086682    -252.9037     1958.427    108052.83    10.472245   0.15222648 
   46200   -273.02361    31.191633   -241.83198    2255.2241    131080.91    10.472245   0.21480676 
   46300   -273.80216    30.784956   -243.01721    2225.8204    131722.03    10.472245   0.21587353 
   46400    -279.4118    29.756281   -249.65552    2151.4449    113532.17    10.472245   0.17191193 
   46500   -272.42679    30.279459   -242.14733    2189.2719    135583.49    10.472245   0.23638336 
   46600   -273.76258    32.391342   -241.37124    2341.9657    129755.32    10.472245   0.23303428 
   46700   -277.09613    29.370927    -247.7252     2123.583    116870.27    10.472245   0.18122161 
   46800   -271.80493    33.675169   -238.12976    2434.7892    137839.88    10.472245   0.22109455 
   46900    -276.7356    33.056733   -243.67886    2390.0749    123153.12    10.472245   0.17906312 
   47000   -276.12302     28.93675   -247.18627     2092.191    119971.25    10.472245   0.18335378 
   47100   -275.44652    37.096575   -238.34994    2682.1644    126665.07    10.472245   0.21463947 
   47200   -275.93404    32.571745    -243.3623    2355.0092    123546.26    10.472245    0.2059533 
   47300   -276.30548    29.992096   -246.31339    2168.4949    121967.74    10.472245    0.1787477 
   47400   -275.32122    30.865214   -244.45601    2231.6233    126385.75    10.472245   0.21511427 
   47500   -272.87712    33.636029   -239.24109    2431.9593    132022.06    10.472245   0.23878974 
   47600   -269.20808    30.826482    -238.3816    2228.8228    143680.58    10.472245   0.29842466 
   47700   -277.43916    30.115021   -247.32414    2177.3826    116533.74    10.472245   0.17653734 
   47800   -272.74958    30.828742   -241.92083    2228.9862    129837.74    10.472245   0.23144694 
   47900    -274.3924    34.068687   -240.32371    2463.2414    130188.81    10.472245   0.24027399 
   48000   -278.70298    32.378771   -246.32421    2341.0568    113975.84    10.472245   0.18344012 
   48100   -273.95969    31.311374   -242.64831    2263.8816    127811.32    10.472245    0.2167876 
   48200   -277.67328    37.942515   -239.73076    2743.3277    120225.08    10.472245   0.18038956 
   48300   -278.53121    32.351295   -246.17991    2339.0702    115875.02    10.472245   0.16378459 
   48400   -274.46108    34.525775    -239.9353    2496.2899    129357.27    10.472245   0.20095765 
   48500   -270.08201     32.20828   -237.87373    2328.7299    139998.77    10.472245   0.26664319 
   48600   -279.53035    35.841254    -243.6891     2591.402    113435.63    10.472245   0.16945088 
   48700   -274.05159    30.625548   -243.42604    2214.2948    127339.04    10.472245   0.20346661 
   48800   -270.74034    35.252138    -235.4882    2548.8075    139340.16    10.472245   0.25191631 
   48900   -273.73862    28.840557   -244.89807    2085.2361    128140.37    10.472245   0.25132752 
   49000   -271.79381    31.892407    -239.9014    2305.8915    138096.88    10.472245   0.22030152 
   49100   -277.12323    32.972977   -244.15025    2384.0192    119710.48    10.472245    0.1681711 
   49200   -272.49315    26.996343   -245.49681    1951.8953     129882.2    10.472245   0.22835209 
   49300   -272.84367    32.230066   -240.61361    2330.3051    132760.02    10.472245   0.25908779 
   49400   -276.05904     36.67868   -239.38036    2651.9497    126127.72    10.472245   0.19107292 
   49500   -277.29989    30.330115   -246.96977    2192.9344    117007.12    10.472245   0.16572864 
   49600   -271.64258    32.049872   -239.59271    2317.2766    138240.78    10.472245   0.19865861 
   49700     -276.368     35.57481   -240.79319    2572.1374    124040.23    10.472245   0.19079711 
   49800   -275.16624    29.876071   -245.29017     2160.106    124159.77    10.472245   0.25234888 
   49900   -275.46066    37.315626   -238.14503    2698.0023    126291.69    10.472245   0.23024598 
   50000   -278.15559    36.696323   -241.45926    2653.2253    117853.24    10.472245   0.16047419 
   50100   -279.76136    33.966153   -245.79521     2455.828    112328.22    10.472245   0.21381214 
   50200   -274.53329    35.004516   -239.52877    2530.9039    130286.15    10.472245   0.20323589 
   50300   -267.49459    35.394304   -232.10029    2559.0865    149375.16    10.472245   0.27267415 
   50400   -276.39523    33.917019   -242.47822    2452.2755    123150.92    10.472245   0.18813521 
   50500   -276.35753    29.692281   -246.66525    2146.8176    124210.23    10.472245   0.18385481 
   50600    -273.4654    33.304068   -240.16133    2407.9578       134469    10.472245   0.18482225 
   50700   -273.49163    32.035588   -241.45604    2316.2439    131305.01    10.472245   0.23778006 
   50800   -277.57561    31.525587   -246.05002    2279.3697     118074.6    10.472245    0.1794483 
   50900   -271.34696    30.321224   -241.02573    2192.2916    133667.42    10.472245   0.31676655 
   51000   -268.66112    31.871097   -236.79002    2304.3508    145544.05    10.472245   0.28501846 
   51100   -273.84829    29.917048   -243.93124    2163.0688    128297.41    10.472245   0.22364127 
   51200   -278.89602    32.940354   -245.95566    2381.6605    116752.96    10.472245   0.17490431 
   51300   -276.51322    33.631448   -242.88177    2431.6281    124993.02    10.472245   0.15765524 
   51400   -276.14228    36.046199   -240.09608    2606.2199    123847.07    10.472245   0.21201098 
   51500   -279.41972    30.211077   -249.20865    2184.3277    111651.84    10.472245   0.14847043 
   51600   -275.37842    29.910481   -245.46794     2162.594    124824.62    10.472245   0.21384825 
   51700   -270.86923    27.860906   -243.00832    2014.4052    134318.65    10.472245   0.24679681 
   51800   -274.01946    33.050749   -240.96871    2389.6423    131797.37    10.472245   0.23462225 
   51900   -277.23906    30.781719   -246.45734    2225.5863    121945.27    10.472245   0.17692494 
   52000   -275.89043    31.125252   -244.76518    2250.4245    121986.66    10.472245   0.17733888 
   52100   -275.76691    36.523983   -239.24293    2640.7647    125158.12    10.472245   0.18188421 
   52200   -275.43819    31.539712   -243.89848     2280.391    124820.14    10.472245   0.19049309 
   52300   -272.38897    28.857448   -243.53152    2086.4573    133233.42    10.472245    0.2713961 
   52400   -269.56793    34.958089   -234.60985    2527.5472    145045.26    10.472245   0.25283117 
   52500   -275.31602    31.512823   -243.80319    2278.4468    125727.14    10.472245   0.19097859 
   52600   -278.48154    32.882031   -245.59951    2377.4435    114798.49    10.472245   0.18303413 
   52700   -271.51209    34.747032   -236.76505    2512.2873    136232.75    10.472245   0.19490564 
   52800   -273.93547    30.275016   -243.66046    2188.9506    129916.81    10.472245   0.21456755 
   52900   -276.30473    31.579094   -244.72564    2283.2384    120116.13    10.472245   0.18101512 
   53000   -273.09477    36.206996   -236.88778    2617.8459     133235.7    10.472245   0.22223361 
   53100   -273.18085    32.646426   -240.53443    2360.4088    134007.45    10.472245   0.23735378 
   53200   -272.71412    28.879938   -243.83418    2088.0834     131087.2    10.472245   0.22464879 
   53300      -275.09    29.081968   -246.00803    2102.6906    123470.21    10.472245   0.22284805 
   53400   -279.93815    33.196438   -246.74171    2400.1759    111434.94    10.472245   0.18141755 
   53500   -272.55183    33.009564   -239.54227    2386.6645    135779.89    10.472245     0.223707 
   53600   -278.73694     32.67514    -246.0618    2362.4849    116743.59    10.472245   0.14824104 
   53700   -276.99508    27.644584    -249.3505    1998.7646    117022.95    10.472245   0.19144408 
   53800   -273.08867    30.802031   -242.28664     2227.055    129660.32    10.472245   0.20170194 
   53900    -276.3937    34.289869   -242.10383    2479.2334    124644.83    10.472245    0.2088034 
   54000   -277.67393    27.839624   -249.83431    2012.8664    116174.95    10.472245    0.1455124 
   54100   -275.90848    33.653457   -242.25502    2433.2194     125699.5    10.472245   0.17591869 
   54200   -271.12548    27.831309   -243.29417    2012.2652    136865.53    10.472245   0.21729687 
   54300   -277.02588    29.632715   -247.39317    2142.5108    120049.45    10.472245   0.16668864 
   54400   -281.18452    31.341519     -249.843    2266.0612    106296.48    10.472245   0.15739322 
   54500   -273.36565    31.307423   -242.05823    2263.5959    131573.35    10.472245    0.2025115 
   54600   -275.63799    30.505467   -245.13252    2205.6128    123466.42    10.472245   0.22253002 
   54700   -279.72362    29.016317   -250.70731    2097.9439    109996.63    10.472245   0.17559786 
   54800   -274.82729    33.714499   -241.11279    2437.6329    126434.36    10.472245   0.17254163 
   54900   -274.11677     27.54619   -246.57058    1991.6505    124745.94    10.472245   0.20430671 
   55000   -277.49731    32.974974   -244.52233    2384.1636    120132.39    10.472245   0.17151164 
   55100   -274.33353    34.554545   -239.77898    2498.3701     129371.7    10.472245   0.21239996 
   55200   -276.46384    30.059127   -246.40472    2173.3414    123513.59    10.472245   0.20733298 
   55300   -275.80164    32.136086   -243.66556    2323.5101    125705.71    10.472245   0.20345819 
   55400   -276.56228    36.259484   -240.30279    2621.6409    123390.03    10.472245   0.15772713 
   55500   -273.83336    28.915246   -244.91812    2090.6363    128425.13    10.472245   0.28887711 
   55600   -275.91865    31.773357   -244.14529     2297.284    125218.13    10.472245   0.18558328 
   55700   -269.88307    31.085804   -238.79727    2247.5724     139666.6    10.472245   0.23542877 
   55800   -278.78693    31.109901   -247.67703    2249.3147    112679.11    10.472245   0.18153092 
   55900    -273.2804    31.904291    -241.3761    2306.7508    132152.37    10.472245    0.2338115 
   56000   -271.93083    31.243848   -240.68698    2258.9993     137924.3    10.472245   0.25825334 
   56100   -276.57659     35.19196   -241.38463    2544.4565    123540.61    10.472245   0.21329158 
   56200   -279.50332    36.529366   -242.97396     2641.154    114062.33    10.472245   0.17383624 
   56300   -274.74261    30.639887   -244.10272    2215.3316     126838.8    10.472245   0.19968143 
   56400   -274.58317    28.245088   -246.33808    2042.1823    126118.41    10.472245   0.26614065 
   56500   -273.96326    34.446817   -239.51644    2490.5811       129339    10.472245   0.19578355 
   56600   -271.56343    26.825868   -244.73757    1939.5696    133933.03    10.472245    0.3034269 
   56700   -276.69239    28.151598   -248.54079    2035.4228    119298.56    10.472245   0.24812589 
   56800   -275.92068    34.088507   -241.83217    2464.6745    124394.24    10.472245   0.18972846 
   56900   -273.39791    32.013298   -241.38462    2314.6322     131891.9    10.472245    0.1999862 
   57000   -278.35283    28.817469   -249.53536    2083.5668     116463.7    10.472245   0.19347478 
   57100   -274.51064      29.7335   -244.77715    2149.7978     130812.6    10.472245   0.20116742 
   57200   -273.43606    31.475355    -241.9607    2275.7378    129384.28    10.472245   0.24556463 
   57300    -270.1679    34.580446   -235.58745    2500.2427    144486.79    10.472245   0.26335096 
   57400    -274.4723    31.479683   -242.99262    2276.0507    124676.58    10.472245    0.2445371 
   57500   -278.67853    33.241739   -245.43679    2403.4512    116908.12    10.472245   0.16393808 
   57600   -275.90361    37.753025   -238.15058    2729.6272    123790.84    10.472245   0.19817108 
   57700   -273.94513    31.169625    -242.7755    2253.6328    131802.37    10.472245   0.17013608 
   57800   -276.15964    30.321858   -245.83778    2192.3374    122423.43    10.472245   0.20377295 
   57900   -272.13381    32.097409    -240.0364    2320.7137    137236.03    10.472245   0.23039381 
   58000   -271.04074    34.201897   -236.83885    2472.8728    142149.48    10.472245   0.25151127 
   58100   -276.87663    30.169742   -246.70688    2181.3391    119525.33    10.472245   0.19627038 
   58200   -275.82107    32.968485   -242.85258    2383.6944     124882.4    10.472245   0.17422833 
   58300   -270.58993    32.794277   -237.79565    2371.0988    139103.58    10.472245   0.19614562 
   58400   -278.76615    33.222378   -245.54377    2402.0514    115603.92    10.472245   0.16564508 
   58500   -272.63285    30.522436   -242.11041    2206.8397    130383.75    10.472245   0.23420399 
   58600   -277.45262    37.512858   -239.93976    2712.2626    122778.76    10.472245    0.1734001 
   58700   -277.12467    29.858082   -247.26659    2158.8054     119834.4    10.472245   0.17140919 
   58800    -275.0005    35.043169   -239.95733    2533.6986     128550.1    10.472245   0.21108569 
   58900     -275.564    35.575743   -239.98826    2572.2049    129687.66    10.472245    0.2046076 
   59000   -276.03192    30.033845   -245.99808    2171.5135    121024.78    10.472245   0.21724216 
   59100   -277.02142    32.066383   -244.95504    2318.4704    121482.38    10.472245   0.20671377 
   59200   -271.96647    33.201291   -238.76517    2400.5268    135649.67    10.472245    0.2512477 
   59300   -273.78992    27.064696   -246.72523    1956.8374    127672.11    10.472245   0.23864929 
   59400   -276.46559    30.925763   -245.53983    2236.0011    123534.46    10.472245   0.18992635 
   59500   -272.24484    39.018455   -233.22639    2821.1206    136044.65    10.472245   0.26221727 
   59600   -274.85134    34.413732   -240.43761    2488.1889    127436.99    10.472245   0.21875532 
   59700   -275.56365    31.342256    -244.2214    2266.1145    125860.68    10.472245   0.21781178 
   59800   -270.23278    32.411894   -237.82089    2343.4516    140943.17    10.472245   0.31601966 
   59900   -271.56637    34.689633   -236.87674    2508.1372    139030.31    10.472245   0.23248957 
   60000    -276.1669    31.960213   -244.20669    2310.7941    123215.13    10.472245   0.18863509 
   60100   -274.85601    29.762934   -245.09307     2151.926    128478.91    10.472245   0.20510368 
   60200   -272.91883     35.12181   -237.79702    2539.3846    133398.78    10.472245   0.18867612 
   60300   -273.17815    28.955812   -244.22234    2093.5692    129735.68    10.472245   0.19550168 
   60400   -275.94872    33.099171   -242.84955    2393.1433    123938.11    10.472245   0.17618772 
   60500   -269.56446     33.16014   -236.40432    2397.5515    146918.07    10.472245   0.23384862 
   60600   -276.04773    32.020805   -244.02692     2315.175     122759.4    10.472245   0.17674225 
   60700   -277.10422    32.342425    -244.7618    2338.4289     120554.6    10.472245   0.20535797 
   60800   -272.31989     35.80079    -236.5191    2588.4763    136775.18    10.472245   0.25714089 
   60900   -274.22997    29.146255   -245.08372    2107.3387    127506.75    10.472245    0.2090354 
   61000   -276.80631    31.184643   -245.62167    2254.7186    122218.85    10.472245   0.24795979 
   61100   -276.80582    36.459662   -240.34616    2636.1142    123082.61    10.472245   0.16610491 
   61200   -278.64729    32.987933   -245.65936    2385.1005    116161.25    10.472245   0.17230299 
   61300   -277.98407    33.267374    -244.7167    2405.3047     117833.1    10.472245   0.15772068 
   61400   -272.54673    31.234094   -241.31264    2258.2941    133034.56    10.472245   0.23122991 
   61500   -269.94059    33.813806   -236.12678     2444.813    143455.94    10.472245   0.24276141 
   61600   -277.69951    35.361321   -242.33819    2556.7017    120727.19    10.472245   0.16064402 
   61700   -275.79007     30.53632   -245.25375    2207.8435    122643.86    10.472245   0.20952479 
   61800    -275.5182    41.491465   -234.02673    2999.9247    130486.95    10.472245   0.19755523 
   61900   -272.54127    32.291705   -240.24957    2334.7617    134613.92    10.472245   0.19281119 
   62000    -277.8515    31.081496   -246.77001    2247.2609    119269.64    10.472245   0.16066565 
   62100   -270.78689    30.997929   -239.78896    2241.2189    138988.72    10.472245   0.24302757 
   62200   -270.71507    31.149483   -239.56559    2252.1765    137950.32    10.472245   0.24698569 
   62300   -274.36191    28.740193   -245.62171    2077.9795    125543.82    10.472245   0.22348312 
   62400   -275.54443    33.966528    -241.5779    2455.8551    128597.79    10.472245   0.20135647 
   62500   -267.75284    34.893194   -232.85965    2522.8551    154588.47    10.472245   0.28545437 
   62600   -275.92997    33.647535   -242.28243    2432.7912    124709.93    10.472245   0.20642357 
   62700   -276.13444    32.272318   -243.86212      2333.36    122466.44    10.472245   0.23324973 
   62800   -271.20724    34.942045   -236.26519    2526.3872    138297.32    10.472245   0.22515566 
   62900   -276.59102    30.472275   -246.11874    2203.2129    119836.72    10.472245   0.16491458 
   63000   -274.22913    29.694454   -244.53468    2146.9747    127005.03    10.472245   0.19026088 
   63100   -268.42924    31.352333    -237.0769     2266.843    148329.75    10.472245   0.29762066 
   63200   -270.45901    34.352343   -236.10667    2483.7503    144161.58    10.472245   0.31009215 
   63300    -277.7505    31.855982   -245.89452    2303.2579    118966.06    10.472245   0.19100468 
   63400   -276.69679    33.355365   -243.34143    2411.6667    123194.25    10.472245   0.19770545 
   63500   -270.88947    32.153647   -238.73582    2324.7798    139366.88    10.472245    0.3323138 
   63600   -274.50013    24.888035    -249.6121      1799.46    124149.29    10.472245   0.20686961 
   63700   -276.88026    34.293951   -242.58631    2479.5285    121848.02    10.472245   0.17667153 
   63800   -277.10577     36.31533   -240.79044    2625.6787     122768.8    10.472245   0.19689472 
   63900   -278.47446    28.606459     -249.868    2068.3102    114660.13    10.472245   0.13835053 
   64000   -276.49766    33.095376   -243.40228    2392.8689    121932.43    10.472245   0.15519323 
   64100   -275.22482    32.421023    -242.8038    2344.1117     127730.7    10.472245   0.18232868 
   64200   -280.88471     29.31069   -251.57402    2119.2277    108003.79    10.472245   0.16577936 
   64300   -276.84844    31.780622   -245.06782    2297.8092    122867.12    10.472245   0.17605471 
   64400   -272.81474    30.886757   -241.92799    2233.1809    131250.29    10.472245   0.18974478 
   64500   -270.72308    30.985868   -239.73721    2240.3468    140068.98    10.472245   0.27918905 
   64600   -272.13947    31.765269    -240.3742    2296.6992    132430.58    10.472245   0.23415483 
   64700       -277.1    30.875818   -246.22418      2232.39     119789.8    10.472245    0.1694141 
   64800   -274.06561    35.027999   -239.03761    2532.6018    130386.54    10.472245   0.19314703 
   64900   -274.48257    35.099905   -239.38267    2537.8007    127580.23    10.472245   0.22036741 
   65000   -273.85925    29.629104   -244.23014    2142.2498    127134.64    10.472245   0.25100344 
   65100   -273.84106    33.245752   -240.59531    2403.7414    133338.56    10.472245   0.18827282 
   65200   -273.77116    34.383498   -239.38766    2486.0029    131828.69    10.472245   0.21376687 
   65300   -276.30421    31.270245   -245.03397    2260.9079    123163.32    10.472245   0.21418996 
   65400   -271.64624    31.949039    -239.6972    2309.9862    136162.92    10.472245   0.22936348 
   65500   -271.54527    33.686909   -237.85837     2435.638    140176.97    10.472245   0.24408163 
   65600   -278.45443    33.093321    -245.3611    2392.7203    117899.78    10.472245   0.16556919 
   65700   -272.00922    31.357203   -240.65202    2267.1951    133940.44    10.472245   0.24340467 
   65800   -268.46449     34.73385   -233.73064    2511.3342     145625.2    10.472245   0.30591119 
   65900   -273.87309    30.526404   -243.34669    2207.1265    128764.78    10.472245   0.24631272 
   66000   -277.26961    31.150173   -246.11944    2252.2264    119488.38    10.472245   0.18853147 
   66100    -275.5056    36.960093   -238.54551    2672.2965    128808.19    10.472245   0.21983878 
   66200    -271.8424    30.082846   -241.75956    2175.0563    135420.61    10.472245    0.2249608 
   66300   -275.81204    31.238513   -244.57353    2258.6136    123858.76    10.472245   0.20789355 
   66400   -270.06068    30.424869   -239.63581    2199.7854    143726.37    10.472245   0.27400944 
   66500   -273.59415    40.262036   -233.33212    2911.0343    134569.31    10.472245   0.20390776 
   66600   -274.90138    29.516033   -245.38535    2134.0745    125660.68    10.472245   0.23732765 
   66700   -277.20456    35.193482   -242.01107    2544.5666    123293.17    10.472245   0.18091147 
   66800   -273.24228    28.197134   -245.04515    2038.7151    129978.47    10.472245    0.2172617 
   66900   -279.12973    29.763736     -249.366     2151.984    113958.96    10.472245   0.15584248 
   67000    -277.1274    37.936312   -239.19109    2742.8792    121756.29    10.472245   0.18259074 
   67100   -273.63878    29.910605   -243.72817    2162.6029    129777.69    10.472245   0.19674483 
   67200    -277.9452    28.383173   -249.56202    2052.1662    112593.73    10.472245   0.19785249 
   67300   -278.71053     34.09724   -244.61329    2465.3059    115853.52    10.472245    0.1923148 
   67400   -272.91624    31.329034   -241.58721    2265.1585    133611.81    10.472245   0.20391657 
   67500   -278.64096    29.438809   -249.20215     2128.491    114326.39    10.472245   0.14395084 
   67600   -275.21085    33.348077   -241.86277    2411.1397    128237.86    10.472245   0.18113155 
   67700   -276.43876    34.830686   -241.60807    2518.3356    123274.67    10.472245   0.19752227 
   67800   -274.80769    28.428246   -246.37944    2055.4251    127420.44    10.472245   0.19950756 
   67900   -280.37924     40.89623   -239.48301    2956.8879    115061.29    10.472245   0.17277744 
   68000   -273.13573    30.686847   -242.44888    2218.7269    131344.91    10.472245   0.27748258 
   68100   -275.15111    27.576803    -247.5743    1993.8639    122390.31    10.472245   0.20013094 
   68200   -271.71638    35.600242   -236.11614    2573.9763    138281.14    10.472245   0.19024732 
   68300   -279.01474    34.336092   -244.67865    2482.5754    114623.24    10.472245   0.18032319 
   68400   -276.27662     31.82176   -244.45486    2300.7837    120693.15    10.472245   0.20560265 
   68500   -270.88215    34.687864   -236.19429    2508.0093    140504.49    10.472245   0.29885487 
   68600   -276.98284    33.833118   -243.14972    2446.2092    122707.33    10.472245   0.18282888 
   68700   -274.23146    30.765482   -243.46598    2224.4124    128201.78    10.472245   0.22075417 
   68800   -268.49383    30.768927    -237.7249    2224.6615    147623.14    10.472245   0.27925405 
   68900   -275.45024    30.836614   -244.61363    2229.5554    122115.36    10.472245   0.19832944 
   69000   -275.85728    29.983381    -245.8739    2167.8647    123467.49    10.472245   0.20774463 
   69100   -271.33569    34.112956   -237.22274    2466.4422     136812.7    10.472245   0.21517171 
   69200   -275.96862    32.700089   -243.26853    2364.2888    125413.55    10.472245    0.1713549 
   69300   -274.73221    29.175566   -245.55665     2109.458     127532.8    10.472245   0.17088155 
   69400   -274.04687    35.714421   -238.33245    2582.2316    131456.32    10.472245    0.1896858 
   69500   -276.69966    32.948287   -243.75137    2382.2341    118554.05    10.472245   0.18392023 
   69600   -273.98258    27.448489   -246.53409    1984.5865    125922.23    10.472245   0.19688276 
   69700   -273.27052    31.249467   -242.02105    2259.4056     133543.2    10.472245   0.21203963 
   69800    -275.8841    32.853681   -243.03041    2375.3938    125485.72    10.472245   0.19848821 
   69900   -277.05848    32.759431   -244.29905    2368.5793    121315.02    10.472245   0.23279936 
   70000   -272.52571     35.23977   -237.28594    2547.9133    135948.72    10.472245   0.26823665 
   70100   -274.13906    32.266976   -241.87208    2332.9737    126657.83    10.472245   0.26542991 
   70200   -273.92722    29.628935   -244.29828    2142.2375    130349.97    10.472245     0.214891 
   70300   -278.07301    27.217159   -250.85585    1967.8608    114948.33    10.472245    0.1583732 
   70400   -279.52998    33.736434   -245.79355    2439.2188    114442.38    10.472245   0.18139065 
   70500   -273.49179    31.692728   -241.79907    2291.4543    131360.73    10.472245   0.20300832 
   70600   -279.00955    31.292594   -247.71695    2262.5238    114220.08    10.472245   0.17896572 
   70700   -278.23842    31.053895   -247.18452    2245.2653    116334.73    10.472245   0.18741764 
   70800   -276.85654    35.600075   -241.25647    2573.9642    122973.37    10.472245   0.16880262 
   70900   -274.82123    28.834088   -245.98714    2084.7684     124114.5    10.472245   0.21269626 
   71000   -274.68046    35.058002   -239.62246    2534.7711       129294    10.472245   0.20314463 
   71100   -275.65247    34.061284   -241.59118    2462.7061    125121.98    10.472245   0.19035688 
   71200   -277.76314    31.822236   -245.94091     2300.818    118199.68    10.472245   0.17567847 
   71300   -276.31732    36.284957   -240.03236    2623.4827    124648.18    10.472245   0.21044388 
   71400   -269.26941    33.497291   -235.77212    2421.9283    145151.09    10.472245   0.26860983 
   71500   -278.19308    32.529765   -245.66332     2351.974    115314.19    10.472245   0.18012474 
   71600   -272.88839    30.473015   -242.41538    2203.2664    132619.07    10.472245   0.25521875 
   71700   -276.54293    36.626099   -239.91684     2648.148    123334.73    10.472245   0.21330343 
   71800   -276.36072    31.781228   -244.57949    2297.8531     123218.9    10.472245   0.20522615 
   71900   -277.79447    35.051371    -242.7431    2534.2916    117418.46    10.472245   0.18348244 
   72000   -275.07812    35.471942   -239.60618    2564.6999    126555.13    10.472245    0.1796905 
   72100   -278.59925    32.473869   -246.12538    2347.9325    115182.04    10.472245    0.1654125 
   72200   -275.38544     29.64955   -245.73589    2143.7281    124107.21    10.472245   0.19816923 
   72300   -272.62217    32.093471   -240.52869    2320.4289    133138.62    10.472245   0.21949957 
   72400   -275.64577    30.272937   -245.37283    2188.8003    124066.92    10.472245   0.18031293 
   72500   -279.33911    31.112907    -248.2262     2249.532    114528.65    10.472245   0.19183076 
   72600   -274.81802    35.368551   -239.44947    2557.2245    130107.35    10.472245   0.22530922 
   72700   -274.13448    31.119776    -243.0147    2250.0286    125682.67    10.472245   0.23472988 
   72800     -275.248    27.443637   -247.80436    1984.2356    123256.62    10.472245   0.21250213 
   72900   -277.42427    32.429594   -244.99468    2344.7313    119171.99    10.472245   0.20220894 
   73000   -273.80617    33.232002   -240.57417    2402.7473    131666.81    10.472245   0.22109863 
   73100   -271.70258    32.398029   -239.30455    2342.4491    138112.64    10.472245   0.21656474 
   73200   -276.11777    28.698832   -247.41894     2074.989    120621.82    10.472245   0.17163711 
   73300   -276.33805    35.222732   -241.11532    2546.6814    123528.65    10.472245   0.19268221 
   73400   -274.81901    33.793854   -241.02516    2443.3704    128577.32    10.472245   0.20802618 
   73500   -277.50204    32.402732   -245.09931    2342.7892    118176.94    10.472245   0.19121801 
   73600   -270.87722     34.79166   -236.08556     2515.514    142347.56    10.472245   0.25991882 
   73700   -274.09478     30.86855   -243.22623    2231.8645    129788.18    10.472245   0.20646415 
   73800    -275.8682    31.163351   -244.70485    2253.1792    124459.11    10.472245   0.21911475 
   73900   -274.22882    37.991916    -236.2369    2746.8996    128730.47    10.472245   0.22510729 
   74000   -274.05689    31.692097   -242.36479    2291.4087    128743.99    10.472245   0.20516382 
   74100   -280.29048    34.615038   -245.67544    2502.7438    110271.44    10.472245   0.16110307 
   74200    -268.8315    30.007436   -238.82406     2169.604    141157.81    10.472245     0.293962 
   74300    -273.8708    32.911746   -240.95905     2379.592    129811.56    10.472245   0.21836921 
   74400   -278.86761    33.179029   -245.68859    2398.9172    115966.85    10.472245   0.19420069 
   74500     -269.892    31.166145   -238.72586    2253.3812    142449.49    10.472245   0.27840386 
   74600   -272.58634    29.627803   -242.95854    2142.1557    131333.32    10.472245   0.31808141 
   74700   -273.24697    29.986576   -243.26039    2168.0958     131979.7    10.472245   0.28378327 
   74800    -273.5902    33.069247   -240.52096    2390.9797    129320.87    10.472245   0.25084743 
   74900   -277.91705    27.223892   -250.69316    1968.3476    115788.24    10.472245   0.18661438 
   75000   -277.61486    31.903155    -245.7117    2306.6687    117944.46    10.472245   0.18375713 
   75100   -277.14409    35.097458   -242.04664    2537.6239    122328.55    10.472245   0.19231315 
   75200   -275.91275    27.059654    -248.8531    1956.4728    120623.65    10.472245   0.19016275 
   75300   -277.89617    33.897112   -243.99906    2450.8362    117639.07    10.472245   0.17849261 
   75400   -271.61182    29.654651   -241.95717    2144.0968    135820.77    10.472245   0.21423021 
   75500   -277.43917    27.593958   -249.84522    1995.1042    118682.96    10.472245   0.18658376 
   75600    -279.2565    31.395859   -247.86064      2269.99    112745.79    10.472245    0.1743049 
   75700   -274.58544    31.310314   -243.27513     2263.805    126145.37    10.472245   0.24259878 
   75800   -274.52667    36.183745   -238.34293    2616.1648    129496.04    10.472245   0.19103025 
   75900   -275.97982    28.432496   -247.54732    2055.7323    120624.87    10.472245   0.21688144 
   76000   -275.04425    32.691043    -242.3532    2363.6347    126142.92    10.472245   0.20827914 
   76100   -274.49573    32.627234    -241.8685    2359.0212    128978.59    10.472245    0.2250482 
   76200   -276.52681    27.199738   -249.32707    1966.6012    117821.46    10.472245    0.1671728 
   76300   -275.16414    33.622633   -241.54151    2430.9907     128047.9    10.472245   0.23884468 
   76400   -273.63342    32.757433   -240.87599    2368.4349    129606.88    10.472245   0.23385823 
   76500   -278.92344    27.494898   -251.42854    1987.9419     112301.1    10.472245   0.18459562 
   76600   -277.57237    29.048399   -248.52398    2100.2635    116640.01    10.472245   0.16264308 
   76700   -272.86448    31.806042   -241.05844    2299.6472    129640.18    10.472245   0.21297186 
   76800   -275.22287    30.179625   -245.04324    2182.0536    125429.69    10.472245   0.18936175 
   76900   -280.38748    31.524722   -248.86276    2279.3071       111026    10.472245   0.16786787 
   77000   -274.72546    31.603448   -243.12201    2284.9992    124649.74    10.472245   0.20554891 
   77100   -272.11715    29.794718   -242.32243     2154.224    132543.81    10.472245   0.26885507 
   77200   -279.86673    32.090484   -247.77625     2320.213     111602.5    10.472245   0.15280739 
   77300   -276.93589    36.930464   -240.00543    2670.1542    122187.46    10.472245   0.18788545 
   77400   -272.03891    29.746574   -242.29233    2150.7431     133633.5    10.472245   0.23806637 
   77500   -278.73639    27.917414   -250.81897    2018.4908    111924.32    10.472245   0.19984905 
   77600   -279.00896     27.43547   -251.57349    1983.6451    111882.42    10.472245   0.19682343 
   77700   -272.11396    28.442107   -243.67185    2056.4273    136058.04    10.472245     0.248974 
   77800   -272.79412    32.625532   -240.16859    2358.8981    133300.66    10.472245   0.24047128 
   77900   -279.24751    30.584163   -248.66335    2211.3027    113889.13    10.472245   0.19598307 
   78000   -278.77151     33.95076   -244.82075     2454.715    116712.43    10.472245    0.1603579 
[...]
  481400   -272.14012    30.934532   -241.20558    2236.6351    135901.03    10.472245    0.8691666 
  481500   -271.66221    38.011712    -233.6505    2748.3309    139136.13    10.472245    1.0289137 
  481600   -274.28368    33.247427   -241.03625    2403.8625    129056.56    10.472245   0.91814282 
  481700   -276.62873    31.106279   -245.52245    2249.0528    121371.63    10.472245   0.96825534 
  481800   -275.30992    34.975198   -240.33473    2528.7842    127413.12    10.472245   0.91988431 
  481900   -276.71604    34.485598   -242.23044     2493.385    122099.65    10.472245    1.0108611 
  482000   -278.13826    30.094622   -248.04364    2175.9077    116945.35    10.472245   0.95198369 
  482100   -275.15576    34.193032   -240.96272    2472.2319    125539.26    10.472245    1.0570767 
  482200   -275.02867    26.032857   -248.99582    1882.2331     121424.4    10.472245    1.0288862 
  482300   -276.04076    30.343159    -245.6976    2193.8775    118764.62    10.472245   0.98678473 
  482400   -275.91438    34.851574    -241.0628    2519.8459    125326.43    10.472245    0.8839308 
  482500   -280.90213    30.693921   -250.20821    2219.2384    107155.44    10.472245   0.98630217 
  482600   -278.45584    33.870292   -244.58555     2448.897    115050.05    10.472245   0.91939351 
  482700   -274.60123    31.800862   -242.80036    2299.2726    127326.54    10.472245    1.1067501 
  482800   -274.39473    25.031172   -249.36356    1809.8091    125329.96    10.472245   0.96923891 
  482900   -275.69705    30.710951    -244.9861    2220.4697    121995.23    10.472245    1.0206306 
  483000   -276.06571    34.011585   -242.05412    2459.1128    123215.14    10.472245   0.93331616 
  483100   -279.64382    33.406977   -246.23684    2415.3984    112683.69    10.472245    1.0146148 
  483200   -279.97673    30.764763   -249.21197    2224.3604    110247.66    10.472245   0.88893348 
  483300   -274.67003    34.094952   -240.57508    2465.1404    126689.54    10.472245    1.0246112 
  483400   -276.73069    32.163565   -244.56713    2325.4969    120399.39    10.472245   0.94831908 
  483500   -279.00022    28.015954   -250.98427    2025.6155     113487.5    10.472245   0.94450875 
  483600   -274.06382     34.14146   -239.92235    2468.5031    129762.43    10.472245    1.0543605 
  483700   -276.49054    33.426405   -243.06413     2416.803    123929.81    10.472245    1.0872037 
  483800   -274.37863    27.177302   -247.20132    1964.9791    126994.26    10.472245   0.98592797 
  483900   -272.30231    31.865922   -240.43639    2303.9767    134899.84    10.472245   0.96864811 
  484000   -270.37901    27.289296   -243.08971    1973.0765    135946.17    10.472245    1.0861136 
  484100    -279.4988    30.726229   -248.77257    2221.5744     110643.2    10.472245   0.95844913 
  484200   -270.75044    31.375135   -239.37531    2268.4916    143446.28    10.472245   0.93768526 
  484300   -275.79617    31.764321   -244.03185    2296.6306    120381.12    10.472245   0.96477344 
  484400   -278.15753    32.106133   -246.05139    2321.3445    115925.72    10.472245   0.93408128 
  484500   -270.69978    36.012061   -234.68772    2603.7517    140430.73    10.472245    1.0142024 
  484600   -278.54046    35.010765    -243.5297    2531.3558    117150.93    10.472245   0.96109022 
  484700   -275.33425    29.695891   -245.63836    2147.0786    125079.14    10.472245   0.96756917 
  484800   -275.72805    39.899647    -235.8284    2884.8327    129497.43    10.472245    1.0331651 
  484900   -271.83519    29.632782    -242.2024    2142.5157    134039.55    10.472245    1.0139881 
  485000   -274.04213    30.707786   -243.33434    2220.2409    126869.47    10.472245    1.0251768 
  485100    -271.0031    34.014946   -236.98815    2459.3558    138412.66    10.472245   0.97367072 
  485200   -275.33558    30.349636   -244.98594    2194.3458    123355.79    10.472245   0.98253207 
  485300    -278.6894    33.589118   -245.10028    2428.5675    116486.17    10.472245   0.96669155 
  485400   -271.83259    32.915362   -238.91723    2379.8535    135471.14    10.472245   0.97647471 
  485500   -283.01854    33.853594   -249.16494    2447.6897    103587.19    10.472245   0.89789675 
  485600   -273.90125    30.033049    -243.8682    2171.4558    128158.95    10.472245    1.0786892 
  485700   -273.64984     33.02816   -240.62168     2388.009    131255.62    10.472245    1.1110688 
  485800   -277.27126    32.647623   -244.62364    2360.4953    119856.25    10.472245   0.88309132 
  485900   -280.46386     30.51535   -249.94851    2206.3273    106884.28    10.472245    0.8750341 
  486000     -277.337    35.153863   -242.18313     2541.702    119363.24    10.472245   0.95955629 
  486100   -278.22764    34.683497   -243.54415    2507.6935    117186.46    10.472245   0.91858693 
  486200   -279.46485     29.15138   -250.31347    2107.7092    110160.55    10.472245   0.95960931 
  486300    -275.6244     33.69345   -241.93095     2436.111    126673.03    10.472245   0.97927067 
  486400    -278.9994    35.245253   -243.75415    2548.3098    115916.44    10.472245   0.92185151 
  486500   -276.98137    25.518456   -251.46292    1845.0408    115866.67    10.472245    0.9852998 
  486600   -273.81962    30.906002   -242.91362    2234.5723    130967.72    10.472245   0.93444486 
  486700   -271.41358    30.515056   -240.89853     2206.306    138428.53    10.472245    1.0355372 
  486800   -278.80725    29.960796   -248.84645    2166.2318    112469.06    10.472245   0.91838862 
  486900   -274.36278     30.43386   -243.92892    2200.4354    128656.54    10.472245   0.97081606 
  487000   -274.91183    31.875029    -243.0368    2304.6351    124302.59    10.472245   0.97503076 
  487100   -279.13186    29.400963   -249.73089    2125.7546    113251.52    10.472245    1.0215793 
  487200   -274.20133    31.403486   -242.79784    2270.5415     127717.4    10.472245   0.99395243 
  487300   -275.60989    32.538791   -243.07109    2352.6266    125780.22    10.472245   0.92210046 
  487400   -276.50595    28.828515   -247.67743    2084.3654    119131.01    10.472245    0.9109388 
  487500   -279.38572    29.039462   -250.34626    2099.6173    109981.08    10.472245   0.89658364 
  487600   -272.27701    30.586308    -241.6907    2211.4577    132159.94    10.472245    1.1015916 
  487700   -273.24506    33.887041   -239.35802     2450.108     132693.7    10.472245   0.99835413 
  487800   -276.60966    28.097461    -248.5122    2031.5086    117455.92    10.472245     0.997517 
  487900   -274.57462    31.496745   -243.07788    2277.2843    126857.98    10.472245    1.0647836 
  488000   -274.00675    32.429027   -241.57772    2344.6904       131596    10.472245   0.98542163 
  488100   -274.57539    28.100525   -246.47487    2031.7301    123744.17    10.472245   0.90095201 
  488200   -280.20648    29.514046   -250.69243    2133.9308    108898.31    10.472245   0.95266356 
  488300   -272.80043    28.332679   -244.46776    2048.5154    129610.02    10.472245   0.98939784 
  488400   -275.97538    35.033139   -240.94224    2532.9735    124864.25    10.472245   0.97546018 
  488500   -275.63585    25.123142   -250.51271    1816.4587     121175.8    10.472245    1.0276702 
  488600   -275.36698    31.225207   -244.14178    2257.6515    124285.32    10.472245   0.95591743 
  488700   -274.75696    31.984904   -242.77205    2312.5793    126634.06    10.472245    1.0079613 
  488800   -280.78472    29.417061   -251.36766    2126.9185    109314.67    10.472245   0.98657733 
  488900   -273.76366    28.046964    -245.7167    2027.8575    127801.28    10.472245   0.96331754 
  489000   -276.09777    34.113563   -241.98421     2466.486    122888.03    10.472245   0.97345597 
  489100   -269.77842    32.144061   -237.63436    2324.0867    147069.46    10.472245    1.0915777 
  489200   -273.12236    34.383124   -238.73924    2485.9759    133427.07    10.472245    1.0788367 
  489300   -275.15879    31.606663   -243.55213    2285.2316    125038.69    10.472245   0.94246336 
  489400   -275.44672    27.731484   -247.71524    2005.0476    128215.53    10.472245   0.93014821 
  489500   -281.19204     32.00407   -249.18797    2313.9651    105405.09    10.472245   0.94046788 
  489600   -276.69419    35.245063   -241.44913     2548.296    120170.37    10.472245    1.0477472 
  489700   -271.17335    30.885699   -240.28765    2233.1044    138668.17    10.472245    1.0478417 
  489800   -278.37962    30.114078   -248.26555    2177.3144    113901.34    10.472245    1.0333238 
  489900   -273.88946    32.063973   -241.82549    2318.2961     130024.5    10.472245    1.1431554 
  490000   -278.24978    36.787043   -241.46274    2659.7846     120776.3    10.472245   0.94674151 
  490100   -275.79127    29.214438   -246.57683    2112.2685    124582.97    10.472245   0.97845178 
  490200   -276.74857    34.710335   -242.03823     2509.634    122591.95    10.472245   0.96137669 
  490300   -275.28321    35.502694   -239.78052    2566.9233    128794.97    10.472245   0.99908259 
  490400   -276.32255    29.724436   -246.59812    2149.1425    121049.12    10.472245    1.0180944 
  490500   -277.14551    33.084278   -244.06123    2392.0665    121979.05    10.472245   0.97518492 
  490600   -276.19287      30.4516   -245.74127     2201.718    122842.73    10.472245   0.98420799 
  490700    -279.3988    30.859366   -248.53943    2231.2004    114431.23    10.472245   0.95224934 
  490800   -274.16361    33.857187   -240.30642    2447.9495    132027.16    10.472245     0.952435 
  490900   -274.47516    31.770255   -242.70491    2297.0597    126330.44    10.472245    0.9436777 
  491000   -274.91416    31.087324   -243.82684    2247.6823    126769.13    10.472245    1.0254583 
  491100   -273.03436    29.042956    -243.9914      2099.87    130573.46    10.472245    1.0621407 
  491200   -278.40023    33.908918   -244.49131    2451.6898    116465.54    10.472245   0.97268331 
  491300   -275.58441     32.19249   -243.39192    2327.5882    126976.52    10.472245    1.0691831 
  491400   -272.14964    32.214584   -239.93505    2329.1857    134648.53    10.472245    1.0073957 
  491500   -273.72196    32.387017   -241.33495    2341.6529    128853.52    10.472245    1.0411977 
  491600   -275.60701    27.585689   -248.02132    1994.5063     120595.6    10.472245   0.98507969 
  491700   -276.02768    33.864467   -242.16321    2448.4758    124071.01    10.472245    1.0453111 
  491800   -275.60181    32.031975   -243.56983    2315.9826    124844.46    10.472245   0.99333469 
  491900   -279.21304    30.719398   -248.49364    2221.0804    113898.45    10.472245   0.94267076 
  492000   -274.50413    26.196016   -248.30811    1894.0299    123923.51    10.472245    1.0073146 
  492100   -270.22521    29.746793   -240.47842    2150.7589    140229.55    10.472245      1.09775 
  492200    -275.0076    30.242073   -244.76552    2186.5688    128543.26    10.472245    1.0223819 
  492300   -278.32232    29.262188   -249.06013    2115.7209    111688.32    10.472245   0.93954279 
  492400   -274.12877    29.456235   -244.67253     2129.751    129071.86    10.472245   0.95004154 
  492500   -272.77971     31.09612   -241.68359    2248.3182    130232.59    10.472245    1.0386171 
  492600   -277.52297    29.801973   -247.72099    2154.7485    116380.83    10.472245   0.98090199 
  492700   -273.20351    30.352524   -242.85099    2194.5546    131454.54    10.472245   0.92857903 
  492800   -270.67836    30.855079   -239.82328    2230.8905    140082.71    10.472245   0.95911137 
  492900   -275.65584    29.810765   -245.84507    2155.3843    123568.74    10.472245   0.95341663 
  493000   -275.56608    31.096152   -244.46992    2248.3206    123219.57    10.472245    1.0638656 
  493100   -274.59627    33.205449   -241.39082    2400.8274    127875.49    10.472245    1.0027008 
  493200   -274.39533    30.893272   -243.50205    2233.6519    127910.41    10.472245   0.94479797 
  493300   -275.80805    31.295362   -244.51269    2262.7239    122795.39    10.472245   0.96210756 
  493400   -267.59444    31.972143    -235.6223    2311.6567    149959.42    10.472245    1.0951894 
  493500   -271.77392    31.049712   -240.72421    2244.9628     136648.9    10.472245    1.0460335 
  493600   -277.03972    31.159766   -245.87996      2252.92    119022.36    10.472245   0.94692206 
  493700   -274.88379    34.549745   -240.33404     2498.023    127785.51    10.472245   0.98733245 
  493800   -272.15147    31.124451   -241.02702    2250.3667     136526.8    10.472245   0.96375554 
  493900   -279.09763    33.564324   -245.53331    2426.7749    112503.61    10.472245   0.96115081 
  494000   -273.74906    32.701945   -241.04711    2364.4229    131704.25    10.472245    1.0243666 
  494100   -269.82143    35.204114   -234.61732    2545.3353    146493.32    10.472245    1.0452838 
  494200   -274.17918    31.081631   -243.09755    2247.2706    130460.97    10.472245    1.0479088 
  494300   -278.17157    32.201933   -245.96964     2328.271    116785.98    10.472245   0.87871444 
  494400   -275.29094    29.974996   -245.31594    2167.2585    122514.55    10.472245    0.9981406 
  494500   -275.32704    35.570796   -239.75624    2571.8472    128529.59    10.472245    1.0485479 
  494600   -273.81222    25.133041   -248.67918    1817.1744    127383.18    10.472245   0.93992555 
  494700    -279.0383    33.467323   -245.57097    2419.7614    114335.66    10.472245   0.96371909 
  494800   -270.03218      27.8101   -242.22208    2010.7317    138536.84    10.472245   0.95501176 
  494900   -274.50115    31.685735   -242.81541    2290.9487    128491.83    10.472245   0.93423458 
  495000   -277.80341    27.610554   -250.19286    1996.3041    116315.17    10.472245   0.92616731 
  495100   -272.80739    27.119469   -245.68792    1960.7976    128414.83    10.472245   0.99610032 
  495200    -271.8958     30.81565   -241.08015    2228.0396    134502.71    10.472245   0.99778144 
  495300    -275.2915    30.925741   -244.36576    2235.9995    124098.97    10.472245    1.0781248 
  495400   -278.65175    28.860279   -249.79147     2086.662    114637.04    10.472245   0.87771274 
  495500   -273.77439    29.588098   -244.18629    2139.2849    128477.41    10.472245    1.0020696 
  495600    -274.3517    32.063148   -242.28856    2318.2365    129098.07    10.472245    0.9580494 
  495700   -279.84905    30.855311   -248.99374    2230.9072    108508.67    10.472245   0.92770101 
  495800   -273.69199    30.108991     -243.583    2176.9466    128725.23    10.472245    1.0484139 
  495900   -272.03001    30.930433   -241.09958    2236.3388    132181.45    10.472245    0.9922861 
  496000   -281.80919    33.434074   -248.37512    2417.3575     105183.3    10.472245   0.97616501 
  496100   -272.11126    33.052006   -239.05925    2389.7332    136582.77    10.472245   0.99968155 
  496200   -273.67102    30.814406   -242.85662    2227.9497    128388.78    10.472245   0.99625767 
  496300   -275.54856    29.051238   -246.49733    2100.4688    120168.81    10.472245   0.94960932 
  496400   -272.60971     35.33408   -237.27563    2554.7322    133747.82    10.472245   0.89758623 
  496500   -274.23518    29.985001   -244.25018    2167.9819     127914.1    10.472245   0.90838178 
  496600   -274.26906    28.985624   -245.28343    2095.7247    125769.25    10.472245    1.0114769 
  496700   -272.27392    33.582759   -238.69116    2428.1078    133329.93    10.472245   0.98278683 
  496800   -266.53464    30.396914   -236.13772    2197.7641    152983.84    10.472245    1.0901371 
  496900   -274.98839     31.59474   -243.39365    2284.3696    127235.99    10.472245    1.0434538 
  497000   -277.08674    33.460321   -243.62642    2419.2552    121721.73    10.472245    0.9426531 
  497100   -268.84772    29.183412    -239.6643    2110.0252    142937.04    10.472245    1.0328895 
  497200   -272.16159    31.248845   -240.91275    2259.3606     133722.7    10.472245    1.1072859 
  497300   -275.33073    29.272549   -246.05818      2116.47    123140.89    10.472245    1.0953776 
  497400   -269.29671    32.626899   -236.66981     2358.997    143659.58    10.472245   0.98877062 
  497500   -274.09159     30.27372   -243.81787    2188.8569    129052.32    10.472245   0.95756808 
  497600   -274.85984    29.898993   -244.96084    2161.7633     128175.6    10.472245   0.91881734 
  497700   -267.71612    33.068953   -234.64717    2390.9584    149395.12    10.472245    1.0101756 
  497800    -273.3549    31.938407   -241.41649    2309.2174    130147.12    10.472245    1.0443885 
  497900   -274.61089    29.934614   -244.67627    2164.3388    129362.64    10.472245   0.92919218 
  498000   -273.50443    28.871846   -244.63258    2087.4984    130507.51    10.472245    1.0858388 
  498100   -270.73405    32.180981   -238.55307    2326.7561     141922.6    10.472245   0.96518957 
  498200   -277.08061    29.738018   -247.34259    2150.1245    118797.11    10.472245    1.0305856 
  498300   -276.62217    31.464926   -245.15725    2274.9837    121425.58    10.472245   0.91183413 
  498400   -275.04674    34.803626   -240.24311    2516.3791    126076.13    10.472245   0.93007592 
  498500   -271.12136    29.101198   -242.02016     2104.081    134283.73    10.472245    1.0945801 
  498600   -276.91641    35.762712   -241.15369    2585.7232    124456.21    10.472245    1.0410209 
  498700   -279.42504     33.10817   -246.31687    2393.7939    112584.03    10.472245     0.927627 
  498800   -280.77852    33.742252   -247.03626    2439.6394    110827.24    10.472245    1.0271958 
  498900   -274.49734    32.909788   -241.58755    2379.4505     126759.8    10.472245    1.0116695 
  499000   -278.72624    31.973933   -246.75231    2311.7861    114177.16    10.472245   0.87921611 
  499100   -277.54741    28.371964   -249.17544    2051.3558    114422.55    10.472245   0.97754432 
  499200   -272.01293    31.646512   -240.36642    2288.1128    132707.24    10.472245   0.82819187 
  499300   -275.92102    32.987387   -242.93363     2385.061    124448.62    10.472245   0.98091466 
  499400   -281.04174     31.72295   -249.31879    2293.6394     108081.8    10.472245    0.9204581 
  499500   -273.92365    33.473676   -240.44998    2420.2208    130194.71    10.472245    1.0019843 
  499600   -273.69891    31.475881   -242.22303    2275.7758    129274.97    10.472245    1.0021409 
  499700    -275.0253    29.188541   -245.83675    2110.3961    122341.98    10.472245   0.99043461 
  499800   -269.79796    33.281002   -236.51696    2406.2901    144888.11    10.472245    1.0907345 
  499900   -276.25646    31.798229   -244.45824    2299.0823    123283.78    10.472245   0.93662156 
  500000   -278.78312    33.114891   -245.66823    2394.2799    114062.12    10.472245   0.93131406 
Loop time of 159.281 on 1 procs for 500000 steps with 108 atoms

Performance: 1356.096 ns/day, 0.018 hours/ns, 3139.111 timesteps/s
100.0% CPU use with 1 MPI tasks x no OpenMP threads

MPI task timing breakdown:
Section |  min time  |  avg time  |  max time  |%varavg| %total
---------------------------------------------------------------
Pair    | 94.334     | 94.334     | 94.334     |   0.0 | 59.22
Neigh   | 6.9017     | 6.9017     | 6.9017     |   0.0 |  4.33
Comm    | 2.6256     | 2.6256     | 2.6256     |   0.0 |  1.65
Output  | 0.090586   | 0.090586   | 0.090586   |   0.0 |  0.06
Modify  | 54.906     | 54.906     | 54.906     |   0.0 | 34.47
Other   |            | 0.4231     |            |       |  0.27

Nlocal:    108 ave 108 max 108 min
Histogram: 1 0 0 0 0 0 0 0 0 0
Nghost:    998 ave 998 max 998 min
Histogram: 1 0 0 0 0 0 0 0 0 0
Neighs:    5595 ave 5595 max 5595 min
Histogram: 1 0 0 0 0 0 0 0 0 0

Total # of neighbors = 5595
Ave neighs/atom = 51.8056
Neighbor list builds = 29709
Dangerous builds = 18
Total wall time: 0:02:39
