LAMMPS (3 Mar 2020)

    # ---------- Initialize simulation ---------------------
    units metal
    atom_style atomic
    dimension  3
    boundary   p p p
    read_data /home/modeler/RemLabs/Lab4/ProblemEC1_v2_size_4/temp_1300/lammps.data
  orthogonal box = (0 0 0) to (16.36 16.36 16.36)
  1 by 1 by 1 MPI processor grid
  reading atoms ...
  256 atoms
  read_data CPU = 0.00110684 secs

    pair_style eam
    pair_coeff * * /usr/share/lammps-stable/potentials/Ag_u3.eam
Reading potential file /usr/share/lammps-stable/potentials/Ag_u3.eam with DATE: 2007-06-11

    velocity  all create 1300 87287 dist gaussian

    # ---------- Describe computed properties------------------
    compute msdall all msd
    thermo_style custom step pe ke etotal temp press density c_msdall[4]
    thermo 100

    # ---------- Specify ensemble  ---------------------
    #fix  1 all nve
    #fix  1 all nvt temp 1300 1300 0.25
    fix 1 all npt temp 1300 1300 0.25 tchain 2 iso 1.0 1.0 1.0 pchain 2

    # --------- Compute RDF ---------------
    compute rdfall all rdf 100 1 1
    fix 2 all ave/time 1 125000 125000 c_rdfall[*] file /home/modeler/RemLabs/Lab4/ProblemEC1_v2_size_4/temp_1300/lammps.rdf mode vector

    # --------- Run -------------
    timestep 0.005
    run 500000
Neighbor list info ...
  update every 1 steps, delay 10 steps, check yes
  max neighbors/atom: 2000, page size: 100000
  master list distance cutoff = 7.55
  ghost atom cutoff = 7.55
  binsize = 3.775, bins = 5 5 5
  2 neighbor lists, perpetual/occasional/extra = 1 1 0
  (1) pair eam, perpetual
      attributes: half, newton on
      pair build: half/bin/atomonly/newton
      stencil: half/bin/3d/newton
      bin: standard
  (2) compute rdf, occasional, copy from (1)
      attributes: half, newton on
      pair build: copy
      stencil: none
      bin: none
Per MPI rank memory allocation (min/avg/max) = 3.744 | 3.744 | 3.744 Mbytes
Step PotEng KinEng TotEng Temp Press Density c_msdall[4] 
       0       -729.6    42.849738   -686.75026         1300    10452.374    10.472245            0 
     100   -706.57029    23.436424   -683.13386    711.02771   -1642.0368    10.038026  0.065829691 
     200   -701.13968    22.333419   -678.80626    677.56411   -8698.8249    9.8786804    0.1025415 
     300   -700.58458    25.455553   -675.12903    772.28522   -1133.7993     9.938712    0.1012187 
     400   -700.28794       28.885   -671.40294    876.32973    5004.5827    9.9923904   0.09633179 
     500   -696.84262    28.969172   -667.87345     878.8834    3987.8553    9.9255291   0.10429112 
     600   -694.42885    30.138029   -664.29082    914.34487   -1895.5102     9.816935   0.12699664 
     700   -693.20419    32.477261   -660.72693    985.31382   -3186.7988    9.7813276   0.13416916 
     800    -688.6471    31.469224   -657.17788    954.73142    4653.6232    9.7961567   0.15963753 
     900   -688.28958    34.702961   -653.58662    1052.8384   -2016.4793    9.6990376   0.18897808 
    1000   -683.68382    33.572043   -650.11178    1018.5279   -1263.4696    9.6152926    0.2069637 
    1100   -686.39604    39.898102   -646.49793    1210.4516    -8308.526    9.5866313    0.2105189 
    1200   -682.49177    39.500648   -642.99112    1198.3934    5288.1903    9.6517852   0.20576651 
    1300   -679.84734    40.351174   -639.49617    1224.1971    5536.3662    9.6130708   0.21302889 
    1400   -674.92924    38.590018   -636.33922    1170.7662   -10469.279    9.3619737   0.28556656 
    1500   -672.65598    40.407277    -632.2487    1225.8992   -6502.1425    9.3606786   0.28199189 
    1600   -674.90867    43.385864    -631.5228    1316.2653    236.75725    9.4809007   0.25173102 
    1700   -677.68248     44.09945   -633.58303    1337.9145    9109.9533    9.6021893   0.23384483 
    1800   -681.76291    40.578176   -641.18474     1231.084    7643.8929    9.6811634   0.19702883 
    1900   -678.54654    40.600025   -637.94651    1231.7469    1586.1999    9.5432772   0.20578606 
    2000   -676.21969    43.620884    -632.5988    1323.3955    3715.9678    9.5215512   0.21393031 
    2100   -676.02777    43.381534   -632.64624    1316.1339     511.6614    9.5022132   0.22258104 
    2200   -677.51924    41.542787   -635.97645     1260.349   -7602.5214    9.4318482    0.2760992 
    2300    -670.9484    42.641748   -628.30665    1293.6899   -2590.8339     9.371875   0.29857575 
    2400   -670.77227    42.539778    -628.2325    1290.5962    5135.1402    9.4631506   0.31362772 
    2500   -676.62267    42.465925   -634.15674    1288.3557    4064.7345    9.5612873   0.21818073 
    2600   -678.90878    46.111021   -632.79776    1398.9427    2844.8936    9.5694216   0.20263783 
    2700   -671.59693    44.631457   -626.96547    1354.0548    2979.0583    9.4277638   0.30154422 
    2800   -671.30352      41.7997   -629.50382    1268.1434    2704.4042    9.4346292   0.28910599 
    2900   -676.55391    41.506603   -635.04731    1259.2512     99.68293    9.5067915   0.25729007 
    3000   -673.62002    42.644564   -630.97545    1293.7753    847.27046    9.4603915   0.26134204 
    3100   -669.76548    44.110453   -625.65503    1338.2483   -9606.0647    9.2754766   0.37213271 
    3200   -667.99715    48.110103   -619.88704     1459.592    -6264.052    9.2347577   0.37094796 
    3300   -676.36268    46.685888    -629.6768    1416.3833   -6023.7337    9.4199235   0.25130188 
    3400   -672.96369    41.478409   -631.48528    1258.3958    2311.0286    9.4721306   0.28141349 
    3500   -677.08866    45.667492   -631.42117    1385.4866     886.2661    9.5104028   0.28987583 
    3600   -671.33488    46.132694   -625.20218    1399.6002    5373.3729    9.4573053   0.29649119 
    3700   -669.63091    45.925215   -623.70569    1393.3056    2256.9135    9.3952481   0.31347162 
    3800   -672.82636    40.533921   -632.29244    1229.7414   -10414.118    9.3204327   0.29130897 
    3900   -674.97623    42.275349   -632.70088    1282.5739   -8528.8394    9.3816772   0.24886534 
    4000   -674.17091    44.574666   -629.59624    1352.3319    2255.7916    9.4745947   0.27272303 
    4100   -669.51936    44.921416   -624.59795    1362.8518    375.64717    9.3751446   0.32901193 
    4200   -672.94576    40.083596   -632.86217    1216.0792     1335.125     9.463591   0.29672828 
    4300   -677.74891    44.304407    -633.4445    1344.1326   -4305.3472    9.4712371   0.24998125 
    4400   -675.70583    45.191889   -630.51394    1371.0575     1786.208    9.5000924   0.25732996 
    4500   -668.81837    45.060608   -623.75776    1367.0747    4661.3833    9.4078876   0.29417937 
    4600   -671.13367    39.207113   -631.92656    1189.4879    2231.0036    9.4395531   0.28009787 
    4700   -673.27857    39.955685   -633.32288    1212.1986   -2740.4373    9.4292304   0.29944417 
    4800   -671.36335    43.234113   -628.12923    1311.6614    4410.5399    9.4424731   0.29350255 
    4900   -671.22577    48.042293   -623.18348    1457.5347   -8497.5361    9.2635255   0.33290313 
    5000   -669.51267    41.622286   -627.89038    1262.7609   -6435.3557     9.319161   0.33835324 
    5100   -676.26685    44.214463   -632.05239    1341.4038    3645.7489    9.5320298   0.23535536 
    5200   -674.23484    43.411442    -630.8234    1317.0413    4738.2079    9.4999681   0.26036611 
    5300   -672.40904    43.705315   -628.70373     1325.957    4606.6449    9.4875945   0.29590438 
    5400   -677.83098    41.534406   -636.29657    1260.0947    5260.7101     9.592963   0.21963917 
    5500   -677.68745    41.973961   -635.71349    1273.4302   -3073.9483    9.5048707   0.23142758 
    5600   -674.32252    44.353477   -629.96905    1345.6213    5984.1908    9.5304128   0.26569917 
    5700   -677.76712    44.696323    -633.0708    1356.0228     8031.637    9.6114037   0.22456155 
    5800   -678.61577    40.809779   -637.80599    1238.1105    84.394066    9.5449744   0.24417103 
    5900   -671.30199     40.70909    -630.5929    1235.0558   -11969.532    9.2653189   0.31099196 
    6000   -671.41022    40.771892   -630.63833    1236.9611   -5721.6513    9.3375714   0.30473788 
    6100   -676.38599    42.505594    -633.8804    1289.5592   -8797.7165    9.3978981   0.25986025 
    6200    -679.8087    41.825659   -637.98304    1268.9309    5426.3174    9.6238201   0.21953173 
    6300   -670.70305    42.242386   -628.46067    1281.5738   -2999.6436     9.364573   0.35295539 
    6400   -672.59191    43.804567   -628.78734    1328.9682   -3506.8067    9.3921075   0.32280945 
    6500   -677.87921    45.411177   -632.46804    1377.7104    22.240437    9.5279898   0.20535548 
    6600   -680.15776     42.13378   -638.02398    1278.2788     11374.91    9.6869147   0.20466608 
    6700   -676.25737    45.069498   -631.18787    1367.3444    2286.3797    9.5230483   0.22533517 
    6800   -675.07592    44.320117    -630.7558    1344.6092   -12149.288     9.338535   0.28494461 
    6900   -672.61682    40.618308   -631.99852    1232.3016   -2818.1714    9.4136432   0.33256252 
    7000   -680.56799    44.219443   -636.34854    1341.5549    -445.7747    9.5707812   0.22467172 
    7100   -682.61654    42.329179   -640.28737     1284.207    4222.1401    9.6478096   0.18493237 
    7200   -673.82634    41.885617   -631.94072    1270.7499    158.78027    9.4491514    0.2533028 
    7300   -676.26975    44.817072   -631.45267    1359.6861   -3271.4971     9.453039   0.25058294 
    7400   -675.08558    42.014803   -633.07078    1274.6693    8822.4336    9.5649392   0.23665984 
    7500   -679.73742    39.507812    -640.2296    1198.6107    7970.3954    9.6552106   0.21168047 
    7600   -678.81082    43.757562   -635.05325    1327.5421   -4902.8823    9.4953396   0.24538968 
    7700   -674.61442    42.202897   -632.41152    1280.3758    3869.4029    9.4978011   0.25777988 
    7800   -673.51309    41.833879   -631.67921    1269.1803   -2449.1633    9.4090853   0.30170607 
    7900   -670.98394    44.852189   -626.13175    1360.7515   -12258.926    9.2662085   0.29922267 
    8000    -666.4154    40.851298   -625.56411    1239.3702    4041.0521    9.3584474   0.34131309 
    8100   -676.54226    44.578665    -631.9636    1352.4532    7721.6206    9.5872903   0.22241392 
    8200   -676.43635    42.178236   -634.25811    1279.6276    1155.7464    9.5319719   0.26406622 
    8300   -673.96749    46.912539   -627.05495    1423.2596   -2501.8888    9.4471066    0.2744011 
    8400   -675.20897    46.351432   -628.85754    1406.2364   -2062.0967    9.4355603   0.25353381 
    8500   -675.01754    38.320362   -636.69717    1162.5852    6870.6645    9.5545708   0.25397386 
    8600   -674.99005    42.133544   -632.85651    1278.2717   -288.20878    9.4785442   0.26480508 
    8700   -674.80351     45.58342   -629.22009     1382.936   -4297.2099    9.4034398   0.29287011 
    8800   -672.90409    42.624707   -630.27938    1293.1729       5913.8    9.5025149   0.26937624 
    8900   -677.60798     39.15632   -638.45166     1187.947   -2259.4839    9.5138355   0.23092623 
    9000   -673.76486    40.409222   -633.35564    1225.9582   -6896.3059     9.376359   0.27861344 
    9100   -672.89317    42.547295   -630.34587    1290.8243   -6668.7299    9.3409158   0.33385444 
    9200    -669.6062    44.714826   -624.89137    1356.5841    5561.7206    9.4149224   0.33301388 
    9300   -675.60696    45.154003   -630.45295    1369.9081    4857.1098    9.5335976   0.25591224 
    9400   -676.75986    43.469296   -633.29057    1318.7965     6519.231    9.5710386   0.22220575 
    9500   -673.82725    42.753973   -631.07328    1297.0946   -4198.3101    9.4159906   0.29025168 
    9600   -669.09297    44.069991   -625.02298    1337.0207   -651.45172    9.3273027   0.33619069 
    9700   -674.04092    41.090501   -632.95042    1246.6273   -1751.8009    9.4388243   0.29149795 
    9800   -673.57242    39.693899   -633.87852    1204.2563   -2512.6679    9.4435883   0.27780633 
    9900   -676.52301    45.888233   -630.63478    1392.1836   -3094.3805    9.4585338   0.28408206 
   10000   -669.94814    47.314748   -622.63339     1435.462   -2497.7003    9.3393368   0.31526054 
   10100   -674.16937    44.497404   -629.67197    1349.9878   -3195.5093    9.4206908   0.25706259 
   10200   -673.40635     41.61049   -631.79586     1262.403    5941.6619    9.5049953   0.25566889 
   10300   -674.31145    40.437692   -633.87376     1226.822   -4934.8712    9.4139787   0.27128931 
   10400   -681.10129    39.674752   -641.42654    1203.6755   -7110.4238    9.5114069   0.21587558 
   10500   -680.48674    42.270386   -638.21636    1282.4233     4115.371    9.6123421   0.20290606 
   10600   -676.68544    42.983136    -633.7023    1304.0471    14688.066     9.652479   0.24548434 
   10700   -672.53227    42.251101   -630.28117    1281.8382    2318.5958    9.4442033   0.29017446 
   10800   -673.86861    43.069801   -630.79881    1306.6764   -7551.6793    9.3683617   0.30500963 
   10900   -681.52304    42.224235    -639.2988    1281.0231   -1192.2351    9.5689968   0.19381086 
   11000   -677.51578    42.974071   -634.54171    1303.7721    -3789.015     9.477014   0.23158259 
   11100    -674.5722    43.417467   -631.15473    1317.2241    8845.1142    9.5520729   0.22120218 
   11200   -671.72956    38.902677   -632.82688    1180.2518    4668.4037    9.4813239   0.24670995 
   11300   -679.62548    40.439679    -639.1858    1226.8822   -251.47484    9.5577226   0.20814285 
   11400   -676.26646    42.303321   -633.96313    1283.4225   -2718.5486     9.460653   0.25307494 
   11500    -672.7986    41.847733   -630.95087    1269.6006   -7482.8246    9.3583841   0.30231389 
   11600   -674.32134    42.597471   -631.72386    1292.3466   -6652.6897     9.358927   0.30327555 
   11700   -670.48421    43.370196   -627.11401      1315.79    3923.4941    9.4272619   0.30001583 
   11800   -671.83188    48.463181    -623.3687    1470.3039   -2263.6253    9.3866216   0.31168376 
   11900   -675.44913    43.828027    -631.6211    1329.6799   -3315.0174    9.4389963   0.28747933 
   12000   -670.80448    38.420006   -632.38448    1165.6082    264.54453    9.4061731   0.30781792 
   12100   -675.13385    45.105528   -630.02832    1368.4374   -9840.9262    9.3642754   0.27423858 
   12200   -669.62708    47.845549   -621.78153    1451.5658    421.82771    9.3693895   0.30782601 
   12300   -670.77367     43.87929   -626.89438    1331.2351    8465.2402    9.4829796   0.30153017 
   12400   -676.33503    46.485245   -629.84979    1410.2961    1041.4201     9.492889   0.24711084 
   12500   -677.34439    43.682963   -633.66143    1325.2788    1614.2039    9.5333489    0.2228356 
   12600   -679.09943    40.367297   -638.73213    1224.6863   -5504.1914    9.4874648   0.25789123 
   12700   -672.67107    41.948547   -630.72252    1272.6592   -3904.8517    9.3814723   0.25139137 
   12800   -674.20174    42.680664   -631.52107    1294.8705    4305.6609     9.497988    0.2382339 
   12900   -676.39848    40.821765   -635.57672    1238.4742    4259.0459    9.5444486   0.26627289 
   13000   -675.26548    41.463768   -633.80171    1257.9516    3929.9447    9.5236593   0.24744624 
   13100   -671.21623    44.359874   -626.85636    1345.8154    1474.8495    9.4137836   0.31194343 
   13200   -676.00243    45.518012   -630.48442    1380.9516    1413.2526    9.5012156   0.24777402 
   13300   -676.80553    40.553574   -636.25196    1230.3377   -2607.7454     9.460671   0.28216831 
   13400   -674.49991    43.437591   -631.06232    1317.8346   -8454.3901    9.3724921   0.27299539 
   13500   -675.52978    48.867025   -626.66275    1482.5559   -1122.1976    9.4568343   0.24532692 
   13600   -677.21672    43.420253   -633.79647    1317.3086    6799.1423    9.5929349   0.21687526 
   13700   -680.57521    47.691976   -632.88324    1446.9066     7450.067    9.6316656   0.19895884 
   13800    -672.2276    43.282166   -628.94544    1313.1192    4663.7919    9.4768056   0.26617406 
   13900   -674.01609    48.651452   -625.36464    1476.0157   -10677.352    9.3215874   0.30743503 
   14000   -675.19894    40.487596   -634.71135     1228.336    -3230.061    9.4430067   0.27581741 
   14100   -674.30096    41.119243   -633.18172    1247.4993   -2294.8228    9.4326427   0.27787168 
   14200   -672.76451    43.462718    -629.3018    1318.5969    1326.5335    9.4317076   0.28944956 
   14300   -672.68453    46.057705   -626.62682    1397.3251   -3831.5192    9.3803922   0.27954695 
   14400   -673.99261    40.322069   -633.67054    1223.3141   -3066.7321    9.4226823   0.26380891 
   14500   -672.48285     41.07466   -631.40819    1246.1467    2768.8374    9.4613096   0.31571302 
   14600   -669.27363    43.506855   -625.76677     1319.936    8025.0066    9.4621261   0.30096188 
   14700   -676.62099    45.056735   -631.56426    1366.9572    3209.6404    9.5453617   0.23814399 
   14800   -672.62702    37.776101   -634.85092    1146.0731    10726.123    9.5774161   0.26000365 
   14900   -674.14164    44.155372   -629.98627    1339.6111   -3600.0321    9.4305018   0.25087595 
   15000   -672.40055    44.586255   -627.81429    1352.6835   -4068.5127    9.3698183   0.30737337 
   15100   -673.93457    40.077683   -633.85688    1215.8998   -1832.9251    9.4366683    0.2640364 
   15200   -675.01942    40.475695   -634.54373    1227.9749    4306.1811    9.5214035    0.2399662 
   15300   -675.34026    44.149923   -631.19033    1339.4458   -4330.9961    9.4275813   0.27402415 
   15400    -672.2873    46.299654   -625.98765    1404.6655    919.97136    9.4241314   0.30331368 
   15500   -671.70257    38.618325   -633.08425     1171.625   -4181.5119    9.3816739   0.30042748 
   15600   -676.45452    41.170018   -635.28451    1249.0397   -11410.445    9.3735499   0.28913514 
   15700   -671.20542      42.9896   -628.21582    1304.2432    3108.6514     9.417657     0.316546 
   15800   -672.99178    46.810963   -626.18082    1420.1779   -316.67397    9.4222142   0.27161545 
   15900   -676.85767    45.571096   -631.28658    1382.5621    8626.6078    9.5861623   0.22836167 
   16000   -677.21663    45.650484   -631.56614    1384.9706   -1848.1356    9.5060503   0.24831355 
   16100   -669.73512    46.644615   -623.09051    1415.1312   -1786.2386    9.3505328   0.33789384 
   16200   -670.45718     43.60612   -626.85106    1322.9475    5180.9295    9.4646465     0.285286 
   16300   -675.13281    44.230091   -630.90272    1341.8779     2008.633    9.5024228   0.24628336 
   16400   -674.67268    41.231732   -633.44095     1250.912    1803.4716    9.4962791   0.28959409 
   16500   -671.68541    44.702028   -626.98338    1356.1958   -7629.4265    9.3329794    0.3096741 
   16600   -670.75759    44.150776   -626.60681    1339.4717   -6115.3145    9.3311698   0.31403449 
   16700   -677.81983    43.875494   -633.94434      1331.12   -9343.5335    9.4129619   0.28897221 
   16800   -672.14215    40.602331   -631.53982    1231.8169   -2115.3857    9.4081944   0.28715809 
   16900   -669.93528    42.335469   -627.59981    1284.3978    2273.3952    9.3837586   0.27795183 
   17000   -676.55172    40.746803   -635.80491       1236.2     201.9798    9.5008029   0.25216373 
   17100   -679.27433    44.463348   -634.81098    1348.9546   -8578.8933    9.4418845   0.24531803 
   17200   -672.68613    40.253228   -632.43291    1221.2256    -1443.646    9.4029464   0.27023199 
   17300   -671.94457    45.143599   -626.80097    1369.5925   -4864.4408    9.3684199   0.30340136 
   17400   -676.63226    42.971482   -633.66078    1303.6936   -942.76338     9.495229   0.26099895 
   17500   -674.11333    40.271663   -633.84167    1221.7849    1466.1739    9.4800598   0.28497893 
   17600    -673.3905    43.330957   -630.05955    1314.5995   -6562.9911    9.3617267   0.28985664 
   17700   -668.92062    40.442501   -628.47812    1226.9679    4793.4088    9.3965213   0.30499854 
   17800   -681.40555    43.915127   -637.49042    1332.3224   -11516.759    9.4681062   0.23292116 
   17900   -672.86256    38.137246   -634.72531    1157.0297    1753.5312     9.476216   0.25256812 
   18000   -673.79266    44.698383   -629.09428    1356.0852    3165.0962    9.4777914   0.25458944 
   18100   -673.93123    43.769756   -630.16147     1327.912    1132.8586    9.4610013   0.25210055 
   18200   -676.05722    39.137495   -636.91973    1187.3758   -2715.8772    9.4697839   0.24497795 
   18300   -674.48769    43.247952   -631.23973    1312.0812   -7170.9953    9.3766678   0.27952133 
   18400   -669.19461    40.032101   -629.16251    1214.5169    859.54572    9.3784451   0.30741398 
   18500   -676.76994    40.822221   -635.94772     1238.488    2762.4518    9.5339309   0.26405765 
   18600   -678.59489    44.287721   -634.30717    1343.6263    3149.7563    9.5585881   0.24018245 
   18700   -670.52381    41.637221   -628.88659     1263.214    1259.4745    9.4184266   0.29814531 
   18800   -674.64862    43.497888   -631.15073     1319.664   -9025.8908    9.3609959   0.26498737 
   18900   -677.65978    39.558488   -638.10129    1200.1482    1277.6027    9.5356965   0.24657832 
   19000   -673.73692    42.107362   -631.62955    1277.4774   -488.92196    9.4417957   0.24555571 
   19100   -673.14547    43.831804   -629.31367    1329.7945   -2807.1157    9.4080398   0.30022785 
   19200   -674.80892    38.977991   -635.83093    1182.5367    11961.764    9.6114124   0.24975895 
   19300   -679.55041     45.34238   -634.20803    1375.6232   -2104.0994    9.5194178   0.23475995 
   19400   -673.08432    45.237931   -627.84639    1372.4544   -1581.8396    9.4160737   0.28537451 
   19500   -673.81398    42.975824   -630.83816    1303.8253     4459.759    9.5039284   0.26204051 
   19600   -682.00621    44.432245   -637.57397     1348.011    5934.0363    9.6604792   0.20650484 
   19700   -675.39882    43.167505   -632.23132    1309.6406     1598.795    9.4925801   0.27760977 
   19800   -671.01626    41.687409   -629.32885    1264.7366   -10513.964    9.2747879    0.3275023 
   19900   -672.58808    40.443756   -632.14432    1227.0059   -10580.951    9.3106817   0.27651396 
   20000   -675.31356     39.28396    -636.0296    1191.8194   -5005.6889    9.4249716   0.31614459 
   20100   -671.31369    40.963238   -630.35046    1242.7663    421.80706     9.418956   0.32142525 
   20200    -670.8851    44.232444   -626.65265    1341.9493    7797.9733    9.4779583   0.28245424 
   20300    -675.3335    42.641743   -632.69176    1293.6897    4765.9778    9.5346118   0.26322122 
   20400   -674.19473    42.099564   -632.09516    1277.2408    4412.5046    9.5154395   0.25151177 
   20500     -669.607    45.774316   -623.83269    1388.7275   -8540.1396    9.2752067   0.33878491 
   20600   -670.03898    45.092641   -624.94634    1368.0465   -719.17963     9.364384   0.32759953 
   20700   -672.45597    41.435405   -631.02056    1257.0911    9071.6538    9.5424204    0.2626678 
   20800   -676.31563    45.107874   -631.20775    1368.5086    8813.7437    9.5872393   0.23743506 
   20900   -674.79069    49.319115   -625.47158    1496.2717   -914.48796    9.4436992   0.26392873 
   21000   -668.35233    40.259575   -628.09275    1221.4181   -1011.0863    9.3523723   0.37568388 
   21100   -672.65636    39.824387   -632.83197    1208.2152   -14242.456    9.2894924   0.31798027 
   21200   -673.70066    40.808006   -632.89265    1238.0568   -6678.6278    9.3755343   0.27547541 
   21300   -665.55583    40.620345   -624.93548    1232.3634    7061.8238     9.384182   0.31602056 
   21400   -672.60645    44.490324   -628.11613     1349.773    667.86131     9.437293   0.27713452 
   21500   -675.75692    42.186146   -633.57077    1279.8675   -3914.3718    9.4610499   0.27857083 
   21600   -676.17731     44.09396   -632.08335    1337.7479   -6042.0388    9.4115421   0.29053829 
   21700   -668.27187    41.910223   -626.36165    1271.4965     8031.241    9.4500948   0.32726166 
   21800   -675.43562    43.819236   -631.61638    1329.4132    5073.8177     9.517536   0.24242484 
   21900   -676.59919    42.284809   -634.31438    1282.8609   -8016.9812    9.4111755   0.27325129 
   22000    -671.5119    41.396373   -630.11553     1255.907   -556.54195    9.4052452   0.29518893 
   22100   -673.61107    46.031333   -627.57974     1396.525   -1507.8124    9.4252944   0.28794472 
   22200   -678.95448    43.910639   -635.04384    1332.1862    8945.0009    9.6413886   0.22739804 
   22300   -677.42528    43.216602   -634.20868    1311.1301   -2418.5391    9.4991398   0.25048225 
   22400   -670.24022    43.159361   -627.08086    1309.3935    262.61327     9.401538   0.29206599 
   22500   -675.51248    46.524327   -628.98815    1411.4818    2258.5869    9.5034391   0.21800386 
   22600   -679.19368    43.688322   -635.50536    1325.4414    14270.849    9.7066032   0.19833523 
   22700   -675.51959    44.373287    -631.1463    1346.2223    1496.9938    9.5136465   0.23662592 
   22800   -675.61526    45.789766    -629.8255    1389.1962   -4991.3142    9.4222693   0.25071455 
   22900   -676.54896    39.665339   -636.88362    1203.3899    1186.1403     9.520125   0.24546815 
   23000   -679.12247    43.108995   -636.01348    1307.8655   -2465.7473    9.5195212   0.22393262 
   23100   -674.52268    44.117885   -630.40479    1338.4738   -3027.2775    9.4312067   0.28193665 
   23200   -673.36935    45.449332   -627.92001     1378.868   -9033.7268    9.3361426   0.29645478 
   23300   -664.66218    43.253935   -621.40825    1312.2628   -4538.1239    9.2354399   0.45264361 
   23400   -667.80033    46.780811   -621.01952    1419.2632    8197.9676    9.4269024   0.34992578 
   23500   -669.46073    43.554953   -625.90577    1321.3952    13445.016    9.5206435   0.33673323 
   23600   -671.26981    42.547665   -628.72215    1290.8355    5976.9506    9.4591092   0.28029508 
   23700   -677.90077    42.526891   -635.37388    1290.2053   -4637.3557    9.4753735   0.27960027 
   23800    -672.7107    41.488785   -631.22192    1258.7106   -1744.9999    9.4048557   0.25948534 
   23900   -669.45033    39.914907   -629.53542    1210.9614   -4377.8568    9.3353306    0.2719129 
   24000   -676.13536    39.492171   -636.64319    1198.1362    2863.1749    9.5258245   0.26633332 
   24100   -677.06493    43.641113   -633.42382    1324.0092   -1424.3653    9.4918454   0.24015055 
   24200   -670.31147    41.666681   -628.64479    1264.1077    7527.7526     9.480649   0.28737525 
   24300   -675.78277    44.310479    -631.4723    1344.3168    8843.3288    9.5751287   0.27141145 
   24400   -681.30399    41.704451   -639.59954    1265.2536   -8026.4709     9.508214   0.22608015 
   24500   -673.42658    39.502155   -633.92442    1198.4391    -5875.135    9.3786998   0.32342962 
   24600   -674.33883    45.226505   -629.11233    1372.1077    -3860.364    9.4175389   0.27272212 
   24700   -676.89639    42.038772   -634.85762    1275.3964    2198.0236    9.5405273   0.25705478 
   24800   -679.36744    46.272316   -633.09512    1403.8361    683.86865     9.561623   0.21478579 
   24900   -670.05947    45.150011   -624.90946     1369.787    5584.2194    9.4276294   0.29490816 
   25000   -673.83536    45.517953    -628.3174    1380.9499    5771.9158    9.5065052   0.25816937 
   25100   -676.36219     43.92661   -632.43558    1332.6708   -8835.6058    9.3918993   0.27090076 
   25200   -674.67225    43.799978   -630.87227    1328.8289    6667.9747    9.5418946   0.24974605 
   25300   -671.44174    45.676705   -625.76503    1385.7661    5946.8312    9.4601924   0.30337322 
   25400    -677.6662    42.916529   -634.74967    1302.0263    104.20293    9.5286315   0.22800316 
   25500   -675.49889    42.879672   -632.61922    1300.9082     3470.183    9.5122772   0.24092869 
   25600   -671.18586    40.648571   -630.53729    1233.2197   -2185.2326    9.3925257   0.30063614 
   25700   -669.85746    46.663052   -623.19441    1415.6905   -7889.6671     9.270627   0.32931744 
   25800   -670.54852    40.807601   -629.74092    1238.0445    4258.9782    9.4450753   0.26890363 
   25900    -674.8976    41.876016   -633.02159    1270.4587    10184.796     9.582367   0.26822286 
   26000   -673.89023    43.212465   -630.67777    1311.0046    -2153.148    9.4333507   0.27649494 
   26100   -669.07583    44.400862   -624.67497    1347.0589    3126.7267    9.3832942   0.30046561 
   26200   -675.79823    42.837461   -632.96077    1299.6275   -2721.4734    9.4671821   0.23432468 
   26300   -678.92796    45.261613   -633.66635    1373.1729   -179.19982    9.5401568   0.24359174 
   26400   -674.51095    46.399203   -628.11175    1407.6857    7898.7135    9.5510812   0.28842704 
   26500   -670.28876    43.770393   -626.51836    1327.9314    5705.8049    9.4397033   0.28644187 
   26600   -675.69958    40.545021   -635.15456    1230.0782     2022.992     9.525812   0.25140728 
   26700   -676.22615    43.347303   -632.87885    1315.0954   -210.43436    9.4927054   0.23618039 
   26800   -671.63956    43.892927   -627.74663    1331.6489   -289.23385    9.3987358   0.28694955 
   26900   -670.43934    43.260906   -627.17843    1312.4742   -3425.6039    9.3523757   0.32346319 
   27000   -679.17984    43.413404   -635.76644    1317.1008   -5099.3584    9.4942001   0.22436511 
   27100   -676.35922    43.845039   -632.51418     1330.196   -5242.9922    9.4380936   0.25517107 
   27200   -675.58702    45.380953   -630.20606    1376.7934    2242.2618    9.5019578   0.28277423 
   27300   -674.17617    41.874029   -632.30214    1270.3984    11536.351    9.5832731   0.24745103 
   27400   -681.39633    44.653402   -636.74293    1354.7206     1433.094    9.5936284    0.2247455 
   27500   -675.09738    45.496355   -629.60103    1380.2946   -4065.2034    9.4089945   0.29833835 
   27600   -675.04833    44.326902   -630.72143    1344.8151   -9005.0031    9.3686189   0.29585686 
   27700   -677.59548    41.339276    -636.2562    1254.1747   -1882.0383    9.4991705   0.25533699 
   27800   -676.30782    46.445298   -629.86252    1409.0842    4491.2987    9.5469669   0.23996826 
   27900   -674.79714    46.424513   -628.37263    1408.4536   -4619.9083    9.4277939   0.27702877 
   28000   -679.17727    43.338577   -635.83869    1314.8307    504.47073    9.5586153   0.24843134 
   28100   -675.91081    43.811394   -632.09941    1329.1753    986.06401    9.4880296   0.24779309 
   28200   -672.71894    44.967068   -627.75187    1364.2368   -427.60935    9.4213416   0.28844916 
   28300   -672.70425     41.34914   -631.35511     1254.474    5224.5205    9.4945042   0.26753923 
   28400   -678.90808    45.151569   -633.75651    1369.8343   -180.51042    9.5415324   0.24356478 
   28500   -674.38048    46.331942   -628.04854    1405.6451    7988.3237    9.5349074   0.26235094 
   28600   -674.49746    45.721215   -628.77624    1387.1165    1807.9058    9.4837492   0.27039577 
   28700   -676.66546    41.632938   -635.03253     1263.084   -8054.3242    9.4173266   0.22344009 
   28800   -673.34792    39.600054   -633.74786    1201.4092   -2674.3015    9.4195616   0.29833475 
   28900   -671.00534    43.860261   -627.14507    1330.6578    1670.6008    9.3984629   0.31532851 
   29000    -673.1975    47.643433   -625.55407    1445.4339    1667.1156     9.425991   0.34667697 
   29100   -675.22129    44.769829   -630.45146    1358.2528   -7447.0631    9.3819142   0.28940472 
   29200   -674.53307    40.593208   -633.93987    1231.5401    209.40576    9.4813316   0.24561569 
   29300     -672.572    41.201672   -631.37033         1250     883.7424    9.4443485   0.28795542 
   29400   -668.19081    42.576733   -625.61408    1291.7174   -6233.6725    9.2846336   0.36974752 
   29500   -668.63668    41.887969   -626.74871    1270.8213    1164.2766    9.3620476   0.28637862 
   29600   -678.77219    45.819731   -632.95246    1390.1054    3876.0225    9.5734048   0.22572584 
   29700   -674.30142    42.384865   -631.91656    1285.8964    5171.3838    9.5222569   0.25106922 
   29800   -671.53709    44.272423   -627.26467    1343.1622    -7116.263    9.3356277   0.28281103 
   29900    -670.4072     45.80275   -624.60445    1389.5902   -3954.7617    9.3287859   0.31956392 
   30000   -673.19803    39.849033     -633.349    1208.9629    4948.9843    9.4974396   0.28993122 
   30100   -673.27865    40.852741    -632.4259    1239.4139   -355.83096    9.4395462     0.273383 
   30200   -672.40064    43.366249   -629.03439    1315.6702   -53.551359    9.4337111   0.28444243 
   30300   -673.04703    43.792144   -629.25489    1328.5913   -4549.3402    9.3873732   0.30616238 
   30400   -678.76547    42.074738   -636.69073    1276.4876    10400.501    9.6565184   0.21875064 
   30500   -677.55862    44.800754   -632.75787     1359.191    6482.1052    9.5896572   0.25654533 
   30600    -670.5822    43.306654   -627.27554    1313.8622    6715.9455    9.4715827     0.291099 
   30700   -673.29473     43.27141   -630.02332    1312.7929    1814.1064    9.4524765   0.26700958 
   30800   -676.38932    39.796474   -636.59285    1207.3683    3154.1741    9.5276804   0.25181633 
   30900   -671.22537    40.721935   -630.50344    1235.4455   -1875.0704    9.3866684   0.31677444 
   31000   -672.06818    46.330615   -625.73757    1405.6048   -1450.5888    9.3946884   0.31684242 
   31100   -675.85249    43.120428   -632.73206    1308.2123    4389.2943    9.5336811   0.25172144 
   31200   -675.83403    43.645818   -632.18821    1324.1519    13942.945     9.650854   0.22264216 
   31300   -673.72593    46.288958   -627.43697     1404.341   -6443.7603    9.3708053   0.27248055 
   31400    -670.7736     44.19298   -626.58062    1340.7521    -2603.744       9.3541   0.33758016 
   31500    -674.6148    40.333746   -634.28106    1223.6684   -3196.6157     9.414461   0.28910495 
   31600    -673.0279     39.77335   -633.25455    1206.6668   -2942.2763    9.4009454   0.31842128 
   31700   -671.41194    43.928054   -627.48388    1332.7146   -7263.0015    9.3210801   0.30977193 
   31800   -674.54643    40.908766   -633.63766    1241.1137    1042.6386    9.4896047   0.26752374 
   31900   -678.47297    42.978438   -635.49453    1303.9046    10213.597    9.6437963   0.22476922 
   32000    -670.2598     42.24118   -628.01862    1281.5372    661.22183    9.3955012   0.35122568 
   32100   -672.37655    43.665281   -628.71127    1324.7424    793.75974    9.4151727   0.29083554 
   32200   -674.44625    43.076561   -631.36969    1306.8815   -2406.1896    9.4112658   0.27966598 
   32300   -672.87977    43.328721   -629.55105    1314.5317   -2871.0706    9.4118465   0.29091013 
   32400   -667.88175    45.831924   -622.04983    1390.4753   -1819.1986    9.3085902   0.34169742 
   32500   -673.70208    44.966727   -628.73536    1364.2264     8480.267    9.5278446   0.26818929 
   32600   -674.81301    43.488501   -631.32451    1319.3791    4333.5555    9.5201215   0.25101921 
   32700   -676.21351    43.404379   -632.80913     1316.827    74.331321    9.4911357   0.23078833 
   32800   -679.07865    39.106106   -639.97254    1186.4235    -378.9935     9.552477   0.20221824 
   32900   -679.44825    41.570776   -637.87747    1261.1981   -4596.8516    9.5084242   0.19942583 
   33000   -677.66582    44.970927   -632.69489    1364.3539    3885.5823    9.5566271   0.24692149 
   33100   -671.82633    43.249703   -628.57663    1312.1344    3497.2123    9.4548402   0.30557448 
   33200   -671.11054    45.814555   -625.29599    1389.9483   -2582.3001    9.3916094   0.29563286 
   33300   -674.87999    41.300541   -633.57945    1252.9996    -10789.09    9.3529984   0.29151265 
   33400   -674.45417    41.842859   -632.61131    1269.4527   -5044.9268    9.4051962   0.28780585 
   33500   -671.63198    44.417719   -627.21426    1347.5703   -5619.5606    9.3508883   0.28257785 
   33600   -675.58885     45.72017   -629.86868    1387.0848   -4119.6477    9.4235513   0.26981369 
   33700   -679.23425    44.077007   -635.15725    1337.2336    4036.5782    9.5889142   0.20457221 
   33800   -674.80578     42.88131   -631.92447    1300.9579    6268.9783    9.5332573   0.24850877 
   33900   -673.94825    46.263636   -627.68461    1403.5728   -6885.3642    9.3673342   0.29623446 
   34000   -673.61674    43.250961   -630.36577    1312.1725   -674.97522    9.4465157   0.29374064 
   34100    -676.5597    37.805493    -638.7542    1146.9648   -608.26882    9.5130567   0.21898923 
   34200   -675.94369    42.260889    -633.6828    1282.1352    1234.3701    9.5103176   0.22744195 
   34300   -670.41814     40.87072   -629.54742    1239.9594    7937.6648    9.5053534   0.29801245 
   34400    -671.8851    45.567963   -626.31714    1382.4671    11447.421    9.5488531   0.27329002 
   34500   -675.17858    40.471465   -634.70711    1227.8466    8706.0467    9.5885879   0.28725856 
   34600   -677.34319    41.480849   -635.86234    1258.4698   -6801.3108    9.4423693   0.27431626 
   34700   -671.46159    41.573889    -629.8877    1261.2926   -317.02275    9.3925015   0.28132583 
   34800    -667.7417    41.896721   -625.84498    1271.0868    5745.0575    9.3961755   0.31640064 
   34900   -671.39466    43.402512   -627.99214    1316.7704    5036.5017    9.4701733   0.28031679 
   35000   -673.96494    39.240868   -634.72407     1190.512   -250.55626    9.4547209   0.29014906 
   35100   -674.55782    42.407172   -632.15065    1286.5732    -7343.835    9.3918512   0.28084428 
   35200   -671.61246    43.957509   -627.65495    1333.6082    6440.4099    9.4822039    0.2903742 
   35300   -671.80346    43.604513   -628.19895    1322.8988     8897.891    9.5099566   0.29914184 
   35400   -676.01808    40.827184   -635.19089    1238.6386    2872.9178    9.5277181    0.2188389 
   35500   -677.16592    44.512154   -632.65376    1350.4353   -3195.2262    9.4739759   0.24073453 
   35600   -675.72094    45.042312   -630.67863    1366.5196    5100.1388    9.5233203   0.23466887 
   35700   -670.01274     47.02962   -622.98312    1426.8117   -1328.2663    9.3785142   0.29044747 
   35800   -673.59493    45.886247   -627.70868    1392.1234   -6796.2496     9.374771   0.27611885 
   35900   -673.11497    40.628253   -632.48672    1232.6033   -2144.8502    9.4248815   0.29137261 
   36000     -672.848    39.651128   -633.19687    1202.9587   -2345.5996    9.4136043   0.33715486 
   36100   -670.49404    44.130728   -626.36331    1338.8634    6838.3311    9.4612176   0.32537381 
   36200    -671.0586    39.061173   -631.99743    1185.0603    5817.3392    9.4808778   0.32113557 
   36300   -675.20973    40.482564   -634.72717    1228.1833    116.89592     9.479947   0.25633891 
   36400   -672.59116    42.229645   -630.36151    1281.1873   -1258.6822    9.4212098   0.28666562 
   36500   -670.35105    43.163279   -627.18777    1309.5124   -5747.2852    9.3260509   0.31971367 
   36600   -674.09371    42.091715     -632.002    1277.0027   -3986.6928    9.4076903   0.30101524 
   36700   -676.27098    39.944564   -636.32642    1211.8612    608.32713    9.4980838    0.2653914 
   36800   -675.37376     46.38463   -628.98913    1407.2436   -8123.7124    9.3622031   0.25325839 
   36900   -671.49774    43.050254   -628.44748    1306.0834    -4789.674    9.3555848   0.27929075 
   37000   -675.52594    40.820784   -634.70515    1238.4444    6650.1531    9.5666295    0.2395165 
   37100   -677.07776    42.283025   -634.79473    1282.8067    5468.0233    9.5560039   0.22537484 
   37200   -672.54394    45.803774   -626.74017    1389.6212   -9096.3892     9.320009   0.29317998 
   37300   -671.65896     40.66651   -630.99245     1233.764      3505.91     9.454077   0.29844733 
   37400   -675.50398    41.242548   -634.26143    1251.2401   -5472.8786    9.4235804   0.25185179 
   37500   -673.47866    45.400525   -628.07813    1377.3872     1648.511    9.4443051   0.24942716 
   37600   -672.73916    47.128136   -625.61103    1429.8005   -2398.4309     9.372261    0.3173786 
   37700   -674.15639    42.695549   -631.46085    1295.3221    7895.2439     9.543921   0.30051592 
   37800   -677.80624    45.398767   -632.40747    1377.3339   -2379.5161    9.4977617   0.26991985 
   37900    -670.5735    44.601562   -625.97194    1353.1478    458.68404    9.3838498   0.32237035 
   38000   -668.90842    41.220172   -627.68825    1250.5613   -4095.0047    9.3286048   0.38945053 
   38100   -675.10472     40.71157   -634.39315     1235.131   -1902.7062    9.4674544   0.25229206 
   38200     -678.589    42.245238   -636.34376    1281.6603   -144.57445    9.5460447   0.22544858 
   38300   -669.42985    41.652967   -627.77688    1263.6917    5941.7682    9.4354284   0.29081264 
   38400    -673.4361    42.031175   -631.40492     1275.166   -2835.1235    9.4037095   0.25142529 
   38500   -677.36319    41.138006   -636.22518    1248.0685    -8111.272    9.4232288   0.23465466 
   38600   -671.44699    39.222875   -632.22411    1189.9661   -5406.0665    9.3456163   0.27815481 
   38700   -672.05108    43.032788   -629.01829    1305.5535   -8728.1597    9.3153589   0.34464188 
   38800   -676.57911    45.353502   -631.22561    1375.9606   -1992.6556    9.4530494   0.26430981 
   38900   -677.22315    44.290294   -632.93285    1343.7044    4187.7115    9.5467004   0.26855058 
   39000   -668.74103    44.345109   -624.39593    1345.3674    2792.1657    9.3921496   0.28988859 
   39100   -673.73498    43.377419   -630.35756    1316.0091   -3765.1144    9.3919872   0.31996251 
   39200   -672.60662    39.000284   -633.60634     1183.213     -3441.73    9.4074206   0.29874196 
   39300    -675.7409    44.702812   -631.03809    1356.2196   -7739.2882    9.3894229   0.27705317 
   39400   -670.96419    47.332326   -623.63187    1435.9953    240.39894    9.3925864   0.33057961 
   39500   -676.27945    46.129303   -630.15014    1399.4973    6461.9432    9.5687215   0.24067708 
   39600   -677.83994    42.855329   -634.98461    1300.1696    6512.4898    9.5796805   0.26909856 
   39700    -672.1389    41.728578   -630.41032    1265.9856   -10438.007     9.329514   0.34629453 
   39800   -671.32516    42.284567   -629.04059    1282.8535   -7810.9367    9.3196085   0.30315215 
   39900   -676.84595    41.055584   -635.79036    1245.5679    750.47374    9.5106255   0.23178111 
   40000   -675.58519    42.360692   -633.22449     1285.163    7528.6628    9.5666295   0.24129147 
   40100   -670.69202    43.736429   -626.95559    1326.9009   -2086.1862     9.371154   0.32143203 
   40200   -674.58055    41.759723   -632.82082    1266.9305   -4691.7453    9.4083008   0.30436818 
   40300     -679.392     43.50063   -635.89137    1319.7471   -2790.7913    9.5187897   0.23394931 
   40400   -671.71409    42.765531   -628.94855    1297.4453    6423.7157    9.4908505   0.29584213 
   40500    -671.3658    43.459951   -627.90585     1318.513    6798.8737    9.4866552    0.3051614 
   40600   -676.28329    43.934511   -632.34877    1332.9105   -4905.6297    9.4351664   0.29485423 
   40700   -673.88327    40.560895   -633.32238    1230.5598    1780.1457    9.4737182   0.28303975 
   40800   -670.99776    45.123106   -625.87465    1368.9707   -3500.4202    9.3646773   0.29724692 
   40900   -674.50674    42.494532   -632.01221    1289.2236     1417.671    9.4763314   0.26734014 
   41000   -677.34257    42.154639   -635.18793    1278.9117   -1907.8878    9.4969094   0.22693312 
   41100   -671.54783    43.602773   -627.94506     1322.846    1296.9212    9.4326261   0.27061199 
   41200   -676.89893    46.971802   -629.92713    1425.0575    7167.1413    9.5795378   0.22162759 
   41300   -675.13402    42.482515    -632.6515     1288.859    13965.461    9.6301008   0.23420065 
   41400   -673.89297    43.123514   -630.76945     1308.306   -4856.8733    9.4083178   0.27152612 
   41500   -669.47304    45.718803   -623.75424    1387.0433   -1379.9027    9.3448983   0.33803994 
   41600   -673.14029    45.295804   -627.84449    1374.2102    5296.9129      9.50922   0.27674925 
   41700   -678.27287     45.09407    -633.1788    1368.0898    10472.091     9.650392   0.21607404 
   41800   -679.03705    46.430908   -632.60614    1408.6476    7407.8157    9.6183934   0.21103493 
   41900   -672.50453    46.264612   -626.23992    1403.6024    357.48815    9.4388545   0.25935575 
   42000   -672.69748    42.170543   -630.52693    1279.3942   -7079.4059    9.3701327   0.33807665 
   42100   -677.56697     40.91592   -636.65105    1241.3307    418.62806    9.5348487   0.24761279 
   42200   -674.95243    42.266378   -632.68605    1282.3017    2613.5596    9.5097889    0.2574641 
   42300   -670.49791    42.693122   -627.80479    1295.2485    6535.0462    9.4641944   0.31628436 
   42400   -672.86583     42.67049   -630.19534    1294.5619      908.355    9.4552391   0.28269742 
   42500   -678.68713    42.123263   -636.56387    1277.9598   -2378.5084    9.4980971   0.23167071 
   42600   -673.51743    42.045624   -631.47181    1275.6043   -816.53746    9.4339749   0.27754656 
   42700   -670.19455    43.115128   -627.07942    1308.0515   -655.87315     9.376404    0.3262158 
   42800   -674.25155    40.981103   -633.27045    1243.3083   -5090.5293    9.4128599   0.28214744 
   42900   -677.06492    40.612717   -636.45221     1232.132   -4350.2266    9.4664863    0.2800807 
   43000   -673.29387    43.991122   -629.30275     1334.628   -2694.9866    9.4071381   0.29851803 
   43100    -671.7269    45.221916   -626.50499    1371.9685    1303.1927    9.3976637   0.30788053 
   43200   -675.12002    43.634723    -631.4853    1323.8153   -3323.3028     9.432954   0.27612499 
   43300   -677.31059    41.360719   -635.94988    1254.8253    2416.5972     9.544177   0.23419031 
   43400    -672.3781    41.157354   -631.22075    1248.6555   -1912.9121    9.4208047   0.28554904 
   43500   -671.52831    40.879512    -630.6488    1240.2262    1030.7818    9.4256045   0.29977301 
   43600   -677.76605    41.204904   -636.56115    1250.0981    1333.1737    9.5304934   0.25066098 
   43700   -673.92887    43.024906   -630.90396    1305.3143    3606.2824    9.4823251   0.30282961 
   43800   -670.56448    42.239465   -628.32501    1281.4852   -9211.2675    9.2917433   0.29787922 
   43900   -671.81822    36.839704   -634.97852    1117.6641   -3082.0387    9.3981783   0.30265007 
   44000   -673.21986     40.59517   -632.62469    1231.5996    -1058.336    9.4298996   0.28010485 
   44100   -672.19896    44.536652   -627.66231    1351.1786    784.73427    9.3911675   0.31295978 
   44200    -673.5117    42.093624   -631.41808    1277.0606   -1452.2047    9.4245515   0.28859138 
   44300   -676.65977    39.168978   -637.49079     1188.331   -4217.6316    9.4707567   0.25579512 
   44400   -674.81526    43.470787   -631.34447    1318.8417    9697.9831     9.575209   0.27486148 
   44500    -673.1752    46.187517   -626.98769    1401.2635    8380.2543    9.5391674   0.27251402 
   44600   -677.24417    43.943915   -633.30026    1333.1958    7845.2443    9.6038525   0.22637942 
   44700    -677.8033    43.571864   -634.23143    1321.9083   -163.80173    9.5232623   0.23127791 
   44800   -675.46628    45.498721   -629.96756    1380.3664   -936.63655    9.4508393   0.26149544 
   44900   -672.58292    47.554006   -625.02891    1442.7208    2218.8858    9.4438971   0.24133217 
   45000   -678.39958    45.065394   -633.33419    1367.2199    8478.2984    9.6111874   0.23876581 
   45100   -678.75564    44.206518   -634.54913    1341.1628   -988.52174    9.5253635   0.26040746 
   45200   -672.98162    44.555487   -628.42613      1351.75   -7988.9213    9.3430509   0.27967289 
   45300   -673.03811    40.787635   -632.25047    1237.4387   -6589.8572    9.3666385   0.30877729 
   45400   -674.82212    43.087673   -631.73445    1307.2186    6099.0746    9.5336824   0.22410006 
   45500   -675.25788    39.323857   -635.93402    1193.0298    3344.2203    9.5200227   0.26903966 
   45600   -678.45183    38.505739   -639.94609    1168.2093   -1263.5985     9.538775   0.23032663 
   45700   -673.34187    40.393184   -632.94869    1225.4716    135.01536    9.4488727   0.27801567 
   45800    -671.3485    41.514431   -629.83407    1259.4887    4820.4005    9.4524412   0.28659205 
   45900   -673.24631    47.080227   -626.16609     1428.347   -3424.4278     9.396146   0.27137116 
   46000   -676.24815    43.219596   -633.02855     1311.221   -8278.3014    9.4048356   0.25324968 
   46100   -675.29004    39.819861   -635.47018    1208.0779   -2995.3669    9.4416613   0.27148712 
   46200   -672.59267    44.114916   -628.47776    1338.3837    937.21925    9.4514823   0.28669832 
   46300   -674.01675    44.468008   -629.54874     1349.096    2458.9223    9.4794666   0.27413646 
   46400   -679.15142    41.576043   -637.57538    1261.3579   -2238.5164    9.5322204   0.23357742 
   46500   -677.42004    43.401164   -634.01888    1316.7295   -4648.9339    9.4668897   0.23783687 
   46600   -673.42515    43.550208   -629.87494    1321.2513    2696.0032    9.4651659   0.31645015 
   46700   -670.65487    40.765933   -629.88894    1236.7803   -3740.5784    9.3603835   0.36019145 
   46800   -664.05332    42.984625    -621.0687    1304.0923    2404.4766    9.2652379    0.3995845 
   46900   -669.38665    44.182907   -625.20374    1340.4464    3394.3281    9.4125534   0.34198798 
   47000   -671.95328    42.607571   -629.34571     1292.653    444.64583    9.4266025   0.27959646 
   47100   -674.36664     41.69507   -632.67157     1264.969    753.48309    9.4580433   0.27311644 
   47200   -669.53621    42.869432   -626.66678    1300.5975    10016.843    9.4826904   0.30693302 
   47300   -670.89848    44.750429   -626.14805    1357.6643    -850.8224    9.3904954   0.31827354 
   47400   -674.47547    43.293275   -631.18219    1313.4563   -7664.3301    9.3780109   0.25377922 
   47500   -676.24975    41.963034   -634.28672    1273.0987   -3734.3988     9.453913   0.25664351 
   47600   -670.38188    42.761942   -627.61993    1297.3364    6142.4643    9.4500492   0.29862972 
   47700   -670.56713    45.028501   -625.53863    1366.1006    3870.8798    9.4274534   0.32674437 
   47800   -675.01673    41.977096   -633.03963    1273.5253    2192.9199    9.4964835   0.28617204 
   47900   -675.92627    42.523018   -633.40325    1290.0878    -631.9203    9.4824634   0.28165466 
   48000   -673.10658    46.113926   -626.99266    1399.0308   -2308.8801    9.4016451   0.27968957 
   48100   -673.60083    46.468572   -627.13226    1409.7903   -3058.6573    9.4070205    0.2999347 
   48200    -676.9406    42.597208   -634.34339    1292.3386    3721.5637    9.5385736   0.23013165 
   48300   -673.20917    40.404121   -632.80505    1225.8035    3528.4853    9.4817462   0.27973844 
   48400   -670.92799    45.492846   -625.43515    1380.1881   -11830.637    9.2434541   0.32991138 
   48500   -669.99566    39.775211   -630.22045    1206.7232    2966.0023    9.4153185   0.30487446 
   48600   -679.01255    44.563258   -634.44929    1351.9858    1226.0674    9.5607673   0.23574957 
   48700   -675.15432    41.395403   -633.75892    1255.8775    1627.9515    9.5026918   0.28584059 
   48800    -672.4036    44.863841   -627.53976     1361.105   -173.04821    9.4055531   0.30498382 
   48900   -673.78339    43.470369   -630.31302    1318.8291   -9758.2312       9.3473   0.30474702 
   49000   -673.89675    39.458033   -634.43872    1197.1005    2987.7087     9.477939    0.2662588 
   49100   -676.23588    38.511477    -637.7244    1168.3833    1882.2606    9.5037967   0.27043805 
   49200   -669.57294    40.043866   -629.52907    1214.8738    490.66364    9.3838477   0.31517663 
   49300   -673.57015    43.411784   -630.15837    1317.0517   -2385.9411    9.4208424   0.30757507 
   49400   -677.14711    41.532966   -635.61414     1260.051    8597.1223    9.6087782   0.24014607 
   49500   -679.06461    40.252773   -638.81184    1221.2118   -4131.2838    9.5050977   0.24454997 
   49600   -673.42116    41.910112   -631.51105    1271.4931   -6396.3403    9.3911267   0.29894075 
   49700   -673.11109    42.446532   -630.66456    1287.7673    4955.6154     9.490587   0.27116828 
   49800   -675.20706    42.736229   -632.47083    1296.5563     4984.525    9.5279489   0.23149705 
   49900   -678.25825    40.818968   -637.43928    1238.3893   -631.47842    9.5281626   0.21671119 
   50000   -673.41748    41.846088   -631.57139    1269.5507    8118.6134    9.5435365   0.24762169 
   50100   -672.58563    43.520809   -629.06482    1320.3594    8137.8745     9.522454    0.2722032 
   50200   -676.09426     42.00121   -634.09305    1274.2569   -5040.8161    9.4483844   0.26362442 
   50300   -673.48183    37.926112   -635.55572    1150.6242   -9663.1735    9.3305372   0.30859807 
   50400   -675.95482    44.491303   -631.46352    1349.8027   -8142.7563    9.3828684    0.2966076 
   50500   -672.20536    42.170986   -630.03438    1279.4076    2233.5599    9.4545188   0.27295374 
   50600   -680.16207    42.608771    -637.5533    1292.6894   -1915.9803    9.5461207   0.24315048 
   50700   -679.46099     45.68935   -633.77165    1386.1498     5794.575    9.5956502    0.2156835 
   50800   -671.61918    42.574859   -629.04432    1291.6606    5816.7323    9.4772304   0.26023566 
   50900   -676.09843    43.735479   -632.36295    1326.8721   -5371.6629    9.4267002   0.24965103 
   51000   -677.66288    41.543204   -636.11968    1260.3616   -2842.1991    9.4745466    0.2574302 
   51100   -674.79696    44.850431   -629.94653    1360.6982    -1513.678    9.4564845   0.25814472 
   51200   -677.77893    45.184455   -632.59447     1370.832    2735.2159    9.5548999   0.21977845 
   51300   -676.35918    39.699908   -636.65927    1204.4386   -238.40509    9.5173911   0.26251334 
   51400   -670.79296    39.312767   -631.48019    1192.6933   -3645.5167    9.3719138   0.31978564 
   51500   -670.28755    42.917432   -627.37012    1302.0537    552.91707    9.4024678   0.31613976 
   51600   -675.86846    42.218701   -633.64976    1280.8552   -219.51586     9.486991   0.26571836 
   51700   -675.87178    40.402895   -635.46888    1225.7663    2619.8633    9.5283294   0.25179193 
   51800    -672.2725    43.910166   -628.36233    1332.1719    1435.6838    9.4252268    0.3001713 
   51900   -675.73072    48.658707   -627.07202    1476.2358   -6065.8922    9.4073675   0.23372724 
   52000   -677.85643    44.008396   -633.84803     1335.152    2316.1587    9.5604244   0.24169282 
   52100   -674.31607    42.901485   -631.41458    1301.5699    18156.918    9.6766486    0.2476722 
   52200   -674.16948    48.214087   -625.95539    1462.7467    5669.5191    9.5060744   0.26328688 
   52300   -674.00881    43.267414   -630.74139    1312.6717    1224.5519    9.4723791   0.25073963 
   52400    -676.1493    40.538968   -635.61033    1229.8945    1109.3397    9.5020623   0.23965105 
   52500   -675.67714    45.326666   -630.35047    1375.1465   -2650.9427    9.4545012   0.25989024 
   52600   -671.40337    43.465815   -627.93755    1318.6909    4979.6526    9.4641629   0.28680187 
   52700   -675.18594    39.247649   -635.93829    1190.7177    5195.7654    9.5446556   0.27175443 
   52800   -677.16072    41.946253   -635.21447    1272.5895    6737.6918    9.5944238   0.23117977 
   52900   -676.84457    47.232332   -629.61223    1432.9617    1171.5747    9.5171299   0.25674215 
   53000   -676.00985    45.823276   -630.18657    1390.2129   -3174.7531    9.4412367   0.24676641 
   53100   -677.21747    40.979711   -636.23776     1243.266    2694.0885      9.53811   0.22100176 
   53200   -677.37442    46.658868   -630.71556    1415.5636   -1153.2505    9.4864259   0.22653184 
   53300   -671.60864    43.504769   -628.10387    1319.8727    3181.9588    9.4466887   0.29593041 
   53400   -674.31999    40.337718   -633.98227    1223.7889   -4142.8155    9.4115338   0.27672553 
   53500   -675.85499     39.46694   -636.38805    1197.3707   -8829.3138    9.4110913   0.28473458 
   53600   -671.14052    41.403336   -629.73719    1256.1182    3862.9548    9.4503756   0.31844684 
   53700    -673.2991     44.81308   -628.48602     1359.565   -2680.5978    9.4061752   0.26728471 
   53800   -677.82376     41.93812   -635.88564    1272.3428   -1592.4677    9.5102289   0.22615906 
   53900   -673.93082     40.78923   -633.14159    1237.4871    8141.5255    9.5527768    0.2606302 
   54000   -671.05864    41.462154   -629.59648    1257.9027   -1158.0254    9.3874843   0.30223632 
   54100    -673.8551    40.343063   -633.51203    1223.9511   -9248.4057     9.348713   0.28082806 
   54200   -678.95876    44.201381   -634.75738    1341.0069   -5259.0508    9.4673549   0.23970347 
   54300   -668.85906    42.260671   -626.59839    1282.1286   -2916.0144    9.3159817   0.32054612 
   54400   -670.96694    41.354885   -629.61205    1254.6483    2893.1748    9.4141565   0.29749341 
   54500    -674.2807    41.219618   -633.06108    1250.5445   -6267.8356    9.4026529   0.28103978 
   54600   -675.64978    42.080342   -633.56944    1276.6576     -2047.91    9.4571889   0.26888119 
   54700   -675.28564     45.13759   -630.14805    1369.4102      2296.61    9.5107115   0.27603774 
   54800   -671.80307    45.109824   -626.69325    1368.5678    623.88616     9.408052   0.28786752 
   54900   -673.23492    43.308675   -629.92624    1313.9235    6064.4464    9.5036826   0.23862667 
   55000   -676.53351    43.238362   -633.29515    1311.7903   -109.15608    9.4885792   0.28418244 
   55100   -671.93972      43.9501   -627.98962    1333.3834    -4649.334    9.3683476   0.33808405 
   55200    -669.0084    46.065909    -622.9425    1397.5741     7433.616     9.429209    0.3364295 
   55300   -673.09076    42.823891   -630.26687    1299.2158   -5197.6672    9.3797256   0.28942377 
   55400   -674.45548    41.267888    -633.1876    1252.0089   -3722.8524    9.4232547   0.29646823 
   55500   -674.91781    45.528388   -629.38942    1381.2664   -4318.6116    9.4143816   0.27838736 
   55600   -669.86475    48.270568   -621.59418    1464.4603    572.31961    9.3564959   0.31559953 
   55700   -674.55166    45.599833   -628.95183     1383.434    -2656.938    9.4198702   0.26261168 
   55800   -672.31915     39.14386   -633.17529    1187.5689    1797.7014    9.4584213   0.26997206 
   55900   -674.28329    42.165075   -632.11822    1279.2283    1241.8184    9.4643854   0.26677924 
   56000   -667.93877    43.758931   -624.17984    1327.5836   -2253.6764    9.3219762   0.32146506 
   56100   -672.50297    43.950328   -628.55264    1333.3903   -1962.3314    9.4010738   0.27253956 
   56200   -674.63979    42.778215   -631.86158    1297.8301   -1347.1726    9.4485419   0.28573889 
   56300   -674.71324    42.599781   -632.11346    1292.4167    5337.3474    9.5172896   0.23669809 
   56400   -678.89811    41.262026   -637.63608    1251.8311    6620.1349    9.6171603    0.2241888 
   56500   -678.94882    41.195561   -637.75326    1249.8146    3709.1999    9.6019196   0.22216429 
   56600   -674.33392    42.650837   -631.68309    1293.9656    -5986.892    9.3948028   0.25818421 
   56700   -673.78075    41.892452    -631.8883    1270.9573   -7145.4212    9.3663918    0.2675665 
   56800   -675.50343    38.259965   -637.24347    1160.7528   -8155.6687    9.4003588   0.25796571 
   56900   -678.97427    41.734713   -637.23956    1266.1717   -1016.7427    9.5268769    0.2213803 
   57000   -676.63248     48.28764   -628.34484    1464.9782    4471.5388    9.5418511   0.24693435 
   57100   -673.87551    44.164604    -629.7109    1339.8912    3972.4625    9.5043472   0.26583427 
   57200   -674.94569     40.19932   -634.74637    1219.5901    795.34379    9.4915657   0.30853565 
   57300   -673.38948    43.014625   -630.37485    1305.0024   -936.64071    9.4440481    0.2852766 
   57400    -671.5797    45.927635   -625.65206     1393.379   -669.97215    9.4110543   0.28550164 
   57500   -676.02927    44.603558   -631.42572    1353.2084   -265.22915    9.4899228   0.28740188 
   57600   -675.32394    41.975637    -633.3483     1273.481    8239.2729    9.5729328   0.24870516 
   57700   -683.96709    44.064133   -639.90296     1336.843    3091.8127    9.6559083   0.20903038 
   57800   -678.82484    42.570348    -636.2545    1291.5237   -9938.9887    9.4394836   0.26806393 
   57900   -674.38837    41.981988   -632.40638    1273.6737   -11709.265    9.3383724   0.28890516 
   58000   -674.61692    42.904347   -631.71257    1301.6568   -2679.5978    9.4357249   0.23141677 
   58100   -678.91913    40.309672   -638.60946     1222.938   -93.580394    9.5311545   0.22907324 
   58200   -676.62612    43.237261   -633.38886    1311.7569    1171.9731    9.5137528   0.26005647 
   58300   -674.22013    44.341541   -629.87859    1345.2592    7595.7767    9.5255438   0.27104461 
   58400   -670.46982    40.038747   -630.43107    1214.7185   -1498.4922    9.3908086   0.28607154 
   58500    -677.3264    38.464551   -638.86185    1166.9597   -5175.5488    9.4676726   0.25437417 
   58600   -677.08426     41.95106    -635.1332    1272.7354    438.20317    9.5130992   0.24935677 
   58700    -674.8463    43.848187   -630.99812    1330.2915   -2827.7414    9.4453723   0.27853377 
   58800   -672.16427    44.043176    -628.1211    1336.2072    5180.8173    9.4819965   0.27474007 
   58900   -666.01097     45.60585   -620.40512    1383.6165    2745.8814    9.3244897   0.34849233 
   59000   -675.76429    45.775376   -629.98891    1388.7597   -8001.9774    9.3862622   0.28279696 
   59100   -674.82357    44.016378   -630.80719    1335.3942    3518.0642    9.5128189   0.24599641 
   59200   -676.10775    43.091124   -633.01663    1307.3233    2373.7945    9.5227862   0.24132785 
   59300   -677.78413     42.30117   -635.48296    1283.3572   -486.60087    9.5112055   0.26636628 
   59400   -681.03961    37.882363   -643.15725    1149.2969   -9138.5868    9.4937635    0.2096014 
   59500   -675.75096    39.991156    -635.7598    1213.2747    -5047.645    9.4378991   0.25447644 
   59600   -677.24894    45.115024   -632.13391    1368.7255   -1288.5632    9.4721236   0.26936007 
   59700   -675.30082    46.329577   -628.97124    1405.5734   -2483.8589    9.4492387   0.29093203 
   59800   -673.29184    44.324596   -628.96724    1344.7451   -1839.3056    9.4295387   0.30766855 
   59900   -679.43899    42.922333   -636.51666    1302.2024   -2650.5412    9.5279103   0.23195393 
   60000   -671.99769    40.627685   -631.37001    1232.5861    -2459.512    9.4030119    0.2689758 
   60100    -671.6922    41.028538   -630.66367    1244.7474    1078.3397     9.433628   0.28429164 
   60200    -678.5323    40.227104    -638.3052     1220.433    79.979806    9.5341906   0.23697032 
   60300   -675.24413    40.547774   -634.69636    1230.1617   -7401.3369    9.3997772     0.318038 
   60400   -670.80399    40.175937   -630.62805    1218.8807   -129.81611    9.3974712   0.31632036 
   60500   -672.72093    41.932407   -630.78852    1272.1695   -3699.8707    9.3873089   0.32547846 
   60600   -668.32143    43.957844   -624.36359    1333.6184   -420.69572    9.3389673   0.31435246 
   60700   -670.85284    44.242517   -626.61033    1342.2549   -6251.7178    9.3393849   0.30023788 
   60800   -675.17664    43.162879   -632.01376    1309.5002    5463.8713    9.5303883   0.23773218 
   60900   -678.90959    47.154826   -631.75476    1430.6102    4480.9174    9.5900064   0.21588476 
   61000   -675.01518    43.916366   -631.09881      1332.36    7196.3041    9.5461692   0.26887549 
   61100    -669.5432    42.419495    -627.1237     1286.947   -2247.4608      9.34325   0.35026838 
   61200   -673.61964    43.790782   -629.82885    1328.5499   -6184.4192    9.3845489   0.28315432 
   61300   -677.57746    40.610526   -636.96693    1232.0655     1204.188    9.5386556   0.22325677 
   61400   -674.08285    41.086551    -632.9963    1246.5074    21.519637    9.4687032   0.27240455 
   61500   -670.36017    44.261422   -626.09875    1342.8285     5958.746    9.4411642   0.30290229 
   61600   -676.72838    44.840987   -631.88739    1360.4117   -5980.6655    9.4472158   0.24728664 
   61700   -674.74384    40.030097   -634.71374    1214.4561    5663.1778      9.54389   0.26334573 
   61800   -672.67638    45.120542   -627.55584     1368.893    1481.9364    9.4405338   0.27782747 
   61900   -671.28364    42.266182   -629.01746    1282.2957   -3033.1533    9.3675696   0.30137017 
   62000   -679.06954    43.002471   -636.06707    1304.6337   -7936.1068    9.4597633    0.2890159 
   62100   -676.06016    44.924601   -631.13556    1362.9484    2222.3624    9.5139197   0.25546034 
   62200   -672.25319    45.820356   -626.43284    1390.1243    7035.1041     9.486119   0.28145657 
   62300   -672.19061     42.78856   -629.40205     1298.144   -6286.6459    9.3552524   0.35036118 
   62400    -673.0244     36.67604   -636.34836    1112.6988   -873.74404    9.4454609   0.29902637 
   62500   -676.22203     45.24418   -630.97785    1372.6439    1475.3753    9.4977381   0.25569482 
   62600   -675.63847    44.777973    -630.8605    1358.4999    418.33312    9.4848406   0.25438192 
   62700   -680.48883    43.771974   -636.71686    1327.9793    7082.1591    9.6484409   0.22566659 
   62800   -676.67143    42.496111   -634.17532    1289.2714   -68.681605    9.5047792   0.27031888 
   62900   -671.71098    41.805893   -629.90509    1268.3312    -2989.062    9.3950807   0.35022679 
   63000   -673.45909    42.104413   -631.35468    1277.3879   -4078.4412    9.3921396   0.33228681 
   63100    -673.9398    41.478123   -632.46168    1258.3872   -4927.6045    9.3987175    0.2983335 
   63200   -678.11468    37.520491   -640.59419    1138.3182    3437.0962    9.5775313   0.22987312 
   63300   -675.38736    41.426126   -633.96123    1256.8096   -5653.9066     9.424936   0.31793855 
   63400   -673.48585     43.15253   -630.33331    1309.1863   -3025.6138    9.4024965   0.30767599 
   63500   -673.53364    43.355288   -630.17835    1315.3377    2183.5748    9.4691594   0.27843722 
   63600   -679.89633    43.625019   -636.27131    1323.5209    1363.4756    9.5654458    0.2254907 
   63700   -679.27961    40.684126   -638.59549    1234.2984    4739.1831    9.5991683   0.23801278 
   63800   -675.40388    44.190404   -631.21348    1340.6739    8782.1472    9.5785775    0.2523721 
   63900   -676.61569    45.063975   -631.55172    1367.1768    2849.7563    9.5379596   0.22591732 
   64000   -677.37481    41.410294   -635.96451    1256.3293    642.63797    9.5337351   0.23008497 
   64100   -674.09399    39.123078   -634.97091    1186.9384   -1802.1904    9.4414286   0.24034303 
   64200   -671.27582    42.623738   -628.65209    1293.1435   -3035.2329    9.3605648   0.30218111 
   64300    -675.1641    43.648571   -631.51553    1324.2355    1820.7292    9.4833915   0.27181925 
   64400    -676.9319    40.168691   -636.76321    1218.6609    7285.6985    9.6145518   0.24719404 
   64500   -673.84846     42.89992   -630.94854    1301.5224   -3422.5689    9.4304332   0.25074914 
   64600   -672.76438    43.964817   -628.79957    1333.8299   -2743.6519    9.3976328   0.29123376 
   64700   -674.46875    40.344271   -634.12448    1223.9877     2674.086    9.4888726   0.26555431 
   64800   -678.32102    40.544559   -637.77646    1230.0641   -9405.0894    9.4245206   0.24620141 
   64900   -669.71447    39.916059   -629.79841    1210.9964   -3737.9581    9.3384268   0.30899656 
   65000   -672.97237    42.018256   -630.95412     1274.774    2746.3773    9.4614148   0.26379406 
   65100   -679.81703    45.264121   -634.55291    1373.2489    -2641.284    9.5223884      0.23432 
   65200   -673.40612    46.077249   -627.32887    1397.9181    5671.2001    9.5034633   0.25001627 
   65300   -674.42055    47.327697   -627.09285    1435.8549    4265.1268    9.5030312    0.2768738 
   65400   -678.45804     45.66251   -632.79553    1385.3355    3729.7444    9.5679165   0.24037061 
   65500   -678.29437    42.137586   -636.15678    1278.3943    -8840.968    9.4369877   0.25701583 
   65600   -675.45296    47.342276   -628.11068    1436.2972     -4962.96     9.412495   0.26705964 
   65700   -673.78185     44.43708   -629.34477    1348.1577    9818.5314     9.551278   0.24305801 
   65800   -679.22738    44.238284    -634.9891    1342.1265    4455.4836    9.6123694   0.20006615 
   65900   -678.64021    43.662298   -634.97791    1324.6519    893.77459    9.5403887   0.25130882 
   66000   -669.60821    41.675014   -627.93319    1264.3606    2339.0717     9.379224   0.36890744 
   66100   -672.69411    43.171769   -629.52234      1309.77   -4247.1583    9.3997877   0.33537466 
   66200   -676.66344    43.002097   -633.66135    1304.6223     1058.175    9.5050978   0.23538405 
   66300   -672.03863    44.318376   -627.72025    1344.5564    11626.316    9.5359625   0.25527663 
   66400   -671.05318    44.333833   -626.71935    1345.0253   -460.86166    9.4042595   0.31300004 
   66500   -674.30754    40.596233    -633.7113    1231.6319   -4671.1662    9.4180352   0.25534892 
   66600   -674.84194    40.314757   -634.52718    1223.0923   -7052.8701    9.4087865   0.28247917 
   66700   -670.86831    44.152308     -626.716    1339.5181   -5345.4708    9.3341571   0.31822733 
   66800   -672.12638    43.359843   -628.76654    1315.4758    3449.3563    9.4583281   0.28663237 
   66900   -675.02813    42.323517   -632.70461    1284.0352    12943.638     9.605789   0.23860588 
   67000   -675.06325    43.379602   -631.68365    1316.0753    8859.9339    9.5658301   0.23678392 
   67100   -667.25147    42.739798   -624.51168    1296.6646   -3853.8514    9.2991762   0.34210195 
   67200   -668.43669    45.018117   -623.41857    1365.7855   -5657.0571    9.2616978   0.36696343 
   67300   -673.22782     43.05078   -630.17704    1306.0993   -5435.7112    9.3567581   0.31255895 
   67400   -675.82615    43.972082   -631.85407    1334.0503    4540.6264    9.5282742   0.28910094 
   67500   -676.48369    42.737979   -633.74571    1296.6094    11574.724    9.6194621   0.21393433 
   67600   -683.01091    42.506582   -640.50433    1289.5891    -2089.719    9.5960433   0.17883805 
   67700   -675.41905    41.735391   -633.68366    1266.1923    939.09299    9.4891951   0.23158664 
   67800   -674.71502    42.622514   -632.09251    1293.1064   -7735.4691    9.3845891    0.2708255 
   67900   -670.93484      40.5196   -630.41524    1229.3069    4157.7144    9.4639942   0.31087836 
   68000    -666.8692    41.031554   -625.83765    1244.8389    139.90964     9.328614   0.35895833 
   68100   -673.53574    40.132523   -633.40321    1217.5636   -6724.6758    9.3629389   0.28394766 
   68200   -676.99036    41.310454   -635.67991    1253.3003   -8494.0244    9.4069963     0.262966 
   68300   -671.66221    43.446486   -628.21573    1318.1045   -3008.6204    9.3842798    0.3423894 
   68400   -670.73302    44.304594   -626.42842    1344.1383      9582.63    9.4875705   0.29009355 
   68500    -674.9791    41.971715   -633.00739     1273.362   -5058.9099    9.4217646   0.28222641 
   68600   -674.54827    42.625393   -631.92287    1293.1937   -3656.6318    9.4002599   0.25625012 
   68700   -669.42611    45.314517   -624.11159    1374.7779   -1714.2765    9.3442675   0.32906811 
   68800   -665.84832    39.276423   -626.57189    1191.5907     3336.073    9.3706394   0.35469316 
   68900   -674.43415    41.123788   -633.31037    1247.6371    2381.5556    9.5015542   0.25519936 
   69000    -677.7759    45.800767   -631.97513      1389.53    6667.7665    9.5827705   0.25209455 
   69100   -671.45433     43.26644   -628.18789    1312.6422     3170.193    9.4345374   0.30864753 
   69200   -665.72956     46.30299   -619.42657    1404.7667   -4114.3145    9.2381633   0.35445905 
   69300   -667.96634     41.36473   -626.60161     1254.947   -3301.3529    9.3131049   0.30697121 
   69400   -673.09592    41.707243   -631.38868    1265.3383   -11596.435    9.3108377   0.31823485 
   69500   -673.63363    42.026631     -631.607    1275.0281    5426.3674    9.4979382   0.28593578 
   69600   -676.35991    41.526117    -634.8338    1259.8432     2270.537    9.5303259   0.25639471 
   69700   -679.32505    43.321564   -636.00349    1314.3145   -617.51368     9.545526    0.2287314 
   69800   -673.11256    44.415757    -628.6968    1347.5108    1310.1352    9.4310451   0.27936508 
   69900   -673.29205    42.263743   -631.02831    1282.2217    -4323.335    9.3996161   0.29498578 
   70000   -675.47246    38.914987   -636.55747    1180.6253    922.31906    9.5030309   0.25651732 
   70100   -677.93105    42.385713   -635.54534    1285.9222   -1538.6167     9.507842    0.2310035 
   70200    -672.9239    44.859303    -628.0646    1360.9673    1147.6811    9.4360854   0.28916186 
   70300   -674.74834     44.65728   -630.09107    1354.8382    789.04341    9.4656104   0.29155663 
   70400   -677.78356    42.402065   -635.38149    1286.4183    1573.8947    9.5309436   0.24704661 
   70500   -679.32632    41.449185   -637.87713    1257.5092   -2193.6035    9.5261276     0.239355 
   70600   -675.46141    45.783488   -629.67792    1389.0058    2253.0859    9.4833231   0.23484677 
   70700   -671.45933    41.760714   -629.69861    1266.9606    13496.466    9.5368816   0.27321256 
   70800    -676.9573    44.447197    -632.5101    1348.4646   -4839.1103    9.4400413   0.28246266 
   70900   -675.27919    39.242816   -636.03637    1190.5711    33.859679    9.4704106   0.24571884 
   71000   -677.39553     40.70431   -636.69122    1234.9108   -8776.7943    9.4189142   0.26240202 
   71100   -673.36853     43.33523    -630.0333    1314.7291   -2666.6786    9.4159638   0.27427412 
   71200   -675.85492    44.418591   -631.43633    1347.5968    1697.1395      9.50254   0.26200488 
   71300   -680.49982     42.93282     -637.567    1302.5206    2364.1835    9.5891203   0.21901019 
   71400   -677.68149     44.55596   -633.12553    1351.7644    6188.5059    9.5848194   0.21912356 
   71500   -672.23005    41.042004   -631.18805    1245.1559    3160.4087    9.4708761    0.2822715 
   71600   -673.56782    41.999041   -631.56877    1274.1911   -362.09184    9.4331709   0.28119644 
   71700   -679.22934    39.831971   -639.39737    1208.4453   -4463.7091    9.5098996    0.2140876 
   71800   -679.07671    43.594789   -635.48192    1322.6038    8027.1588    9.6238756   0.21341966 
   71900   -676.29468    44.220538   -632.07414    1341.5881    7592.0591    9.5908524   0.24612256 
   72000   -672.75512     43.15024   -629.60488    1309.1168   -3043.4292    9.3996513   0.27070031 
   72100   -672.86381    45.292456   -627.57136    1374.1086   -11321.308    9.2988496   0.30430715 
   72200   -677.45764    42.311355   -635.14629    1283.6662     942.9057    9.5392624   0.26316037 
   72300   -677.10088    44.693837   -632.40704    1355.9473    6524.9409    9.5794093   0.25709112 
   72400   -673.07329    44.489478   -628.58381    1349.7474    4719.5576      9.48028   0.27240834 
   72500   -677.20098    43.442438   -633.75855    1317.9817   -4767.2104    9.4681868    0.2576615 
   72600   -675.88202     40.34528   -635.53674    1224.0183   -2637.4511     9.462251   0.25615041 
   72700   -672.29786    41.391716   -630.90614    1255.7657    324.68775    9.4194137   0.29401555 
   72800   -672.54894    44.723028   -627.82591     1356.833   -7590.4066    9.3268031   0.27742746 
   72900   -673.93675    39.104424   -634.83233    1186.3725    4689.0073    9.5075404   0.23648447 
   73000   -678.56051     42.92955   -635.63096    1302.4214    4868.1658    9.5926521   0.21857662 
   73100   -678.32701    47.088568   -631.23844    1428.6001    4959.2535    9.5842451   0.21062834 
   73200   -675.21097    44.539313   -630.67165    1351.2593    6736.0711    9.5396459    0.2343169 
   73300   -670.17111    46.880289   -623.29083    1422.2812   -2473.9871    9.3550644    0.2821622 
   73400   -669.05153    44.472029    -624.5795     1349.218    2857.3977    9.3918571   0.33086326 
   73500   -674.65433    43.888367   -630.76596    1331.5105    277.14514    9.4729969   0.30473679 
   73600   -673.34343    42.003808   -631.33962    1274.3357   -737.61056     9.444778   0.26956907 
   73700   -679.09246    40.225382   -638.86708    1220.3808    1811.4913    9.5656629   0.23028641 
   73800   -674.56826    39.081561    -635.4867    1185.6789   -5209.2801    9.4224395   0.28192088 
   73900   -671.70266    40.450632   -631.25202    1227.2145     -4859.85    9.3642577     0.305247 
   74000   -674.82704    45.081371   -629.74567    1367.7046    2761.1929    9.5024217    0.2579325 
   74100    -682.4517    47.724017   -634.72768    1447.8787    3066.6419    9.6219443   0.19484378 
   74200   -680.81148    43.244582    -637.5669     1311.979    11164.622    9.7009116   0.19170914 
   74300   -672.85626    42.173561    -630.6827    1279.4858   -2228.6484    9.4134168   0.27935628 
   74400   -670.51172    44.346066   -626.16565    1345.3964   -152.89097     9.382029   0.31380034 
   74500   -674.67288    43.965111   -630.70777    1333.8388      2931.33    9.4921702   0.27860827 
   74600   -676.86131    43.147388   -633.71392    1309.0303   -5325.5173    9.4552246   0.22491559 
   74700    -673.7525    42.184198    -631.5683    1279.8085   -550.04747    9.4502362   0.26054607 
   74800   -669.79806    44.139113   -625.65895    1339.1178     2862.435    9.3985167   0.31463377 
   74900   -675.72013     42.36719   -633.35294    1285.3602      4862.15    9.5494914   0.24898441 
   75000   -677.41198    43.162766   -634.24921    1309.4968   -865.73655    9.4980182   0.25538502 
   75100   -672.96666     42.53406    -630.4326    1290.4228   -8655.9768    9.3448432   0.33054827 
   75200   -666.13355    41.587457   -624.54609    1261.7042    -10085.08    9.2087403   0.38574904 
   75300    -669.9176    43.746471   -626.17113    1327.2056   -15486.424    9.2115688    0.3574982 
   75400   -676.34855    43.160484   -633.18806    1309.4276    3112.6636    9.5213534    0.2551665 
   75500   -675.26442    42.624977   -632.63945    1293.1811    6196.3647     9.563776   0.24942308 
   75600   -671.90809    40.875819   -631.03227    1240.1141    11965.828    9.5318898   0.28338084 
   75700   -667.73727    43.257893   -624.47938    1312.3828   -3405.5999    9.2887847    0.3219927 
   75800   -672.43599    42.652283    -629.7837    1294.0095   -3483.2966    9.3774916   0.27166735 
   75900   -675.40526    42.143025   -633.26223    1278.5593   -1603.7206    9.4683291   0.27390241 
   76000   -674.44272    44.214876   -630.22784    1341.4163    6186.7395    9.5201527   0.26344593 
   76100   -670.22323     46.62905   -623.59418     1414.659   -6874.9777    9.2936289   0.29889991 
   76200   -674.49155    43.184795   -631.30675    1310.1651   -3368.2079    9.4406223   0.26324703 
   76300   -676.74757    42.793521   -633.95405    1298.2945    1003.8975    9.5252607   0.24879931 
   76400   -672.20687    41.408528   -630.79834    1256.2757    5429.6133     9.465514   0.29828579 
   76500   -670.46756    44.452719   -626.01484    1348.6322     2198.708    9.3891631   0.34885317 
   76600   -673.53046    41.178627   -632.35184    1249.3009   -6402.9336    9.3873974   0.27985204 
   76700   -674.63092    40.722697   -633.90822    1235.4686   -4684.5131     9.414777   0.26368773 
   76800   -672.98294       40.609   -632.37394    1232.0192    7983.8966    9.5360347   0.26817427 
   76900    -670.8526    45.366643   -625.48595    1376.3593    3733.9813     9.431187   0.29722077 
   77000   -672.62785    46.944506   -625.68335    1424.2294   -2038.7088    9.4083629   0.27981948 
   77100   -674.95342    43.795515   -631.15791    1328.6935    -1544.954    9.4509739   0.25720309 
[...]
  481400   -676.95708    38.153599   -638.80348    1157.5258   -163.43642    9.5196428   0.24225317 
  481500   -673.39282    39.700114   -633.69271    1204.4449    2290.2805    9.4922604   0.26697138 
  481600   -675.26908    44.586198   -630.68288    1352.6817   -3071.1931    9.4404877    0.2535983 
  481700   -671.31649    43.887321   -627.42917    1331.4788   -180.55216    9.3906911   0.28451726 
  481800   -670.13855    44.455585   -625.68296    1348.7191    4006.8681    9.4233168   0.28928288 
  481900   -673.20875    40.419855   -632.78889    1226.2808   -1478.7054    9.4342289   0.28955583 
  482000   -673.27504    40.177338    -633.0977    1218.9232   -1411.2178    9.4471886   0.26870276 
  482100   -675.77304    45.082282   -630.69076    1367.7322   -3067.5095    9.4404905   0.30181839 
  482200   -673.22155    50.594858    -622.6267    1534.9759   -3131.8368    9.3853246   0.34509207 
  482300    -671.3392    42.543327   -628.79587    1290.7039    5121.4167    9.4601606   0.28124465 
  482400   -674.94646    40.292801   -634.65366    1222.4262   -2503.4698    9.4465003   0.28013253 
  482500   -674.40394    42.227359   -632.17658    1281.1179   -8685.6044    9.3701441   0.30639615 
  482600   -667.72703    41.958593   -625.76844    1272.9639    539.59558    9.3516407   0.38252785 
  482700    -675.0818    43.876876   -631.20492    1331.1619   -1846.7928    9.4539718   0.24320841 
  482800   -675.69671    42.035139   -633.66157    1275.2862   -1830.5099    9.4649336   0.25885475 
  482900    -673.2193    43.306468   -629.91283    1313.8565     2445.975     9.477905   0.25817997 
  483000   -669.01646    44.704915   -624.31155    1356.2834    5805.1128    9.4079568   0.27876851 
  483100   -676.53231    45.129476   -631.40283     1369.164   -2817.8516    9.4748975   0.26738831 
  483200   -678.49495    44.701489   -633.79346    1356.1795   -4394.1267    9.4852052   0.24401686 
  483300   -674.93197    43.282435   -631.64953    1313.1274     6254.072    9.5400874   0.27153603 
  483400   -672.78479    45.938567   -626.84623    1393.7107    -837.1709    9.4217281   0.26564855 
  483500   -676.52037    42.561558   -633.95881     1291.257    3377.7242    9.5452579   0.26052653 
  483600   -675.85325    41.497114   -634.35614    1258.9633     3464.019    9.5321765   0.24545182 
  483700   -671.49734    44.274906   -627.22243    1343.2376   -2788.3741    9.3950222   0.27111593 
  483800   -674.33919    42.222977   -632.11621     1280.985   -5738.9215    9.3985367   0.26664868 
  483900    -678.9676    41.585434   -637.38216    1261.6428    1704.4914    9.5602812   0.25519197 
  484000   -674.10387    43.150932   -630.95293    1309.1378    735.64079    9.4685116   0.28402803 
  484100   -672.75773     42.48492   -630.27281    1288.9319   -5137.7284     9.375098   0.29292016 
  484200    -674.6647    40.681339   -633.98337    1234.2139   -8567.9587    9.3875463   0.27769166 
  484300   -675.37326     41.12655   -634.24671    1247.7209    4497.3869    9.5161477    0.2632123 
  484400   -671.06521    42.961017    -628.1042     1303.376    1270.2159    9.3933335   0.30117749 
  484500   -675.18425    42.569384   -632.61487    1291.4945   -8621.0886    9.3766422   0.27372162 
  484600   -676.67775    43.595148    -633.0826    1322.6147    -4504.825    9.4429061   0.24567539 
  484700   -674.41331    46.571319   -627.84199    1412.9075   -2085.2427    9.4300561   0.27151893 
  484800   -673.14024     41.33881   -631.80143    1254.1606    5368.9041    9.4970544   0.27796368 
  484900   -680.13261     44.03386   -636.09875    1335.9246     -5718.17     9.489199   0.23434056 
  485000   -672.52231    41.358895   -631.16341    1254.7699   -986.28588     9.423643   0.27403142 
  485100    -671.5987    45.375604    -626.2231    1376.6312    6830.7931    9.4871461   0.27085819 
  485200   -678.60124     46.28395   -632.31729    1404.1891    7106.7144    9.6092105   0.22872909 
  485300   -678.27418    43.482121   -634.79206    1319.1856    2048.1425    9.5526458   0.23049972 
  485400   -672.89143    44.465449   -628.42598    1349.0184   -3694.9207    9.3661057   0.30698561 
  485500     -668.931    41.449753   -627.48125    1257.5264   -9702.8145    9.2541939   0.37034037 
  485600   -675.63472    42.393314    -633.2414    1286.1527    2470.4459    9.5144033     0.257774 
  485700   -678.18836    42.348666    -635.8397    1284.7982   -2026.2122    9.5244345   0.22239099 
  485800   -674.01476    43.402005   -630.61276     1316.755    8688.6207    9.5326681   0.29971293 
  485900   -672.25839    46.228693    -626.0297    1402.5127   -3863.6973    9.3831905   0.29749909 
  486000    -676.5301    42.734212   -633.79588    1296.4951   -877.91206    9.4933438    0.2646517 
  486100     -678.444    45.351158   -633.09284    1375.8895   -3497.2921    9.4917413   0.23508793 
  486200   -674.08073    46.259494   -627.82124    1403.4471    9050.5501     9.540125   0.25609049 
  486300   -673.19143    44.332572   -628.85885    1344.9871    7136.1588    9.5211453   0.24992117 
  486400   -677.26639    42.295792    -634.9706    1283.1941   -9836.2532     9.418049   0.24310179 
  486500    -671.7982    39.720694    -632.0775    1205.0693   -1536.8827    9.3936664   0.28305678 
  486600   -670.62009    41.795491    -628.8246    1268.0156   -7699.7457    9.3066144   0.33753554 
  486700   -673.74171     43.73507   -630.00664    1326.8597   -4170.5265    9.4035466   0.31650884 
  486800   -678.73337    41.842597   -636.89077    1269.4448    11632.334    9.6764261   0.20702005 
  486900   -676.78978    44.025614   -632.76417    1335.6744    3875.3185    9.5405818   0.28135402 
  487000   -675.72009    45.989214   -629.73088    1395.2472   -6866.9734    9.3756987   0.28159799 
  487100   -674.91406    40.077891   -634.83617    1215.9061    -7071.292    9.3930322   0.25858939 
  487200   -677.10539    41.469871   -635.63552    1258.1368      755.371    9.5058122    0.2227471 
  487300   -671.24398     43.35885   -627.88513    1315.4457    2652.6408    9.4391729   0.29921981 
  487400   -672.22145    45.146915   -627.07453    1369.6931   -3349.4736    9.3999018   0.28566889 
  487500   -676.65356    41.489421   -635.16414    1258.7299    1515.0754    9.5223236   0.24369768 
  487600   -676.19383    45.230094   -630.96373    1372.2166   -1631.6293    9.4827985   0.24103309 
  487700   -676.50764     45.99407   -630.51357    1395.3946   -3822.6049    9.4681099    0.2577033 
  487800   -678.35388    41.533156   -636.82073    1260.0568    10409.339    9.6523367   0.23978058 
  487900   -674.44622    44.402922    -630.0433    1347.1214   -409.59169    9.4602708   0.29668848 
  488000   -672.28581    45.471202   -626.81461    1379.5315     1746.358    9.4494349   0.27414808 
  488100   -676.17846    42.904701   -633.27376    1301.6675    -156.2043    9.4942784   0.27378481 
  488200   -676.65564     42.07345    -634.5822    1276.4485   -1118.6697    9.4945201   0.26957083 
  488300   -671.78869    44.496824   -627.29187    1349.9702   -4886.9594    9.3448138   0.32858157 
  488400   -671.58889    41.654731   -629.93416    1263.7452   -7791.3307    9.3289151   0.31893402 
  488500   -675.34404    40.522587   -634.82146    1229.3976   -10862.036    9.3538468   0.29939759 
  488600   -673.13509    43.824355   -629.31073    1329.5685    3242.0957    9.4556288   0.29082173 
  488700   -671.47999    48.108523   -623.37147     1459.544   -3284.7077    9.3587317    0.3200725 
  488800   -672.23853    42.622707   -629.61582    1293.1122    4779.0371    9.4768399   0.27501141 
  488900    -676.3188     42.54929   -633.76951    1290.8848    1050.5786    9.5169877   0.22540557 
  489000   -676.01729    41.536662   -634.48063    1260.1631   -2506.6893    9.4670367     0.234334 
  489100   -675.96937    42.500793   -633.46858    1289.4135     -7578.72    9.3979806   0.28435209 
  489200   -670.00849    43.997858   -626.01064    1334.8323    636.54482     9.394152   0.30624976 
  489300   -675.45637    45.196062   -630.26031    1371.1841   -5749.8713    9.4039345   0.24127004 
  489400   -673.68471    42.246676   -631.43803    1281.7039    -2300.774    9.4243009   0.24814653 
  489500   -675.74195     40.00382   -635.73813    1213.6589    3058.6387    9.5337802   0.23163729 
  489600   -680.97508     41.47218    -639.5029    1258.2068    1279.8486    9.5922193   0.21558146 
  489700   -675.33603     43.57869   -631.75734    1322.1154    2340.2604     9.493607   0.26693926 
  489800   -674.22002    44.881182   -629.33883    1361.6311    2032.2047    9.4796762     0.282374 
  489900   -675.90213    43.019032    -632.8831    1305.1361   -8608.9113    9.3873132   0.28195124 
  490000   -681.20727    40.889344   -640.31793    1240.5244    1689.6422    9.6061483    0.2215913 
  490100   -678.16576    45.495644   -632.67012     1380.273     15761.15    9.7090963   0.20235359 
  490200   -675.10554    43.424654   -631.68089    1317.4421    11491.296    9.6034275   0.23160461 
  490300   -673.52603    41.506586   -632.01944    1259.2507   -3424.3777    9.4261283   0.29668828 
  490400   -667.99195    42.430317   -625.56163    1287.2754   -5949.5142    9.2939764   0.35229871 
  490500     -673.111    46.656972   -626.45402     1415.506   -10842.334    9.3117328    0.3129517 
  490600   -672.20463    39.524329    -632.6803    1199.1118    6251.9669    9.5048402   0.28808226 
  490700   -675.96735    44.079565   -631.88779    1337.3112   -5277.9627    9.4282423   0.26850575 
  490800   -670.10709      45.4166   -624.69049    1377.8749    -1289.504    9.3646141   0.29863234 
  490900   -669.57685    44.377973   -625.19887    1346.3645   -5392.9367    9.3040104   0.34360051 
  491000   -676.68695    46.214471   -630.47248    1402.0812    1132.5979    9.4925073   0.23223498 
  491100   -676.56953    41.056764   -635.51277    1245.6037    3058.4464    9.5397057   0.25214766 
  491200   -675.10002    45.570572   -629.52945    1382.5462    2701.0007    9.4895259   0.28295162 
  491300   -674.77148    46.639997   -628.13148     1414.991   -2414.0299    9.4329365   0.25827492 
  491400   -676.20892     42.01684   -634.19208    1274.7311      -4502.6    9.4444544   0.26991637 
  491500   -674.62066    44.454689   -630.16597    1348.6919    -1136.659    9.4433826   0.29522815 
  491600    -670.1886    43.878315   -626.31028    1331.2056    3400.8082    9.4202978   0.29537086 
  491700   -676.01028    41.372868   -634.63741    1255.1939    14212.479    9.6544683   0.22795064 
  491800    -677.3642    45.461044   -631.90316    1379.2233   -8586.5405    9.4266177   0.25342801 
  491900   -672.07841    43.187424   -628.89099    1310.2449   -486.95805    9.4129313   0.29104357 
  492000    -674.4261    43.297817   -631.12828    1313.5941   -2145.1994    9.4338993   0.26481809 
  492100   -675.02693    39.395968   -635.63097    1195.2175   -8772.0225    9.3778681   0.28981697 
  492200   -672.03346    41.270194   -630.76326    1252.0789    3724.6001    9.4683965   0.30669042 
  492300   -674.70829    45.068065   -629.64022    1367.3009   -5899.4154    9.4026258   0.25400113 
  492400   -681.30982    44.105457   -637.20437    1338.0967   -1086.3209    9.5713967   0.22132389 
  492500   -677.49895    44.952248    -632.5467    1363.7871    9722.5947    9.6156811   0.23260862 
  492600   -676.47294    47.260434   -629.21251    1433.8142   -1522.2454    9.4780053   0.26815483 
  492700   -676.03087    40.347962   -635.68291    1224.0997   -4000.3322     9.449756    0.2478673 
  492800   -675.65627    41.131509   -634.52476    1247.8714    35.243226    9.4897222   0.24336348 
  492900   -673.90469    45.678015   -628.22668    1385.8059    2558.3041     9.482792   0.24282058 
  493000   -676.40699    43.432153   -632.97484    1317.6696     1557.135    9.5203682   0.25370581 
  493100   -679.67661    41.647379   -638.02923    1263.5221   -4114.9272    9.5194235   0.23090585 
  493200   -672.88969    41.820204   -631.06948    1268.7654   -3856.4317    9.3945013   0.26779392 
  493300   -672.02528    42.236156   -629.78913    1281.3848    442.15116    9.4244829   0.30596595 
  493400    -671.7555    40.866956   -630.88854    1239.8452    1028.3506    9.4314485   0.28915843 
  493500   -676.72135    38.013562   -638.70779    1153.2773   -12930.475    9.3682012   0.27297406 
  493600    -671.6597    38.249282   -633.41042    1160.4287    -1309.228    9.4077981   0.32106844 
  493700   -671.68818    41.006676   -630.68151    1244.0841    4701.0968     9.472165   0.28061496 
  493800   -674.60853    40.794733    -633.8138    1237.6541    1713.2246    9.4924464   0.24436742 
  493900   -679.74205    39.535331   -640.20672    1199.4456    5479.1775    9.6256973   0.22087461 
  494000   -676.98067     41.51089   -635.46978    1259.3812    453.43803    9.5016446   0.23127586 
  494100   -672.85055    42.473992   -630.37655    1288.6004   -8044.8989    9.3406057   0.28704348 
  494200   -674.41569    43.899268   -630.51643    1331.8412   -2729.6724    9.4169096   0.30767584 
  494300   -677.03013    40.480574   -636.54956    1228.1229   -4665.8447    9.4648575   0.28170652 
  494400   -679.23627    41.318496   -637.91778    1253.5443   -10774.906    9.4392292   0.22254007 
  494500    -674.2378    43.785726   -630.45207    1328.3965    8459.8892    9.5319596    0.2358631 
  494600   -672.69071     41.75417   -630.93654     1266.762    2748.7364    9.4737151   0.31527489 
  494700   -666.04565    38.656466   -627.38919    1172.7821   -222.40044    9.3238335   0.36236561 
  494800   -664.43318    43.661838   -620.77134     1324.638   -6178.9892    9.2046206   0.39084163 
  494900    -665.8384    43.262255   -622.57614    1312.5152    1086.9859    9.3053926   0.40861558 
  495000   -674.46214    46.202063   -628.26008    1401.7048   -309.63016    9.4519532   0.25896037 
  495100   -675.58695    44.624243   -630.96271    1353.8359    1321.6179     9.487453   0.29499149 
  495200   -671.05303    42.438759   -628.61427    1287.5315    4028.2069    9.4647094   0.26015751 
  495300   -677.71697    41.065772   -636.65119     1245.877   -3181.7365    9.4885174     0.224641 
  495400   -677.54693    42.583141   -634.96379    1291.9118    2605.8073    9.5634244   0.24340715 
  495500   -671.83139    43.514196    -628.3172    1320.1587    8655.5517    9.5092076   0.30947188 
  495600   -674.83866    45.212377   -629.62628    1371.6791   -3071.8798     9.441201   0.26006497 
  495700   -678.57599    44.321637   -634.25436    1344.6553   -10796.115    9.4215845   0.23600222 
  495800   -675.62484    44.027799   -631.59704    1335.7407   -5270.6131    9.4175326   0.26016693 
  495900   -675.10427    45.909647   -629.19462    1392.8333    3823.1049    9.4994098   0.27122904 
  496000   -675.53162    41.109647   -634.42197    1247.2081   -1.5373505    9.4907871   0.27347961 
  496100    -674.1241    41.962771   -632.16133    1273.0907   -1164.9989    9.4470919   0.28225147 
  496200   -669.73581    44.274041   -625.46177    1343.2113    576.49201    9.3939823   0.30686504 
  496300   -674.12426     43.71195   -630.41231    1326.1583    3255.1421    9.4863764   0.27520269 
  496400   -678.26996    42.682824   -635.58714    1294.9361   -6167.1364    9.4774835   0.23750523 
  496500   -676.18598    44.002985     -632.183    1334.9879   -5774.9141    9.4276056   0.27256518 
  496600   -669.37782    41.062208   -628.31561    1245.7689    9751.7413    9.4696709   0.31102952 
  496700   -670.70101    40.282778   -630.41823    1222.1221    7173.8752    9.4804679   0.30581737 
  496800   -677.06575    40.890031   -636.17572    1240.5453   -9341.1402    9.4110676   0.25103509 
  496900   -672.11026    41.834687   -630.27557    1269.2048   -3365.7226    9.3872961   0.28896358 
  497000    -668.3974    39.189622   -629.20778    1188.9573   -1254.3771    9.3475107   0.32742145 
  497100   -672.00069    40.205156   -631.79553    1219.7672   -9449.1953    9.3264603   0.34222343 
  497200   -671.75079    40.309221   -631.44157    1222.9243    960.22971    9.4487415    0.2896908 
  497300   -680.01525    40.668233   -639.34701    1233.8162     3404.739    9.6218563   0.23226292 
  497400   -677.64899     43.64649    -634.0025    1324.1723   -861.50624    9.5168524   0.27625002 
  497500   -674.87566    44.360706   -630.51496    1345.8406   -3702.9387    9.4263922   0.28018218 
  497600   -673.21899    38.775982   -634.44301     1176.408     -3025.97    9.4065338   0.28331581 
  497700   -672.05303    40.043334   -632.00969    1214.8577    6739.3731    9.4804124   0.27810652 
  497800   -667.91262    41.034539   -626.87808    1244.9295    3784.7637    9.4124089   0.28052905 
  497900   -676.81842    45.140634   -631.67779    1369.5025   -5318.9609    9.4536955   0.27408318 
  498000   -677.68651     42.51097   -635.17554    1289.7222    2683.8754     9.552589   0.22648753 
  498100   -671.93568    43.814805   -628.12088    1329.2787    6111.4675    9.4687192   0.27140135 
  498200   -666.92415    41.252755   -625.67139    1251.5498   -2981.4985    9.2885206   0.34405889 
  498300   -675.99987    41.101247   -634.89862    1246.9533   -2056.5611    9.4571036   0.27034959 
  498400   -675.49329    41.589885   -633.90341    1261.7779   -4328.0642    9.4286665   0.28412901 
  498500   -671.30535    41.869378   -629.43597    1270.2573   -5895.2373    9.3392229   0.29671494 
  498600   -670.26654    44.789775   -625.47677    1358.8579     1000.877    9.3953759   0.29260729 
  498700   -670.74291    44.747565   -625.99534    1357.5774    9733.6826    9.4976355    0.2779689 
  498800   -673.44782    40.278937   -633.16888    1222.0056     8077.701    9.5511292   0.24849621 
  498900   -673.73249     41.43995   -632.29254     1257.229   -1152.1658    9.4281964   0.27999293 
  499000    -674.0049    43.774282   -630.23062    1328.0493   -10205.037    9.3332126   0.26036464 
  499100   -679.92705     42.97975    -636.9473    1303.9444   -6872.8829    9.4885669   0.24081046 
  499200   -679.35999    42.568408   -636.79158    1291.4649   -938.81417    9.5261486   0.22515193 
  499300   -674.76705    42.807877   -631.95917      1298.73    97.161066    9.4727339   0.29570087 
  499400   -673.61576    45.966797   -627.64896    1394.5671    9007.1273    9.5336827   0.28063092 
  499500   -675.36163    44.207132    -631.1545    1341.1814   -2047.9159    9.4477109   0.29650944 
  499600   -679.74827    41.171498   -638.57677    1249.0846   -14112.057    9.4054499   0.25217849 
  499700   -674.43421    41.340237   -633.09398    1254.2039   -1927.7069    9.4168588   0.27742297 
  499800   -673.20592    43.652533   -629.55339    1324.3557    1465.9283    9.4581234   0.25118592 
  499900   -676.12983     41.92963    -634.2002    1272.0852    8905.9005    9.6020661   0.24243425 
  500000   -679.40942    45.597082   -633.81234    1383.3505    658.05441    9.5613484   0.21427275 
Loop time of 347.335 on 1 procs for 500000 steps with 256 atoms

Performance: 621.879 ns/day, 0.039 hours/ns, 1439.534 timesteps/s
100.0% CPU use with 1 MPI tasks x no OpenMP threads

MPI task timing breakdown:
Section |  min time  |  avg time  |  max time  |%varavg| %total
---------------------------------------------------------------
Pair    | 207.88     | 207.88     | 207.88     |   0.0 | 59.85
Neigh   | 14.219     | 14.219     | 14.219     |   0.0 |  4.09
Comm    | 3.8587     | 3.8587     | 3.8587     |   0.0 |  1.11
Output  | 0.15132    | 0.15132    | 0.15132    |   0.0 |  0.04
Modify  | 120.44     | 120.44     | 120.44     |   0.0 | 34.68
Other   |            | 0.7877     |            |       |  0.23

Nlocal:    256 ave 256 max 256 min
Histogram: 1 0 0 0 0 0 0 0 0 0
Nghost:    1431 ave 1431 max 1431 min
Histogram: 1 0 0 0 0 0 0 0 0 0
Neighs:    11619 ave 11619 max 11619 min
Histogram: 1 0 0 0 0 0 0 0 0 0

Total # of neighbors = 11619
Ave neighs/atom = 45.3867
Neighbor list builds = 25993
Dangerous builds = 0
    
Total wall time: 0:05:47
