LAMMPS (3 Mar 2020)
Reading data file ...
  orthogonal box = (0 0 0) to (17.469 17.469 17.469)
  1 by 1 by 1 MPI processor grid
  reading atoms ...
  217 atoms
  read_data CPU = 0.000976479 secs
Reading potential file library.meam with DATE: 2012-06-29
Reading potential file LiSi.meam with DATE: 2020-11-07
1 atoms in group Li
Neighbor list info ...
  update every 1 steps, delay 10 steps, check yes
  max neighbors/atom: 2000, page size: 100000
  master list distance cutoff = 6
  ghost atom cutoff = 6
  binsize = 3, bins = 6 6 6
  2 neighbor lists, perpetual/occasional/extra = 2 0 0
  (1) pair meam/c, perpetual
      attributes: full, newton on
      pair build: full/bin/atomonly
      stencil: full/bin/3d
      bin: standard
  (2) pair meam/c, perpetual, half/full from (1)
      attributes: half, newton on
      pair build: halffull/newton
      stencil: none
      bin: none
Setting up Verlet run ...
  Unit style    : metal
  Current step  : 0
  Time step     : 0.000564419
Per MPI rank memory allocation (min/avg/max) = 9.27 | 9.27 | 9.27 Mbytes
Step PotEng KinEng TotEng Temp Press Density c_msdli[4] 
       0   -951.06911    50.256344   -900.81276         1800    -114182.3    1.8918427            0 
     100   -915.04293    27.943639   -887.09929    1000.8398   -82754.003    1.8918427   0.18393104 
     200   -906.16994     44.71784    -861.4521    1601.6309   -63616.685    1.8918427   0.18010971 
     300    -895.2846    52.214939   -843.06966    1870.1498   -54508.489    1.8918427   0.23102803 
     400   -905.47703    50.123473   -855.35356     1795.241   -65696.406    1.8918427   0.35840736 
     500    -908.7835    50.760077   -858.02343    1818.0419   -68777.106    1.8918427   0.18487605 
     600   -904.08978    52.023984    -852.0658    1863.3104   -62859.174    1.8918427   0.22562402 
     700     -898.231    49.666511   -848.56449    1778.8743   -58153.681    1.8918427   0.37574833 
     800   -907.65147    50.577064    -857.0744     1811.487   -68007.009    1.8918427  0.089427072 
     900   -904.74609    51.657668   -853.08842    1850.1903   -64010.382    1.8918427  0.065974193 
    1000   -903.22679    49.728927   -853.49787    1781.1098   -63965.322    1.8918427   0.10869841 
    1100   -905.25634    44.985504   -860.27084    1611.2176   -65385.603    1.8918427   0.10035189 
    1200   -897.58085    48.938998   -848.64186    1752.8174   -57222.751    1.8918427  0.018443751 
    1300   -902.59079    50.141293   -852.44949    1795.8793   -62126.591    1.8918427   0.17885634 
    1400   -903.82395      47.5864   -856.23755    1704.3723   -64681.604    1.8918427  0.037934946 
    1500   -900.65541    52.636447   -848.01896    1885.2467   -62592.774    1.8918427  0.013015008 
    1600   -908.39284    53.162049   -855.23079    1904.0718   -70482.014    1.8918427   0.10380349 
    1700   -906.34072    53.992091   -852.34862    1933.8009   -65053.733    1.8918427  0.023585773 
    1800   -903.53289    46.385656   -857.14724     1661.366   -64507.077    1.8918427    0.1259342 
    1900   -902.27556    44.987243   -857.28832    1611.2799   -64627.025    1.8918427  0.053637425 
    2000   -901.51623    49.380349   -852.13588     1768.625   -61791.573    1.8918427   0.06805715 
    2100   -903.48739    45.673102   -857.81429    1635.8449   -64008.214    1.8918427   0.04318349 
    2200   -904.66298    46.698857   -857.96413    1672.5837   -66221.381    1.8918427   0.37886373 
    2300   -901.03019    51.912158   -849.11803    1859.3053    -60491.92    1.8918427   0.21240476 
    2400   -903.32855    46.810313   -856.51824    1676.5756   -65283.726    1.8918427   0.19823234 
    2500   -903.39007    43.331953   -860.05811    1551.9934   -64096.816    1.8918427  0.020187967 
    2600   -903.24827    53.902488   -849.34578    1930.5916   -61526.062    1.8918427   0.10726047 
    2700    -901.0331    51.294171   -849.73893    1837.1712   -64485.802    1.8918427  0.093337948 
    2800   -906.44988      48.1794   -858.27048    1725.6114   -67546.234    1.8918427   0.10132369 
    2900   -902.19988    49.186066   -853.01381    1761.6665   -63704.761    1.8918427  0.084254984 
    3000   -902.64963    54.160103   -848.48953    1939.8185   -63022.831    1.8918427  0.055138202 
    3100   -905.68884    49.952596   -855.73624    1789.1208   -68179.722    1.8918427  0.084783625 
    3200   -906.21931     53.81781    -852.4015    1927.5588   -67800.468    1.8918427   0.11766378 
    3300   -906.22761    52.173731   -854.05388    1868.6738   -65094.546    1.8918427  0.069907091 
    3400   -903.47741    46.059285   -857.41812    1649.6766    -65881.99    1.8918427    0.2543896 
    3500   -900.88905    51.392148   -849.49691    1840.6804   -59963.071    1.8918427   0.14795141 
    3600   -906.36584    49.338755   -857.02708    1767.1353   -68601.618    1.8918427  0.086898342 
    3700   -902.12688     46.19895   -855.92793    1654.6788   -62100.307    1.8918427  0.021004722 
    3800   -900.20813    50.368987   -849.83914    1804.0345   -62454.201    1.8918427  0.044328628 
    3900   -899.42495    49.536012   -849.88893    1774.2003   -60084.887    1.8918427  0.040304521 
    4000   -905.16179    48.367949   -856.79384    1732.3645    -65891.19    1.8918427   0.18071156 
    4100    -900.1688    48.781472   -851.38732    1747.1754    -63002.17    1.8918427  0.074369963 
    4200   -902.36075    52.706741   -849.65401    1887.7643   -62967.288    1.8918427    0.0895007 
    4300   -906.45137    50.935499   -855.51587    1824.3249   -65625.036    1.8918427  0.059520575 
    4400   -903.62358    49.774511   -853.84907    1782.7425   -65585.325    1.8918427  0.054331402 
    4500   -895.13711    47.348832   -847.78828    1695.8635   -55616.549    1.8918427   0.14627895 
    4600   -903.36475    47.658874   -855.70587     1706.968   -60804.887    1.8918427   0.13015769 
    4700   -906.16464    51.613642     -854.551    1848.6135   -67148.275    1.8918427  0.092445688 
    4800   -900.06004    55.074249   -844.98579    1972.5599   -59033.906    1.8918427  0.040981872 
    4900   -898.39647    50.329145   -848.06733    1802.6075   -60349.817    1.8918427   0.42545996 
    5000   -906.97941    48.764043   -858.21537    1746.5512    -68292.32    1.8918427  0.033769833 
    5100   -904.84167    52.930333   -851.91134    1895.7726   -67661.872    1.8918427   0.19166366 
    5200   -902.82343    50.251255   -852.57218    1799.8177   -65542.156    1.8918427  0.017853911 
    5300   -903.53716    54.017315   -849.51985    1934.7043   -64614.654    1.8918427   0.16834162 
    5400   -904.80912     53.58529   -851.22383    1919.2308   -68391.841    1.8918427   0.10004574 
    5500   -907.13337    53.621671    -853.5117    1920.5338   -66558.946    1.8918427  0.063806562 
    5600   -905.34989    50.307572   -855.04232    1801.8348   -67471.389    1.8918427   0.13185946 
    5700   -901.99974    45.492707   -856.50703    1629.3838   -66218.028    1.8918427    0.1182592 
    5800   -900.16668    50.951174   -849.21551    1824.8863   -62565.833    1.8918427    0.1029733 
    5900   -904.86707    50.872793   -853.99427    1822.0789   -67400.468    1.8918427  0.048995588 
    6000   -903.22653    46.260094   -856.96643    1656.8688   -66977.432    1.8918427    0.1090419 
    6100   -904.35943     52.68095   -851.67848    1886.8406   -67564.138    1.8918427   0.29265814 
    6200   -898.99687    49.824468    -849.1724    1784.5317   -63178.429    1.8918427   0.32117365 
    6300   -900.49848    52.794338   -847.70414    1890.9017   -63107.872    1.8918427   0.11236245 
    6400   -902.37204    47.506697   -854.86535    1701.5176   -64186.669    1.8918427   0.12882797 
    6500   -902.98967    46.044317   -856.94535    1649.1404   -63832.401    1.8918427   0.21374933 
    6600   -902.88103    54.061038   -848.81999    1936.2703   -62520.893    1.8918427  0.020847846 
    6700   -903.55281     48.04716   -855.50566     1720.875   -65979.362    1.8918427  0.015970564 
    6800    -905.8719    56.149578   -849.72232    2011.0743   -66342.073    1.8918427   0.10397134 
    6900   -900.99354    51.572648    -849.4209    1847.1452   -62628.873    1.8918427  0.046257769 
    7000   -904.13771    49.530653   -854.60706    1774.0084   -66172.853    1.8918427  0.073400052 
    7100   -903.26487    50.691807   -852.57307    1815.5967   -65585.324    1.8918427   0.21097872 
    7200     -903.711    55.727596   -847.98341    1995.9604   -64206.315    1.8918427  0.085066306 
    7300   -903.44748    46.735188   -856.71229     1673.885   -68494.387    1.8918427  0.046673707 
    7400   -901.63918    49.253537   -852.38565    1764.0831   -62905.502    1.8918427   0.74924864 
    7500   -899.58371    53.301628   -846.28208     1909.071   -62261.523    1.8918427   0.43168276 
    7600   -904.96669    50.214523   -854.75217    1798.5021   -66672.271    1.8918427   0.49991961 
    7700   -905.56551    49.713621   -855.85189    1780.5616   -69251.056    1.8918427   0.68412191 
    7800   -904.18706    53.887039   -850.30002    1930.0383   -65404.537    1.8918427   0.46224346 
    7900   -901.01395    49.100645    -851.9133     1758.607   -65202.065    1.8918427   0.60661547 
    8000   -899.08882    52.718204   -846.37061    1888.1749   -62750.831    1.8918427   0.93930098 
    8100   -908.18293    52.033002   -856.14993    1863.6334   -70423.125    1.8918427     6.225101 
    8200   -905.28633     51.50067   -853.78566    1844.5672   -68335.389    1.8918427    4.9114483 
    8300   -899.37024    47.970355   -851.39989    1718.1241   -66560.373    1.8918427    5.8884163 
    8400    -905.8288    53.720282   -852.10851    1924.0657    -66899.49    1.8918427    5.4256909 
    8500   -906.06333    46.880054   -859.18328    1679.0735   -68833.724    1.8918427     6.669183 
    8600   -900.52417    47.612237   -852.91193    1705.2977   -64270.612    1.8918427    4.5384766 
    8700   -904.94658    52.874052   -852.07253    1893.7568   -65811.197    1.8918427    7.2333764 
    8800   -908.98204    47.291851   -861.69019    1693.8226   -72716.755    1.8918427    5.1421022 
    8900   -903.86368    52.712253   -851.15143    1887.9617   -66893.378    1.8918427    6.3344845 
    9000   -902.60176    52.731595   -849.87016    1888.6545   -63880.257    1.8918427    3.7235462 
    9100   -900.44035      42.8948   -857.54555    1536.3362   -65027.173    1.8918427    7.0052076 
    9200   -904.03615    51.093823   -852.94233    1829.9954   -64901.872    1.8918427    8.1775942 
    9300   -901.92422    48.944733   -852.97949    1753.0228   -65423.388    1.8918427    6.6498068 
    9400   -895.12307    51.342836   -843.78024    1838.9142   -59955.569    1.8918427    4.0471445 
    9500   -904.22294    49.201854   -855.02109     1762.232   -66319.599    1.8918427    6.6456144 
    9600   -903.07225    48.124328   -854.94792    1723.6389   -67381.079    1.8918427    5.9892744 
    9700   -900.26545    52.537448     -847.728    1881.7008   -64221.645    1.8918427    9.0287274 
    9800   -902.92826    46.868593   -856.05967     1678.663   -69258.636    1.8918427    5.7353101 
    9900    -906.2408    55.411229   -850.82957    1984.6293   -68210.178    1.8918427     7.002534 
   10000   -904.06474    47.701156   -856.36359    1708.4824   -70928.762    1.8918427    3.8246901 
   10100   -902.26643    50.031279   -852.23515     1791.939   -65092.421    1.8918427    6.3190245 
   10200   -896.62543    50.903632    -845.7218    1823.1835   -58678.491    1.8918427    5.3270763 
   10300   -900.17356    53.021622   -847.15194    1899.0422   -64287.819    1.8918427    4.2663363 
   10400    -903.9601    51.015004   -852.94509    1827.1724   -69286.368    1.8918427     4.245605 
   10500   -906.36652    47.757206   -858.60931    1710.4899   -71325.514    1.8918427    8.4455335 
   10600   -903.77365    55.161073   -848.61258    1975.6696   -65720.555    1.8918427    7.4532809 
   10700   -902.88301    47.337701   -855.54531    1695.4648   -67973.126    1.8918427    5.7901665 
   10800   -902.68699    55.047506   -847.63948     1971.602   -65243.984    1.8918427    6.3247956 
   10900   -903.88077    51.652503   -852.22827    1850.0054   -69130.121    1.8918427    4.7360871 
   11000   -906.02024    46.145943   -859.87429    1652.7803   -70538.824    1.8918427    6.2328728 
   11100   -901.18985    51.319709   -849.87014    1838.0859       -65619    1.8918427    7.2507404 
   11200   -900.25584    45.650993   -854.60484     1635.053   -65697.497    1.8918427    6.2114075 
   11300   -905.03835    50.506199   -854.53215    1808.9489   -68780.077    1.8918427    6.4709837 
   11400   -900.38564    53.195223   -847.19041      1905.26   -67680.524    1.8918427    4.6674341 
   11500   -903.07624    48.102748   -854.97349     1722.866   -66895.288    1.8918427    6.2757573 
   11600   -903.75653    47.740718   -856.01581    1709.8994    -69294.04    1.8918427    13.397958 
   11700   -902.39496    49.601997   -852.79297    1776.5637   -68252.789    1.8918427    3.0491565 
   11800   -900.30426    53.346699   -846.95756    1910.6853   -64895.683    1.8918427    5.6504501 
   11900   -896.40014    52.602134     -843.798    1884.0177   -61294.068    1.8918427    7.9640953 
   12000   -904.52537    53.029128   -851.49624     1899.311   -67764.752    1.8918427    5.4704227 
   12100    -901.9929    45.275931   -856.71697    1621.6197   -67018.117    1.8918427    5.3642293 
   12200   -902.55269     51.49572   -851.05697    1844.3899    -65629.65    1.8918427    4.5918696 
   12300   -904.49516    50.423438   -854.07172    1805.9847   -70319.407    1.8918427    1.6914177 
   12400   -903.33203    54.481372   -848.85066    1951.3252   -64983.755    1.8918427   0.84615997 
   12500   -900.02548    46.546666   -853.47881    1667.1328   -67012.439    1.8918427      6.92661 
   12600   -905.80119    51.163851   -854.63734    1832.5036   -70049.596    1.8918427    5.8626604 
   12700   -899.00604    51.973205   -847.03283    1861.4917   -64286.738    1.8918427     3.719306 
   12800    -899.0031    48.394868   -850.60824    1733.3287   -65767.034    1.8918427    4.7713616 
   12900   -902.17377    56.967582   -845.20619    2040.3722   -65092.826    1.8918427    4.5348094 
   13000   -902.55053    47.782129    -854.7684    1711.3826   -68642.596    1.8918427    2.7230227 
   13100   -901.89945    47.715872   -854.18358    1709.0095   -67278.725    1.8918427    7.6625372 
   13200   -901.04153     54.52026   -846.52127     1952.718   -66083.766    1.8918427    4.3581138 
   13300   -899.02881    50.062186   -848.96663     1793.046   -64474.565    1.8918427    3.9197623 
   13400    -906.3699    51.217104    -855.1528    1834.4109    -70736.01    1.8918427    4.7791589 
   13500   -903.01462    49.533901   -853.48072    1774.1247   -68683.302    1.8918427    3.0200301 
   13600   -904.78193    55.592254   -849.18968    1991.1129   -70431.735    1.8918427    1.1845528 
   13700   -903.61494    49.698006   -853.91694    1780.0023   -68408.502    1.8918427    1.8790228 
   13800   -901.61647    55.060265    -846.5562     1972.059   -68313.176    1.8918427    1.8421545 
   13900   -900.64897    53.931714   -846.71726    1931.6384   -64034.807    1.8918427    2.6383907 
   14000   -903.40833    50.490714   -852.91762    1808.3943    -69075.24    1.8918427    4.4946539 
   14100   -902.80737     51.42208   -851.38529    1841.7524   -67311.359    1.8918427    9.5272009 
   14200   -900.10677    48.542134   -851.56464    1738.6032   -64428.569    1.8918427    6.6807437 
   14300   -904.55389    53.978564   -850.57533    1933.3164   -65372.563    1.8918427    4.3368956 
   14400   -898.70976    52.060491   -846.64926     1864.618    -64424.26    1.8918427    8.7309484 
   14500   -902.78922    47.947463   -854.84175    1717.3043    -66179.87    1.8918427    5.0488591 
   14600   -902.65164    49.243544    -853.4081    1763.7251   -67674.123    1.8918427    2.9541556 
   14700   -900.81159    51.563084   -849.24851    1846.8027   -65637.813    1.8918427   0.81065582 
   14800   -902.83731    51.694191   -851.14312    1851.4984   -66618.508    1.8918427    0.4757917 
   14900   -901.56618    48.790294   -852.77588    1747.4914   -65284.738    1.8918427   0.60166653 
   15000    -896.0187    50.134607   -845.88409    1795.6398   -62334.113    1.8918427   0.80057615 
   15100   -904.32087    54.695834   -849.62504    1959.0064   -68194.346    1.8918427    1.3285827 
   15200   -904.48067    50.559042   -853.92162    1810.8415   -68347.764    1.8918427     2.255112 
   15300   -896.97004    51.796475   -845.17357    1855.1619   -61453.328    1.8918427     1.014891 
   15400   -904.14187     49.58447    -854.5574    1775.9359    -68380.12    1.8918427     1.403711 
   15500   -904.68424    51.101548   -853.58269    1830.2721   -67581.195    1.8918427    1.6655943 
   15600   -902.51486    54.094816   -848.42005    1937.4802   -66150.665    1.8918427   0.18722295 
   15700   -898.72845     45.73864   -852.98981    1638.1922   -66552.355    1.8918427   0.10928665 
   15800   -902.99134    48.711459   -854.27988    1744.6678   -66017.313    1.8918427   0.25771327 
   15900   -902.96314    50.779997   -852.18314    1818.7553   -65624.253    1.8918427    0.4298029 
   16000   -906.00804    47.778616   -858.22942    1711.2568   -70568.069    1.8918427    1.5740608 
   16100   -899.08375    49.391339   -849.69241    1769.0186    -65693.74    1.8918427    2.6063986 
   16200   -902.98174    50.718564   -852.26317     1816.555   -66858.492    1.8918427    5.4387786 
   16300    -905.1102     51.13743   -853.97277    1831.5573   -68782.385    1.8918427    7.2631551 
   16400   -900.69435    48.910605   -851.78375    1751.8005   -66313.719    1.8918427    5.1317165 
   16500   -900.86629    55.194394    -845.6719     1976.863   -63801.178    1.8918427    6.8755829 
   16600   -902.29455    47.566359   -854.72819    1703.6545   -67115.228    1.8918427    5.0881106 
   16700   -899.75309    47.404088     -852.349    1697.8425   -63173.271    1.8918427    6.3028575 
   16800   -898.71809    51.467471   -847.25062    1843.3781   -63484.309    1.8918427    10.364404 
   16900   -903.12114    48.670388   -854.45076    1743.1968   -66002.187    1.8918427    13.037597 
   17000   -904.26156    51.436048   -852.82551    1842.2527   -68395.034    1.8918427    13.288212 
   17100   -897.50499    54.483858   -843.02114    1951.4142   -61483.457    1.8918427    7.9593976 
   17200   -898.33894    47.607136    -850.7318     1705.115   -61558.556    1.8918427    10.436098 
   17300   -904.48455    48.667969   -855.81658    1743.1102   -68026.871    1.8918427    10.860104 
   17400    -904.3692    53.728558   -850.64064    1924.3621   -65352.984    1.8918427    11.379009 
   17500   -901.96246    50.299699   -851.66276    1801.5528   -65971.341    1.8918427    17.119309 
   17600   -902.16749    53.316572   -848.85092    1909.6062   -66568.732    1.8918427    16.809724 
   17700   -899.85128    46.872526   -852.97876    1678.8039   -67329.419    1.8918427    16.993399 
   17800   -903.80685    53.034628   -850.77222     1899.508   -69709.965    1.8918427    19.753888 
   17900   -896.26837    54.357464    -841.9109    1946.8872   -60702.627    1.8918427    23.025831 
   18000   -900.89466    50.077697   -850.81696    1793.6015   -65628.017    1.8918427    23.760913 
   18100   -903.11276    49.992227   -853.12053    1790.5403   -66423.938    1.8918427    22.099105 
   18200   -899.42533    47.890292   -851.53504    1715.2566   -64829.398    1.8918427    20.452516 
   18300    -898.6322    50.465123   -848.16708    1807.4777    -63080.63    1.8918427    19.104658 
   18400   -902.41356    45.435487   -856.97807    1627.3344   -68328.484    1.8918427    22.928823 
   18500   -905.62587    49.220292   -856.40558    1762.8924   -68203.166    1.8918427    23.844603 
   18600   -899.14013    52.066024    -847.0741    1864.8162   -63028.753    1.8918427    18.725413 
   18700   -902.63826    51.083806   -851.55446    1829.6367   -71035.075    1.8918427    13.485625 
   18800   -905.59807    44.561358   -861.03671    1596.0262   -69677.797    1.8918427    12.919376 
   18900   -901.72415    49.268738   -852.45541    1764.6275   -66356.379    1.8918427    11.558555 
   19000    -899.8985    49.702833   -850.19567    1780.1752    -64784.96    1.8918427    12.787101 
   19100   -900.77196    48.823184   -851.94877    1748.6694    -64370.62    1.8918427    12.717552 
   19200   -908.75285    48.164429   -860.58842    1725.0752   -74684.339    1.8918427    14.599132 
   19300   -906.11069    53.174332   -852.93636    1904.5117   -69740.736    1.8918427    14.497199 
   19400   -900.68133    52.178958   -848.50237     1868.861   -67269.546    1.8918427    18.294295 
   19500   -900.82684    50.795279   -850.03156    1819.3027   -69218.149    1.8918427    14.861723 
   19600   -908.12985    50.236558   -857.89329    1799.2913   -72583.069    1.8918427    13.949915 
   19700   -898.93975    50.026352    -848.9134    1791.7625   -63017.175    1.8918427    15.359496 
   19800   -901.89926    56.528788   -845.37047    2024.6562   -64985.842    1.8918427    15.566536 
   19900   -905.24377    50.391921   -854.85185    1804.8559   -71048.611    1.8918427    14.025247 
   20000   -902.78588    53.073652   -849.71223    1900.9058   -66872.384    1.8918427    14.867699 
   20100   -900.44781    46.756232   -853.69158    1674.6387   -64995.759    1.8918427    13.188732 
   20200   -904.39039    50.257592   -854.13279    1800.0447   -68103.315    1.8918427    13.621263 
   20300   -902.09045    50.814222   -851.27622    1819.9811   -69241.324    1.8918427    13.454559 
   20400   -900.38218    53.852031   -846.53015    1928.7844   -65379.122    1.8918427    12.393776 
   20500   -903.44872    48.587672   -854.86105    1740.2342   -67782.343    1.8918427    10.767847 
   20600   -899.04457     49.39749   -849.64708     1769.239   -61383.533    1.8918427    10.593891 
   20700   -901.04838    45.522077   -855.52631    1630.4357   -65113.752    1.8918427    12.152445 
   20800   -905.12334    45.123254   -860.00009    1616.1513   -69022.556    1.8918427    14.435759 
   20900   -901.56261    50.297157   -851.26545    1801.4618   -66458.924    1.8918427    13.665162 
   21000   -895.65214    46.429745    -849.2224    1662.9451   -63192.135    1.8918427    13.384307 
   21100   -901.07504    56.157771   -844.91727    2011.3677   -66873.956    1.8918427    18.326911 
   21200   -901.48945    49.054315   -852.43513    1756.9477   -66828.151    1.8918427    18.873037 
   21300   -898.34968    53.433583   -844.91609    1913.7972   -63840.222    1.8918427    17.240159 
   21400   -901.90231    55.565961   -846.33635    1990.1712   -66430.075    1.8918427     15.16268 
   21500   -899.06975    47.830643    -851.2391    1713.1202   -64852.107    1.8918427    15.934898 
   21600   -904.99777    47.214031   -857.78374    1691.0354   -69787.028    1.8918427    18.109418 
   21700   -900.88173    51.157598   -849.72413    1832.2796   -66724.136    1.8918427    22.220472 
   21800    -899.1733    53.543356   -845.62995    1917.7288   -61496.771    1.8918427    22.936258 
   21900   -903.14087    47.606062    -855.5348    1705.0765   -67915.264    1.8918427    23.725297 
   22000   -901.74728    51.232818   -850.51447    1834.9738   -66583.356    1.8918427    22.132741 
   22100   -900.65893    46.244187   -854.41474    1656.2991   -65233.362    1.8918427     20.52073 
   22200   -906.15131     51.48214   -854.66917    1843.9035   -71454.633    1.8918427    22.892372 
   22300   -899.59362    54.050119    -845.5435    1935.8792   -66453.166    1.8918427    27.744753 
   22400   -896.12852    53.955444   -842.17308    1932.4883   -61790.094    1.8918427    23.333824 
   22500   -901.98745    49.760026   -852.22743    1782.2237   -67604.514    1.8918427    21.649795 
   22600   -904.40049    44.998159   -859.40233    1611.6709    -68699.45    1.8918427    21.353018 
   22700   -903.88506    48.692568   -855.19249    1743.9912   -69825.697    1.8918427    24.409031 
   22800   -901.39951    52.627563   -848.77195    1884.9284   -68098.391    1.8918427    24.231412 
   22900   -902.56153    49.045415   -853.51611    1756.6289     -68803.6    1.8918427    20.873244 
   23000   -906.35565    49.365129   -856.99052    1768.0799   -70223.666    1.8918427    21.078672 
   23100   -898.08973      50.4944   -847.59533    1808.5263   -62825.469    1.8918427    21.785017 
   23200    -900.8714    55.379499    -845.4919    1983.4928   -64623.734    1.8918427    19.150299 
   23300   -905.74807    50.961469    -854.7866     1825.255   -70783.079    1.8918427    26.005829 
   23400   -902.51805    49.700841   -852.81721    1780.1039   -67044.366    1.8918427    26.314336 
   23500   -896.42151    49.064561   -847.35694    1757.3146   -61407.137    1.8918427    22.714307 
   23600   -906.15463    48.324452   -857.83018    1730.8066   -68625.584    1.8918427    22.905971 
   23700    -902.1989    48.467161   -853.73174     1735.918   -67324.328    1.8918427    23.433956 
   23800   -900.79801    48.254705   -852.54331    1728.3085   -65768.275    1.8918427    21.102276 
   23900   -901.89342    49.542372   -852.35105    1774.4281   -68243.174    1.8918427    20.163896 
   24000   -897.20898    49.476225   -847.73276    1772.0589   -62316.009    1.8918427    22.700959 
   24100   -905.09538     46.86474   -858.23064     1678.525   -69099.348    1.8918427    25.854431 
   24200    -906.3362    51.045183   -855.29102    1828.2533   -70798.469    1.8918427    27.115628 
   24300   -901.39959    52.941308   -848.45829    1896.1657   -65406.144    1.8918427     22.20453 
   24400   -900.14314    48.765732   -851.37741    1746.6117   -68233.323    1.8918427    17.295636 
   24500   -903.18683    58.319325    -844.8675    2088.7867   -65327.315    1.8918427    14.681087 
   24600   -893.67064    47.775071   -845.89557    1711.1298   -61869.344    1.8918427    19.837171 
   24700    -907.1294    52.190624   -854.93877    1869.2789   -71420.463    1.8918427    18.918953 
   24800   -902.93442    49.072859   -853.86156    1757.6118   -69798.894    1.8918427    16.399495 
   24900   -897.85734    48.512819   -849.34452    1737.5533    -63688.98    1.8918427    19.626032 
   25000   -903.24867     54.31931   -848.92936    1945.5207   -64783.047    1.8918427    21.354128 
   25100   -902.69463    47.957247   -854.73739    1717.6547   -68971.989    1.8918427    22.435376 
   25200   -899.44448    48.646102   -850.79838     1742.327   -62806.654    1.8918427    27.174885 
   25300   -900.87041    49.251708    -851.6187    1764.0176   -68828.035    1.8918427    23.329471 
   25400    -901.9838    54.064845   -847.91896    1936.4067   -66419.172    1.8918427    20.071037 
   25500   -901.86607     45.91148   -855.95459    1644.3827    -66725.79    1.8918427    18.859458 
   25600    -905.0519    49.844712   -855.20719    1785.2568   -69747.357    1.8918427    15.468591 
   25700   -896.11608    50.997628   -845.11845    1826.5501   -59321.812    1.8918427    13.891603 
   25800   -901.67057    47.808902   -853.86167    1712.3415   -64340.813    1.8918427    19.523959 
   25900   -902.78778    48.321825   -854.46596    1730.7125   -65831.894    1.8918427    25.377516 
   26000    -899.7315    56.652793   -843.07871    2029.0976   -62269.615    1.8918427    25.942959 
   26100   -901.67105    51.395942   -850.27511    1840.8162   -67341.819    1.8918427     27.23266 
   26200   -904.18604    49.040453   -855.14559    1756.4512   -67659.912    1.8918427    23.195348 
   26300    -902.4475    49.056494     -853.391    1757.0257   -65196.168    1.8918427    21.376368 
   26400   -899.52868    50.686774   -848.84191    1815.4164   -64873.294    1.8918427    20.376951 
   26500   -900.71512    52.139377   -848.57574    1867.4434   -66266.669    1.8918427    23.830095 
   26577   -907.94687     51.18516   -856.76171    1833.2668    -71793.73    1.8918427    21.242417 
Loop time of 14.4602 on 1 procs for 26577 steps with 217 atoms

Performance: 89.629 ns/day, 0.268 hours/ns, 1837.940 timesteps/s
100.0% CPU use with 1 MPI tasks x no OpenMP threads

MPI task timing breakdown:
Section |  min time  |  avg time  |  max time  |%varavg| %total
---------------------------------------------------------------
Pair    | 14.068     | 14.068     | 14.068     |   0.0 | 97.29
Neigh   | 0.12907    | 0.12907    | 0.12907    |   0.0 |  0.89
Comm    | 0.11007    | 0.11007    | 0.11007    |   0.0 |  0.76
Output  | 0.0078383  | 0.0078383  | 0.0078383  |   0.0 |  0.05
Modify  | 0.11092    | 0.11092    | 0.11092    |   0.0 |  0.77
Other   |            | 0.03436    |            |       |  0.24

Nlocal:    217 ave 217 max 217 min
Histogram: 1 0 0 0 0 0 0 0 0 0
Nghost:    887 ave 887 max 887 min
Histogram: 1 0 0 0 0 0 0 0 0 0
Neighs:    3601 ave 3601 max 3601 min
Histogram: 1 0 0 0 0 0 0 0 0 0
FullNghs:  7202 ave 7202 max 7202 min
Histogram: 1 0 0 0 0 0 0 0 0 0

Total # of neighbors = 7202
Ave neighs/atom = 33.1889
Neighbor list builds = 236
Dangerous builds = 0
Total wall time: 0:00:14
