LAMMPS (3 Mar 2020)

# ---------- 1. Initialize simulation ----------
units metal
atom_style atomic
dimension 3
boundary p p p
read_data /home/modeler/RemLabs/Project/arrhenius_3/T1300.0/n3_T1300.0_timestep3.000000e-03_eqsteps3200_time600_rseed3321/20201205-081342/lammps.data
  orthogonal box = (0 0 0) to (17.469 17.469 17.469)
  1 by 1 by 1 MPI processor grid
  reading atoms ...
  217 atoms
  read_data CPU = 0.00107766 secs

pair_style meam/c
pair_coeff * * library.meam Li Si LiSi.meam Li Si
Reading potential file library.meam with DATE: 2012-06-29
Reading potential file LiSi.meam with DATE: 2020-11-07

group Li type 1
1 atoms in group Li
group Si type 2
216 atoms in group Si

velocity all create 1300.0 3321 dist gaussian

# ---------- 2. Specify equilibration ensemble  ----------
fix 1 all npt temp 1300.0 1300.0 0.15 tchain 2 iso 1.0 1.0 1.0 pchain 2
# fix 1 all nvt temp 1300.0 1300.0 0.15

# ---------- 3. Run equilibration -------------
timestep 0.003
run 3200
Neighbor list info ...
  update every 1 steps, delay 10 steps, check yes
  max neighbors/atom: 2000, page size: 100000
  master list distance cutoff = 6
  ghost atom cutoff = 6
  binsize = 3, bins = 6 6 6
  2 neighbor lists, perpetual/occasional/extra = 2 0 0
  (1) pair meam/c, perpetual
      attributes: full, newton on
      pair build: full/bin/atomonly
      stencil: full/bin/3d
      bin: standard
  (2) pair meam/c, perpetual, half/full from (1)
      attributes: half, newton on
      pair build: halffull/newton
      stencil: none
      bin: none
Per MPI rank memory allocation (min/avg/max) = 8.895 | 8.895 | 8.895 Mbytes
Step Temp E_pair E_mol TotEng Press Volume 
       0         1300   -951.04357            0   -914.74732   -116958.82    5330.9442 
    3200    1404.3438   -955.49434            0   -916.28479    11417.824    4525.4525 
Loop time of 2.33809 on 1 procs for 3200 steps with 217 atoms

Performance: 354.751 ns/day, 0.068 hours/ns, 1368.637 timesteps/s
100.0% CPU use with 1 MPI tasks x no OpenMP threads

MPI task timing breakdown:
Section |  min time  |  avg time  |  max time  |%varavg| %total
---------------------------------------------------------------
Pair    | 2.289      | 2.289      | 2.289      |   0.0 | 97.90
Neigh   | 0.0011636  | 0.0011636  | 0.0011636  |   0.0 |  0.05
Comm    | 0.013324   | 0.013324   | 0.013324   |   0.0 |  0.57
Output  | 2.7675e-05 | 2.7675e-05 | 2.7675e-05 |   0.0 |  0.00
Modify  | 0.029779   | 0.029779   | 0.029779   |   0.0 |  1.27
Other   |            | 0.004753   |            |       |  0.20

Nlocal:    217 ave 217 max 217 min
Histogram: 1 0 0 0 0 0 0 0 0 0
Nghost:    957 ave 957 max 957 min
Histogram: 1 0 0 0 0 0 0 0 0 0
Neighs:    4224 ave 4224 max 4224 min
Histogram: 1 0 0 0 0 0 0 0 0 0
FullNghs:  8448 ave 8448 max 8448 min
Histogram: 1 0 0 0 0 0 0 0 0 0

Total # of neighbors = 8448
Ave neighs/atom = 38.9309
Neighbor list builds = 2
Dangerous builds = 0

# ---------- 4. Describe computed properties----------
compute msdli Li msd
compute msdsi Si msd
thermo_style custom step pe ke etotal temp press density c_msdli[4] c_msdsi[4]
thermo 100

# ---------- 3. Run production -------------
timestep 0.003
run 200000
Per MPI rank memory allocation (min/avg/max) = 9.659 | 9.659 | 9.659 Mbytes
Step PotEng KinEng TotEng Temp Press Density c_msdli[4] c_msdsi[4] 
    3200   -955.49434    39.209547   -916.28479    1404.3438    11417.824    2.2285745            0 5.6650873e-32 
    3300   -953.10314    40.764463   -912.33868    1460.0352    6797.6348     2.210069  0.035356971  0.090217733 
    3400   -956.08691    36.099593   -919.98731    1292.9565   -3992.5577    2.1924984   0.16843872  0.097773019 
    3500   -957.64195    36.418861   -921.22309    1304.3915   -8923.4856     2.183322   0.18861514  0.087012738 
    3600   -956.44087    34.227294   -922.21357    1225.8976   -4824.1701    2.1931812  0.037738103   0.10300479 
    3700   -959.24529    32.861214   -926.38407    1176.9695    5418.7514    2.2243407 0.0058041016  0.079499662 
    3800   -959.68813    32.255677   -927.43245    1155.2814    11384.448    2.2429033  0.024152542   0.11019585 
    3900   -958.57675    36.570351    -922.0064    1309.8173    6019.0554    2.2228037  0.083300543  0.099246805 
    4000   -955.92244    34.820977   -921.10147    1247.1611   -3584.5271    2.1932874  0.066588352  0.096913497 
    4100   -958.24932    37.600745   -920.64857    1346.7223   -10738.451    2.1797274  0.086120205  0.093518259 
    4200   -961.94901     33.43887   -928.51014    1197.6591   -2380.1827    2.2108023  0.033742958  0.083499192 
    4300   -956.81164    33.745606   -923.06603    1208.6452    6408.5725    2.2217161 0.0037256566   0.10368743 
    4400   -958.96089    38.725498    -920.2354    1387.0069    7055.5201    2.2240814   0.13610832  0.077575472 
    4500   -956.97497    34.078258   -922.89671    1220.5596     2805.901    2.2096214  0.039388103  0.078925914 
    4600   -962.42954    34.777451   -927.65209    1245.6022   -5680.8895    2.2017489   0.19142584  0.081781813 
    4700   -957.02867    35.879198   -921.14947    1285.0627   -7165.6566    2.1859154  0.072572454  0.099012217 
    4800   -954.50217     33.63147    -920.8707    1204.5573    25.718269    2.1998989  0.014960469   0.10608587 
    4900   -961.68714    35.597158   -926.08998    1274.9611    3993.4485     2.226328    0.1410918  0.093380336 
    5000   -961.61502    37.272931   -924.34209    1334.9812    6345.3881    2.2290404  0.084370704   0.11233778 
    5100   -957.01705    36.725051     -920.292    1315.3581    788.11456     2.208086  0.083273052   0.10956283 
    5200   -957.58643    35.284734   -922.30169    1263.7712   -6310.0589     2.188685    0.0550114   0.11433613 
    5300   -959.55886    34.604269    -924.9546    1239.3994   -7600.2414    2.1888325  0.098579465  0.096564676 
    5400   -961.97194    30.338439    -931.6335    1086.6129    241.61916    2.2180158   0.17619211  0.073197473 
    5500   -961.26306    37.076862    -924.1862    1327.9587     3441.698     2.218727   0.16598765   0.09353903 
    5600   -960.10778    37.890076    -922.2177    1357.0851    4181.7325     2.220334  0.064117373  0.097032331 
    5700    -954.6173    34.069358   -920.54795    1220.2408    2641.3733    2.2054022  0.062189025  0.090345983 
    5800   -956.28498    37.409322   -918.87566    1339.8663   -5345.7303    2.1875642  0.012115655  0.093436515 
    5900   -959.34374    32.421286   -926.92246    1161.2129    -2289.278    2.2057477  0.044930273  0.087198196 
    6000   -960.46255    36.606516   -923.85603    1311.1126   -1375.7364    2.2059583   0.13489635  0.094389381 
    6100   -958.04529    37.389468   -920.65582    1339.1552    988.64118    2.2078767  0.089947086   0.10461005 
    6200   -957.34874    37.053035   -920.29571    1327.1053       2765.7    2.2084337   0.19124591  0.094509894 
    6300   -962.79203    35.183851   -927.60818    1260.1579    2016.5084    2.2209469  0.015597506  0.099507747 
    6400   -956.89466    35.048264    -921.8464    1255.3017   -1464.7119    2.2006217   0.11102842    0.1071409 
    6500   -955.33088    34.742545   -920.58833     1244.352   -3373.9041    2.1926816  0.028361933   0.11837302 
    6600   -959.82419    34.098859   -925.72534    1221.2975   -1792.6217    2.2051232  0.052581303  0.098041873 
    6700   -961.86363    37.406405   -924.45723    1339.7618    56.668664    2.2158631  0.024644033  0.076631811 
    6800   -958.30655    38.443898   -919.86266     1376.921    4227.9682    2.2142921  0.033536741  0.085904905 
    6900   -960.15909    37.574566   -922.58453    1345.7847    664.01237     2.212325  0.014637915  0.094072972 
    7000   -962.03834    34.570887   -927.46746    1238.2038   -5610.8056    2.2030102  0.023786908  0.088540146 
    7100   -955.91839    36.296285   -919.62211    1300.0013   -7310.1852    2.1814422   0.11847182  0.084074483 
    7200   -958.42013     37.61176   -920.80837    1347.1168   -611.45391    2.2006517  0.044584257  0.086057267 
    7300   -960.59626    37.842958   -922.75331    1355.3975    5950.6153     2.224882   0.11371755   0.09794008 
    7400   -959.35057    34.799107   -924.55146    1246.3778     8775.486    2.2304484    0.4060805  0.092089242 
    7500   -953.60348    37.647254   -915.95622    1348.3881   -3247.1491    2.1837054   0.09390981   0.11582628 
    7600    -954.4345    34.746504     -919.688    1244.4938   -7169.1653    2.1779281   0.13338983   0.10789883 
    7700    -958.0148    35.363858   -922.65094    1266.6052   -3849.7321    2.1949614   0.10370606   0.11113951 
    7800   -957.56587    35.725832   -921.84004    1279.5698    6211.3902    2.2190767   0.24469045   0.11633143 
    7900   -954.52726    39.634523   -914.89274    1419.5649    6713.6018    2.2107718 0.0049050783  0.098033836 
    8000   -957.06369    35.734745   -921.32895     1279.889    2488.9875    2.2099887  0.065110637  0.089572731 
    8100   -956.49796    33.923644   -922.57431    1215.0219   -3073.0546    2.1945666  0.054972067  0.097692632 
    8200   -953.03385    36.513539   -916.52031    1307.7825   -5006.6477    2.1795316  0.038378238   0.10939511 
    8300   -954.49099     34.76631   -919.72468    1245.2032    214.36276    2.1978721   0.12210455  0.096174376 
    8400   -957.57134    35.013476   -922.55786    1254.0557    2816.5333    2.2099519  0.072876076  0.086759451 
    8500   -958.00118    37.769272   -920.23191    1352.7583    3691.7518    2.2109051   0.06209464  0.085166783 
    8600   -954.43858    38.987222   -915.45136    1396.3809   -291.09627    2.1954007  0.098638309   0.10910678 
    8700   -957.48787    34.592618   -922.89526    1238.9821    257.51516    2.2023133  0.049456682  0.099184074 
    8800   -958.97781    36.456395   -922.52141    1305.7358   -4888.0277    2.1915599   0.14818528  0.091919672 
    8900   -957.25907    36.586721   -920.67235    1310.4037   -5308.0136    2.1905217 0.0027433534    0.1012923 
    9000   -954.30666    35.963928   -918.34273    1288.0975    4392.4107    2.2077233  0.099112976   0.10605634 
    9100   -951.13792     41.72147   -909.41645    1494.3118    14733.283    2.2256926  0.064105337   0.11490915 
    9200   -957.24649    40.280277   -916.96621    1442.6935    12569.179    2.2322899  0.039856417  0.085784457 
    9300    -955.2752    34.737804    -920.5374    1244.1822   -4882.9461       2.1864  0.087030733  0.085922393 
    9400    -957.3076    34.611842   -922.69576    1239.6707   -15334.221    2.1666858   0.15154118  0.092162449 
    9500   -956.74741    37.356742   -919.39067     1337.983   -7002.9604    2.1818935  0.027547402  0.096075972 
    9600   -956.44468    40.418188   -916.02649    1447.6329    4075.7156    2.2077128  0.042359159  0.090174925 
    9700   -960.37219    39.025294    -921.3469    1397.7445    7478.3807    2.2270994  0.080101017  0.083000706 
    9800   -962.55454    40.261519   -922.29302    1442.0216    264.78922    2.2145677   0.31387203   0.08073195 
    9900   -953.65358    38.238783    -915.4148    1369.5745   -4396.9092    2.1826248  0.068925859  0.092644088 
   10000   -956.55282    36.638424    -919.9144    1312.2555   -7581.2588       2.1834  0.069930663   0.10238763 
   10100    -959.9866    37.429998    -922.5566    1340.6068   -5804.1411    2.1964828  0.093577753   0.09044833 
   10200   -955.63271    35.725964   -919.90675    1279.5745    4985.2199    2.2121098  0.016014684  0.093591216 
   10300   -954.67922    40.834201   -913.84502     1462.533    5769.1368    2.2117912  0.012345768  0.095829418 
   10400   -958.04425    36.259266   -921.78499    1298.6754    5262.8076    2.2171686  0.061503895  0.082261126 
   10500   -959.52294    37.466065   -922.05687    1341.8986   -5304.6317     2.193318  0.077548625  0.088210226 
   10600   -956.66239    35.883228   -920.77916    1285.2071   -9582.1743    2.1804097   0.15777377  0.078071388 
   10700   -955.25283    37.830385   -917.42244    1354.9472   -2707.6984    2.1890595   0.15340809  0.088665932 
   10800   -954.02166     40.11179   -913.90987    1436.6588    3381.9505    2.2012727   0.19364292  0.090584045 
   10900    -954.7467    35.312053   -919.43465    1264.7497    7110.6512    2.2156382   0.03736328  0.094861574 
   11000   -958.78639    37.096952   -921.68944    1328.6783    2439.5457    2.2101923   0.11562786  0.090533528 
   11100   -956.44456    33.172613   -923.27194    1188.1227   -2116.2453    2.1968177  0.018161955  0.097363087 
   11200   -955.42545    39.962807   -915.46264    1431.3228   -7908.4089    2.1771964  0.047642284   0.10870917 
   11300   -957.32313    38.872865   -918.45027    1392.2851     41.96167    2.2035765  0.027195371   0.10284368 
   11400   -959.14575    37.677886   -921.46787    1349.4853    10708.314    2.2369527  0.080715042  0.097055812 
   11500   -957.29528    35.549208   -921.74607    1273.2437      13742.5    2.2391922   0.14175774  0.092008029 
   11600   -952.73184    38.513224   -914.21862     1379.404   -5814.7862    2.1780081  0.057449245   0.10336195 
   11700   -954.41058    34.437019   -919.97356    1233.4091   -14597.896    2.1636527    0.1531867   0.12108296 
   11800   -957.26436    35.137433   -922.12693    1258.4954    -8240.819    2.1860134   0.09946501  0.095319786 
   11900   -958.55873    38.140688   -920.41804    1366.0611    3052.6071    2.2147761  0.076592524   0.09259006 
   12000   -956.04255    42.961067   -913.08149    1538.7096    7753.7755    2.2177748  0.053378591  0.093469194 
   12100   -957.91973    37.685231    -920.2345    1349.7483    6475.7564    2.2220876  0.061640933  0.094554443 
   12200   -954.85258    32.728693   -922.12388    1172.2231   -1792.6984    2.1985296   0.10890389   0.11556972 
   12300   -956.32094    35.539933   -920.78101    1272.9115   -7544.7339    2.1837584  0.064065298   0.10591696 
   12400   -954.20855    40.707178   -913.50137    1457.9835   -6152.2496    2.1803151  0.077533303   0.11340834 
   12500   -956.29873    35.832901   -920.46583    1283.4046      6964.43     2.217126   0.24311041  0.089872149 
   12600   -957.78622    36.377463   -921.40876    1302.9088    8407.8917    2.2230171   0.27009863   0.08821037 
   12700   -957.94898    36.508163   -921.44082      1307.59    1873.7315    2.2081615   0.33095361  0.097434492 
   12800   -953.36214    37.929935   -915.43221    1358.5127   -4462.3421    2.1837065   0.12928869   0.10928555 
   12900   -958.04574    40.402507   -917.64323    1447.0713   -8070.8347    2.1840334   0.13366286  0.099409706 
   13000   -958.32023     36.74429   -921.57594    1316.0472   -3916.5211    2.1972211   0.14456919  0.094461324 
   13100   -956.15637    34.505681   -921.65069    1235.8684    5170.3402     2.214433   0.15523648   0.10510598 
   13200   -955.86481    37.211874   -918.65294    1332.7944    7848.4123    2.2222743   0.06537153  0.097103967 
   13300   -953.88142    38.797438   -915.08398    1389.5835    2095.9134    2.2015955  0.087416385   0.10025953 
   13400   -960.13314    38.731026   -921.40211    1387.2049   -10049.317    2.1866804  0.021783828  0.098180912 
   13500   -958.87607    36.648137   -922.22794    1312.6034   -10500.743    2.1817369 0.0060676949   0.10524487 
   13600   -957.64285    39.533243    -918.1096    1415.9374   -781.44601     2.202901    0.1355076   0.10673524 
   13700   -957.84172    43.018725   -914.82299    1540.7747     13001.56    2.2344563   0.23666431  0.097734558 
   13800   -959.63008    38.955285   -920.67479     1395.237    15152.558    2.2440564   0.22790005  0.089539366 
   13900   -956.79622    35.268683   -921.52754    1263.1963   -1668.9738      2.19638  0.044500964  0.096711039 
   14000   -956.07772    35.551085   -920.52664     1273.311   -15114.006      2.16359   0.14265054   0.10654606 
   14100   -962.56001    34.000586   -928.55943    1217.7777   -8827.4667    2.1958433  0.015581564  0.095477073 
   14200   -958.79031    34.288607   -924.50171    1228.0936     341.6886    2.2117143  0.084717622  0.099736165 
   14300    -954.9005    34.225587   -920.67491    1225.8364     8159.197    2.2194134   0.12576991  0.098285429 
   14400   -956.84153    35.875699   -920.96583    1284.9374    5382.4437    2.2166966  0.020513187   0.10410208 
   14500    -960.3384    32.094503    -928.2439    1149.5087    1566.2419    2.2174764   0.13384507  0.094152833 
   14600   -958.09467    36.040518   -922.05415    1290.8406   -6523.4571    2.1914731   0.11798286  0.099494395 
   14700   -958.00992    37.282443   -920.72747    1335.3219   -6328.4368    2.1893181   0.11974972  0.086628822 
   14800   -959.50828    35.796365   -923.71191     1282.096   -818.43249    2.2085246  0.083436532   0.10250192 
   14900   -960.59651    33.355802   -927.24071    1194.6839    8256.2619    2.2333077   0.24563893   0.10351798 
   15000   -956.95991    36.976049   -919.98386     1324.348     5956.054    2.2164258   0.16361806   0.10512541 
   15100   -956.96662    35.577354   -921.38926    1274.2518   -2087.0609    2.1997265  0.040514783   0.11625223 
   15200   -959.50285    34.377068   -925.12578    1231.2619   -8143.4562     2.190274  0.085744038   0.10085797 
   15300    -959.7574    32.396999    -927.3604     1160.343   -4341.8543    2.2009024  0.061671575  0.093862025 
   15400   -959.07076    38.536597   -920.53416    1380.2411   -187.82464      2.20665  0.054440761   0.10629959 
   15500   -958.65854    37.467879   -921.19066    1341.9635    6188.7716     2.219769  0.044170158   0.10823377 
   15600   -957.54033    34.383138    -923.1572    1231.4793    4596.9282     2.219826  0.051407723   0.11177877 
   15700   -954.87539    34.515374   -920.36002    1236.2155   -578.68905    2.1981247   0.21065131  0.099451868 
   15800   -952.44789    35.489153   -916.95874    1271.0928   -8974.3346    2.1687032   0.20721658   0.11337848 
   15900    -957.4459    36.076579   -921.36932    1292.1322    -11045.49    2.1739765  0.091590309   0.10084642 
   16000    -957.5948    35.370135   -922.22466      1266.83    3250.7364    2.2135248   0.15300881  0.097261056 
   16100   -957.15741     37.71338   -919.44403    1350.7565    17248.407    2.2433109  0.064072726  0.096733989 
   16200   -956.71139    41.727896    -914.9835    1494.5419    5948.1258    2.2134941   0.25539132  0.091175067 
   16300    -958.6289    37.124858   -921.50404    1329.6778    -4428.075    2.1926977  0.026113858   0.10257394 
   16400   -958.49555    36.360046    -922.1355     1302.285   -7323.9833    2.1849331  0.055618224  0.099627874 
   16500   -958.48456    40.645222   -917.83934    1455.7644   -4710.8641    2.1905227  0.076962616  0.098685451 
   16600   -952.88187    36.647143   -916.23473    1312.5678    2922.9429    2.1982681 0.0069273204  0.092523525 
   16700   -961.21768    39.391435   -921.82624    1410.8583    1498.8383    2.2121425  0.039291443  0.079074143 
   16800   -959.76271    38.090956   -921.67176    1364.2799    1366.7696    2.2108496   0.11225581  0.086821632 
   16900   -955.30135    37.953851    -917.3475    1359.3693    102.41839     2.196899  0.031127736  0.090404725 
   17000   -953.95283    37.221362   -916.73147    1333.1342   -4076.9016    2.1830102  0.013292212  0.098570037 
   17100   -956.78702    34.680645   -922.10638    1242.1349   -4450.8415    2.1909613   0.18100272  0.090559986 
   17200   -957.74969    36.283557   -921.46614    1299.5454    840.63365    2.2065639  0.023288418  0.096130647 
   17300   -955.54834    38.787015   -916.76132    1389.2102    8479.7841    2.2170758  0.017067209  0.091544776 
   17400   -955.18951     38.80683   -916.38268    1389.9199    6613.2251    2.2118443  0.070956207  0.098840598 
   17500    -959.5812    37.784403    -921.7968    1353.3003   -6689.9828    2.1914397   0.03060003  0.091564082 
   17600   -956.04978    34.177546   -921.87223    1224.1158   -9156.7827    2.1756726  0.035410089    0.1054594 
   17700    -956.4965    37.623913   -918.87259    1347.5521   -7066.3741    2.1837735   0.13288792   0.11129511 
   17800   -954.46179    41.452898   -913.00889    1484.6925    5715.6021    2.2074271   0.23839652  0.090928888 
   17900   -955.71668    35.433963   -920.28271    1269.1161    16769.314    2.2404956    0.1094508  0.086270592 
   18000   -957.91279    36.318656   -921.59414    1300.8025    6634.3197    2.2199448  0.024678467  0.088241747 
   18100   -957.28587    35.416857   -921.86901    1268.5034    -6425.622    2.1877144  0.031642427  0.099746905 
   18200   -954.26082     40.29168   -913.96914    1443.1019   -7468.7021    2.1745055  0.084815089  0.098786981 
   18300   -954.28839    37.247508   -917.04089    1334.0706    1165.7831    2.1984351     0.177963  0.098315932 
   18400   -957.22334    36.275819   -920.94752    1299.2683    2856.4146    2.2087809 0.0079011794  0.087018159 
   18500   -958.54882     36.20232    -922.3465    1296.6358    2639.6562    2.2106481  0.051110656  0.087760736 
   18600   -958.68429    40.043677   -918.64062    1434.2193   -574.60936    2.2020593  0.061324112  0.095328108 
   18700   -953.91386    37.327166   -916.58669    1336.9237    -1293.785    2.1923368  0.038852929   0.10819073 
   18800    -958.6402     36.57114   -922.06906    1309.8456   -5393.0524    2.1932018  0.038661088  0.091078804 
   18900   -956.25819    34.341581   -921.91661    1229.9909   -1282.5857    2.1999585  0.075888007   0.08619038 
   19000   -956.44079     41.21751   -915.22328    1476.2617    1006.5465    2.2036543   0.12642795   0.10725535 
   19100   -958.09664    37.785167   -920.31147    1353.3276    6514.2872    2.2218711  0.062857857  0.091297729 
   19200   -961.16191    38.777795   -922.38412      1388.88     201.2296    2.2105874   0.24666771  0.084018707 
   19300   -957.75459    37.311053   -920.44354    1336.3466   -9158.1582    2.1847909   0.40326512   0.10182942 
   19400   -951.89009    36.743844   -915.14625    1316.0312   -9451.9341    2.1692095 0.0028608156  0.094064122 
   19500    -955.8201    31.819039   -924.00106    1139.6426    2720.6953    2.2134405  0.058864503   0.10235321 
   19600    -957.2354    35.316444   -921.91896    1264.9069    12721.909    2.2377246  0.037851979  0.099818744 
   19700   -957.39252    38.364744   -919.02778     1374.086    10916.049    2.2321044  0.019199067  0.096321292 
   19800   -956.39434    36.207126   -920.18722    1296.8079   -3381.7847    2.1976576   0.02507997  0.096956546 
   19900   -961.43249    35.806189    -925.6263    1282.4478   -12055.157    2.1865448  0.061346391  0.094588932 
   20000   -959.08438    37.378791   -921.70559    1338.7727   -6113.3382    2.1926648   0.12228704   0.10474542 
   20100   -956.61709    37.157249   -919.45984    1330.8379    2573.4014    2.2096821  0.050631007   0.10420344 
   20200   -960.44134    33.817014   -926.62433    1211.2028    6494.5198    2.2277277  0.074207634  0.095676452 
   20300   -961.49728    38.393212   -923.10406    1375.1056    322.24326    2.2133222  0.012624626  0.093072965 
   20400   -956.76088    36.624928   -920.13595    1311.7721   -1009.8675    2.2022082  0.046301491   0.10159428 
   20500   -958.46977    34.437587   -924.03219    1233.4295   -3403.2318    2.2010281  0.054390024   0.09500772 
   20600    -958.0119    32.030899     -925.981    1147.2306     696.0182     2.208645  0.012039113  0.092031065 
   20700   -955.42557    35.860358   -919.56521     1284.388    1818.7991    2.2037867   0.15500896   0.09112664 
   20800   -957.05308    35.206647   -921.84643    1260.9744    2866.4145    2.2104133 0.0048684222   0.08897531 
   20900    -961.0737    35.535727   -925.53797    1272.7609    606.11203    2.2141441  0.037862745  0.093284284 
   21000   -955.71779     37.60153   -918.11626    1346.7504    302.25869    2.2000288  0.065283014  0.091558147 
   21100   -955.30755    35.699659    -919.6079    1278.6323    2387.0954    2.2057147  0.095138855  0.087473424 
   21200   -956.92389    34.107735   -922.81616    1221.6154     2190.542    2.2114553   0.11738438   0.09627466 
   21300   -958.83638    36.694479   -922.14191    1314.2632    979.61094    2.2101083   0.14184419   0.10324298 
   21400   -957.16536    40.922836   -916.24252    1465.7076   -5370.3614    2.1904281   0.21769757  0.096221238 
   21500    -956.3149    34.124703    -922.1902    1222.2231   -2753.2017    2.1980812 0.0072472155   0.10180636 
   21600   -959.71838    37.464266   -922.25412    1341.8341    23.113725    2.2084184  0.027900524  0.095580641 
   21700   -955.34466    40.124208   -915.22045    1437.1036    4279.7147    2.2118173  0.025643609   0.10135077 
   21800   -957.73553    36.201237    -921.5343     1296.597    7005.2187    2.2254932   0.10270427   0.10074299 
   21900   -959.82584    37.068394   -922.75744    1327.6554   -1240.4404    2.2082979  0.084923068  0.090571279 
   22000   -956.35903    37.812045   -918.54699    1354.2903   -9632.5438    2.1831375   0.08564655  0.097170905 
   22100   -951.10114    33.011703   -918.08943    1182.3595   -6147.3618    2.1769679   0.17057749    0.1065998 
   22200    -962.1293    38.110693   -924.01861    1364.9868   -1235.8483    2.2099777  0.080667263  0.082172114 
   22300   -959.01303    38.921726    -920.0913    1394.0351    9019.0044    2.2298168  0.061620939  0.088732219 
   22400   -956.23665    36.626097   -919.61055     1311.814    9638.7662    2.2249241   0.11835364  0.092333872 
   22500   -960.95692    34.279417    -926.6775    1227.7644    903.07551    2.2165662  0.022038508  0.090634164 
   22600   -957.68633    36.013721   -921.67261    1289.8809   -6987.8957    2.1918475  0.012326175   0.10488875 
   22700    -953.7786     33.77525   -920.00335     1209.707   -2947.8293    2.1900162   0.12348327   0.10485072 
   22800   -960.97057    34.567817   -926.40275    1238.0939    613.37384    2.2139758  0.061793008  0.087921389 
   22900   -957.14036    34.309816   -922.83054    1228.8532    4468.1617     2.217545  0.062889785  0.091984422 
   23000   -955.39261    35.747564   -919.64505    1280.3481    4580.3033    2.2119472  0.010261366    0.1023926 
   23100   -960.07243    35.886613   -924.18582    1285.3283   -1012.6408    2.2091678  0.096022292  0.095156408 
   23200   -961.01359    35.755068   -925.25852    1280.6169   -3878.1757    2.2032373  0.078289694  0.097429907 
   23300   -957.92028     38.94632   -918.97396    1394.9159   -4549.7229    2.1918147   0.20224105  0.093676074 
   23400    -958.8888    36.765058   -922.12375     1316.791   -1985.6767    2.2012757  0.053786799  0.088074226 
   23500   -957.26542    33.036162   -924.22925    1183.2355    3759.3416    2.2150114  0.033563337   0.10856183 
   23600   -953.85773    37.557831    -916.2999    1345.1853    2700.8267    2.2030239   0.12938436   0.09635979 
   23700   -956.98255     36.31651   -920.66604    1300.7257    2643.2249    2.2105033   0.14897435  0.093555247 
   23800   -958.60774     35.32238   -923.28536    1265.1195   -115.04129    2.2078095    0.1054831  0.096358728 
   23900   -953.63409    36.608529   -917.02556    1311.1847   -4253.4928    2.1826991    0.4506425    0.1089385 
   24000   -958.82609    39.851516   -918.97458    1427.3368   -5825.3775    2.1931051  0.043931918   0.10025098 
   24100   -958.74704    36.153326   -922.59371     1294.881    3161.1198    2.2160476  0.085237493    0.0946701 
   24200   -959.53976    39.458905   -920.08086    1413.2749    7133.2083    2.2255219    0.1052929  0.098889022 
   24300   -953.66251    38.775025   -914.88748    1388.7808    3346.3604     2.205249  0.036900891   0.10575038 
   24400   -955.12233    32.483214   -922.63912    1163.4309    281.92843    2.1988248   0.17955577   0.10451448 
   24500   -958.25872    36.340672   -921.91805    1301.5911   -8230.1611    2.1853314   0.10753268    0.1013854 
   24600   -955.78363    37.815502   -917.96813    1354.4142   -3709.4343    2.1882298   0.17985956   0.10403491 
   24700    -959.4209    37.160996   -922.25991    1330.9721    1717.4689     2.212796   0.22001187   0.10305936 
   24800   -962.81503    38.760596   -924.05444     1388.264    4488.1507    2.2243131  0.071693305  0.095560335 
   24900   -958.07087    37.267901   -920.80297    1334.8011    4586.5339     2.216608  0.013181666    0.1099808 
   25000   -957.25224     36.76131   -920.49093    1316.6568    -2618.612    2.1969402   0.17529336  0.098640696 
   25100   -959.66664    31.907097   -927.75955    1142.7965   -4992.5988    2.1991171    0.1351083  0.097190932 
   25200   -958.69136    36.264149   -922.42721    1298.8503    -6444.049    2.1926179  0.041737309   0.10299948 
   25300   -955.73812    35.555488   -920.18264    1273.4686    2404.1434    2.2084543  0.053300235   0.10868874 
   25400   -959.09467    34.362344   -924.73232    1230.7346    8813.0355    2.2323197   0.14899729   0.10654672 
   25500   -962.43591    37.054197   -925.38171     1327.147    6384.0444    2.2292839  0.028959714  0.091251052 
   25600   -956.83931    36.800477   -920.03883    1318.0596   -4130.1727      2.19149   0.02718077   0.10418907 
   25700   -956.69034    34.341785   -922.34855    1229.9982   -13454.147    2.1667881 0.0073719279   0.10650459 
   25800   -959.00065    33.710331   -925.29031    1207.3818   -9508.0588    2.1847376  0.067984046  0.099466103 
   25900   -954.51814    36.219384   -918.29875     1297.247    6237.9925    2.2134833  0.063538542   0.10686971 
   26000   -957.30286    38.036114   -919.26675    1362.3157    14241.219    2.2351018  0.077488646  0.093797776 
   26100    -959.2334    36.577041   -922.65636     1310.057    4057.5834    2.2193412  0.041029282   0.10698666 
   26200   -959.40757     39.46875   -919.93882    1413.6275    -3214.894    2.1952409  0.034914234  0.099611664 
   26300   -957.37246    40.783646   -916.58881    1460.7223   -7726.1504    2.1787024   0.13077223  0.096802103 
   26400   -956.70578    34.643711   -922.06207    1240.8121   -3071.1832    2.1955084   0.12145748  0.097435001 
   26500    -955.5203    35.987913   -919.53239    1288.9565    4890.2886    2.2113447   0.16494166   0.09916258 
   26600   -953.33363    38.618393   -914.71524    1383.1708    6645.2271    2.2086522  0.046438182   0.10253065 
   26700   -956.65307    33.694709   -922.95836    1206.8223     5502.785    2.2186805   0.10389113   0.09860062 
   26800    -958.3816    36.412447   -921.96915    1304.1618   -3896.3913    2.1982753  0.029468536   0.10683015 
   26900    -957.0967    37.162127   -919.93457    1331.0126   -7837.2819    2.1846863  0.042540609   0.10400709 
   27000   -957.31684    36.243818   -921.07303    1298.1221   -5349.4423    2.1915643  0.066998027   0.10181236 
   27100   -960.91034    34.603918   -926.30642    1239.3869    4535.9804    2.2250577  0.091642888  0.093360451 
   27200   -958.35656    36.758155    -921.5984    1316.5438     11541.85    2.2353213   0.03562939  0.093544107 
   27300   -955.48697    35.378387   -920.10859    1267.1255    6524.9704    2.2180889  0.039497531   0.10933152 
   27400    -957.9014    34.712575   -923.18882    1243.2785    -6464.311     2.192466   0.16022642   0.10794124 
   27500   -959.68199    33.315528   -926.36646    1193.2414   -8302.8098     2.192291  0.013777153  0.095732616 
   27600   -957.88793    36.689744   -921.19819    1314.0936   -2259.2684     2.201504  0.030767966   0.09300398 
   27700   -956.67607    36.171145   -920.50493    1295.5192    5286.0628    2.2162935  0.033260914   0.11025571 
   27800   -963.57144    36.246642    -927.3248    1298.2233    1998.5964    2.2253053  0.050109605   0.10598351 
   27900   -959.10759    36.027132   -923.08046    1290.3612   -1105.7576    2.2074441  0.056570194   0.10349549 
   28000   -957.12201      36.4534   -920.66861    1305.6286   -2232.2504    2.1992374  0.068587799   0.10902571 
   28100   -958.12788    35.259198   -922.86869    1262.8566   -2625.2494    2.2015758  0.082154792     0.109461 
   28200   -960.95831    32.759904   -928.19841     1173.341   -783.31274    2.2136132  0.048266833   0.10650535 
   28300   -957.19803    36.115852   -921.08218    1293.5389    814.53966    2.2052014   0.19109629  0.096135498 
   28400   -958.44775    37.640484   -920.80727    1348.1456    2972.9758    2.2148084  0.058647011   0.10364232 
   28500    -956.6247    34.517847   -922.10685    1236.3041    3924.0683    2.2147181  0.038954555     0.101013 
   28600   -960.73604    35.570475   -925.16556    1274.0054    -3020.052    2.2038259 0.0074666174  0.094567123 
   28700   -961.39576    31.888143   -929.50761    1142.1176   -6556.8006    2.2003294  0.043225677  0.098747364 
   28800   -957.90896    34.521793   -923.38716    1236.4454    -2467.927    2.1988099  0.028551269  0.089982216 
   28900   -958.44933    37.187661   -921.26167    1331.9271    5163.6324    2.2181197  0.050321834  0.092690204 
   29000   -957.61892    38.081932   -919.53698    1363.9567    10657.598    2.2335051  0.049084517   0.10162998 
   29100   -956.67124    42.413594   -914.25764    1519.1011    3962.6354    2.2083851    0.0800942   0.10100493 
   29200   -955.01457    38.603234   -916.41134    1382.6278   -9932.8368    2.1754398  0.057104782   0.10887252 
   29300   -957.01371    36.245561   -920.76815    1298.1845   -13200.652     2.170525    0.2147641   0.10258836 
   29400   -959.51285    37.472289   -922.04056    1342.1215   -4502.9429    2.1977682  0.059959448  0.093816671 
   29500   -958.60028    36.524579    -922.0757     1308.178    8574.8801    2.2249396 0.0075858738  0.088998551 
   29600   -953.50795    39.077098   -914.43085    1399.5999    5458.4006    2.2096038  0.015127729   0.10774168 
   29700   -957.57384     37.36639   -920.20745    1338.3286    1386.9696    2.2070728  0.061243476  0.091853385 
   29800   -955.91799     33.11727   -922.80072    1186.1405   -2719.7422      2.19825  0.014921782   0.10014669 
   29900   -958.22059    38.573531   -919.64705     1381.564   -5233.8209    2.1928829  0.013493553   0.10217519 
   30000   -956.49065    40.304368   -916.18628    1443.5563   -3844.9609     2.192168 0.0050009826  0.092847803 
   30100   -961.40347    39.132062    -922.2714    1401.5686    755.16761    2.2125746  0.084355298  0.094887053 
   30200   -957.46781    35.905108    -921.5627    1285.9908    4251.2494    2.2162745 0.0053398416   0.10214336 
   30300   -953.25503    38.234549   -915.02048    1369.4229    2633.8917    2.2002148  0.047303186   0.10660158 
   30400   -957.45799    36.299514   -921.15848    1300.1169   -2109.8588    2.1997629  0.013344546   0.10240991 
   30500   -956.50887      34.0048   -922.50407    1217.9286    -7133.274    2.1855709  0.033615992  0.095808347 
   30600   -956.92155    37.378166   -919.54338    1338.7504   -6703.3806     2.185666  0.063152371  0.093945248 
   30700   -957.39636     42.33617   -915.06019    1516.3281    3973.3541    2.2092309   0.11040102  0.094061233 
   30800   -960.64274    37.416485   -923.22626    1340.1228    15793.938    2.2521583  0.064559082  0.093997417 
   30900   -958.41337     36.11187    -922.3015    1293.3962    5475.0411    2.2208731  0.066395399     0.100581 
   31000   -959.26175    38.226836   -921.03492    1369.1466    -11038.18    2.1822422   0.18098829   0.10297502 
   31100   -955.78947    38.150059   -917.63941    1366.3968    -10422.95    2.1711164  0.019458992  0.094926626 
   31200   -960.86359    35.688636   -925.17495    1278.2375   -4310.7072    2.2009926 0.0095838203  0.092406338 
   31300   -957.05115    33.087577   -923.96358     1185.077    5195.7814    2.2159832  0.091020174   0.10216869 
   31400   -953.47891    32.504207    -920.9747    1164.1828    8469.8495    2.2195579   0.25241532   0.10986948 
   31500   -953.68132    33.817597   -919.86372    1211.2237    4127.3858     2.210298  0.059541305  0.096776463 
   31600   -961.36334    34.003935   -927.35941    1217.8976   -3158.6191    2.2092992  0.093398819  0.092888951 
   31700   -959.36711     35.54509   -923.82202    1273.0962    -8222.658    2.1916593  0.014126799   0.11030045 
   31800   -956.16581    35.631671   -920.53414    1276.1972   -3168.7472    2.1924473  0.059908912  0.096488337 
   31900   -958.41004    36.444932   -921.96511    1305.3253    1430.0331    2.2120144   0.12838474   0.09178345 
   32000   -958.73948     31.29131   -927.44817    1120.7412    9560.3866    2.2372008  0.044307625  0.091452676 
   32100   -958.53411    38.264282   -920.26983    1370.4878    3572.6941    2.2146733  0.063447684   0.10207856 
   32200   -959.10498    38.019759   -921.08522    1361.7299   -3479.2378    2.1968786  0.085495095   0.10538603 
   32300   -960.45106    35.432815   -925.01825    1269.0749   -9655.1714    2.1888437  0.047655476   0.10250154 
   32400   -959.78807    34.329438   -925.45863     1229.556   -4887.7412    2.1978608   0.15212126   0.08807741 
   32500   -957.20833    37.626581   -919.58175    1347.6477    3272.7658    2.2132815  0.036672153   0.10574241 
   32600   -960.11075    39.161519   -920.94923    1402.6236    9156.5403     2.229822  0.017010762  0.098156104 
   32700   -963.18407    39.441616   -923.74245    1412.6556    1594.0362    2.2188589   0.23059853  0.095838662 
   32800   -951.71925    35.900811   -915.81844    1285.8369   -9777.2003    2.1659431  0.041827958   0.10872375 
   32900   -955.09933     36.93594   -918.16339    1322.9114    -16057.71    2.1568079   0.12316312   0.10665622 
   33000   -958.40634    36.480902   -921.92543    1306.6136   -1743.2986    2.2008254  0.036748757  0.093980232 
   33100   -959.58388    38.038834   -921.54505    1362.4131    12408.046    2.2397686   0.19761813  0.089158846 
   33200   -954.55403    40.406929    -914.1471    1447.2297    10621.833    2.2219242  0.027158331   0.10038119 
   33300   -957.89764    37.691478   -920.20616    1349.9721     137.7579     2.207018 0.0098821493   0.10274988 
   33400   -958.17737    35.474162   -922.70321    1270.5559   -6619.1788    2.1919293  0.044952819   0.10291363 
   33500   -955.79955      36.6934   -919.10615    1314.2245   -5552.0843    2.1876897  0.095667318   0.09334146 
   33600   -953.62119    37.985103   -915.63609    1360.4886   -2003.5853    2.1924179  0.030885032   0.10544449 
   33700   -959.89149    37.248943   -922.64254    1334.1221    4405.2726    2.2215643   0.10592946   0.10325153 
   33800   -961.17642    40.138695   -921.03772    1437.6225    5504.1858    2.2257687   0.16519742  0.091697065 
   33900    -954.2863    37.343506    -916.9428     1337.509    2719.1635    2.2041261  0.028097555   0.11566791 
   34000    -957.3762    36.924639   -920.45156    1322.5067   -7903.1448    2.1835666  0.025322535   0.10631422 
   34100   -958.98659    35.624717   -923.36187    1275.9482   -9594.7746    2.1831099 0.0010864998    0.1041235 
   34200    -958.5115    37.467315   -921.04419    1341.9433   -318.91368    2.2027222 0.0083367571   0.10308213 
   34300   -956.41655    37.854715   -918.56183    1355.8186    9703.3822    2.2211012  0.030621533  0.086274138 
   34400   -956.59013    44.023181   -912.56695    1576.7507    4755.8387    2.2106145  0.078029468   0.10402254 
   34500   -957.13538    40.709581    -916.4258    1458.0696   -2761.5061    2.1951345   0.24043879  0.098510367 
   34600   -960.04844    39.852737    -920.1957    1427.3805   -9051.7608    2.1839082   0.18114168  0.091059511 
   34700     -958.327    36.329511   -921.99749    1301.1913   -5116.1896     2.195669  0.064410407  0.098180311 
   34800   -959.19246    36.670004   -922.52246    1313.3866    1109.6263     2.210436  0.054296715  0.088371906 
   34900   -954.01109    39.796721   -914.21437    1425.3742    3199.7745    2.1995096  0.078549321   0.10292631 
   35000   -956.34537    36.390491   -919.95488    1303.3754    3047.8756    2.2112112  0.071206555   0.10291212 
   35100   -954.36312    31.952955   -922.41016     1144.439    4209.1005    2.2098312  0.042746567   0.10385135 
   35200   -956.93756    36.065533   -920.87203    1291.7366   -2755.0508    2.1991527   0.04521899   0.11703334 
   35300   -953.02182    38.131184   -914.89063    1365.7207   -3728.9873    2.1827743  0.047030958   0.10541042 
   35400    -957.6371    35.429661   -922.20744     1268.962   -681.35067     2.202792  0.015088025   0.10360211 
   35500   -959.22014    37.303861   -921.91628     1336.089    3309.8754    2.2154443   0.12036385  0.093835378 
   35600   -955.29752    38.979217   -916.31831    1396.0942    6235.5026    2.2132593  0.082725792  0.094909038 
   35700   -956.11739    36.163307   -919.95408    1295.2385    2332.9034    2.2054712  0.050124027  0.094999703 
   35800   -958.06446     35.13257   -922.93189    1258.3212   -11234.838    2.1801367  0.046746345   0.10119927 
   35900   -958.02179    37.481098   -920.54069     1342.437   -11320.114    2.1727927  0.053910179  0.095259809 
   36000   -956.42387     40.20829   -916.21558    1440.1151    1018.5277    2.2032119    0.1937141  0.092242144 
   36100   -959.48067    35.459697   -924.02097    1270.0378    15562.314    2.2493338   0.18456004   0.10720315 
   36200   -958.66586    35.767587   -922.89827    1281.0653    7346.8673    2.2277534 0.0013115924    0.1050814 
   36300   -957.18482    36.622394   -920.56242    1311.6814    -3610.581    2.1971016  0.037460419   0.11285159 
   36400   -954.57114     34.79828   -919.77286    1246.3482   -7593.4779    2.1832043    0.1730869   0.10760382 
   36500   -962.13167    35.075718   -927.05595     1256.285   -3705.1394    2.2073753  0.061856657   0.09103234 
   36600   -957.93595    36.200615   -921.73533    1296.5747     3731.722    2.2150095  0.053900335  0.093464388 
   36700   -957.61969    37.924106   -919.69558    1358.3039    4488.5903    2.2178933  0.037338314  0.093741595 
   36800   -960.19669    34.315704   -925.88099    1229.0641     -7.57938    2.2162349    0.1248822  0.088518906 
   36900   -958.77674     34.71514    -924.0616    1243.3704   -4875.7361    2.1979631  0.066636178  0.088600912 
   37000   -954.98649    34.772197    -920.2143     1245.414   -3600.8342    2.1919056 0.0099524659  0.087882068 
   37100   -957.21078    34.434611   -922.77617    1233.3229    234.43978    2.2061246  0.040356494  0.088970818 
   37200   -960.85233     34.07268   -926.77965    1220.3598    6093.5604    2.2279222   0.12517099  0.086283873 
   37300   -953.08305    34.288044     -918.795    1228.0734    7131.4747    2.2138949   0.01406362  0.093377097 
   37400   -954.66022    33.705972   -920.95425    1207.2257    1134.3829    2.2048539  0.028531711   0.10884875 
   37500    -959.5834     35.46146   -924.12194    1270.1009   -6267.8605    2.1933115  0.064082945  0.095704356 
   37600   -959.38832    38.953957   -920.43436    1395.1895   -9076.0822    2.1871394  0.033545354  0.096610011 
   37700    -958.4759    40.426169   -918.04973    1447.9188    1020.6115    2.2057219  0.069661029  0.089141377 
   37800   -960.81024    39.308165   -921.50207    1407.8759    8997.7968    2.2343664   0.02920186  0.083621097 
   37900   -963.05848    40.147502   -922.91098    1437.9379     4779.304    2.2286115  0.042486915  0.085281622 
   38000   -954.49926     39.47657   -915.02269    1413.9076   -8415.2962    2.1790923  0.010224556  0.094833654 
   38100   -956.61188    35.866106   -920.74577    1284.5939   -10407.235    2.1750132 0.0077492068  0.095423112 
   38200   -960.15475    37.486844    -922.6679    1342.6428   -6700.0041    2.1927598  0.094185787  0.086561465 
   38300   -957.08121    38.511934   -918.56928    1379.3578    4476.6035    2.2139156  0.024486184  0.085218819 
   38400   -952.48401    36.358385   -916.12562    1302.2255    9669.6381    2.2171899   0.06670035  0.096552642 
   38500   -956.77784    33.826856   -922.95098    1211.5553     5276.631    2.2163533   0.06776701  0.084638148 
   38600   -956.71994    35.349293   -921.37065    1266.0835   -2205.6265    2.1994977   0.22052982   0.10482874 
   38700   -953.33131    34.801015    -918.5303    1246.4462   -3696.3533    2.1886596  0.050703352   0.10704339 
   38800   -961.26877     35.37994   -925.88883    1267.1811   -3136.0539    2.2052387  0.072697515  0.092792576 
   38900   -959.08308    35.083617   -923.99946    1256.5679    203.09215    2.2075892    0.0889493  0.089690082 
   39000   -956.43755     35.86029   -920.57726    1284.3855    2472.6408    2.2085134    0.0181197  0.094040558 
   39100   -955.50876    36.328864    -919.1799    1301.1682     3147.437    2.2058811    2.8575348   0.10700777 
   39200   -949.84743    38.967328    -910.8801    1395.6684      280.665    2.1842662    9.7091376    0.1075682 
   39300    -955.8297     37.93042   -917.89928    1358.5301    716.70311    2.2010181    10.931897   0.12082257 
   39400    -956.5258    36.346264   -920.17954    1301.7914    493.92556    2.2037239    10.946437   0.10481993 
   39500   -958.81327    38.078206   -920.73506    1363.8233    569.34296    2.2044524    5.1582296   0.11089365 
   39600   -962.38024    35.035161   -927.34508    1254.8324   -189.97104    2.2157713    4.3132501   0.11415781 
   39700   -958.00877    35.386185   -922.62259    1267.4048   -3685.7389    2.1980583    5.0280701   0.11780144 
   39800   -954.78979    35.286857   -919.50294    1263.8472   -6256.3405    2.1860995    4.0946846    0.1299248 
   39900   -955.27712    33.775018   -921.50211    1209.6987   -1475.8889    2.1970231    4.7013425   0.10616366 
   40000   -960.70516    34.472162     -926.233    1234.6678    4196.5082    2.2200611    5.3879626   0.11028507 
   40100   -955.49214    36.888999   -918.60314    1321.2302    7203.3106    2.2169301    5.0604701   0.12233557 
   40200   -955.03406    35.713738   -919.32032    1279.1366    6264.3459    2.2131718    8.1490025   0.11559835 
   40300   -957.15226     33.14521   -924.00705    1187.1412    484.09883    2.2030774      4.96083   0.12196533 
   40400   -955.88235     36.52841   -919.35394    1308.3152   -3936.9673    2.1858183    3.9516312   0.10185966 
   40500   -957.75782    40.024958   -917.73286    1433.5488   -6600.2378    2.1845287    5.7172284   0.10968605 
   40600   -958.45987    36.286331   -922.17354    1299.6448   -3281.6453    2.1979604      5.54189   0.10883979 
   40700   -955.91678    34.611272   -921.30551    1239.6502     4412.385    2.2107285    4.6078349    0.1209659 
   40800   -951.61419    37.166355   -914.44784     1331.164    5006.9339    2.2005837    6.5520357   0.13000232 
   40900   -957.85595    36.645855    -921.2101    1312.5216    1696.2291    2.2089227    3.7651951   0.12136186 
   41000   -957.01777     35.55828   -921.45949    1273.5687    14.364756    2.2026504    5.8175516   0.12875059 
   41100   -954.90055    40.251217   -914.64933    1441.6526   -5526.8719    2.1810068    5.1965925   0.13093177 
   41200   -957.24708    38.239683    -919.0074    1369.6068   -2402.1955    2.1948713    5.5112248   0.11462528 
   41300   -958.01576    36.831124   -921.18463    1319.1573    816.74825    2.2075754    4.9308993   0.11171478 
   41400   -957.62677    37.358338   -920.26844    1338.0402     5282.135    2.2141534    6.2226423   0.10339818 
   41500   -957.12559    37.516895    -919.6087    1343.7191    1114.3288    2.2075243    4.7562448    0.1187797 
   41600   -958.59528    31.492642   -927.10263    1127.9522   -188.86563     2.211622    4.1059604    0.1136682 
   41700   -960.14016     37.73965   -922.40051    1351.6974   -6349.5824    2.1922834    5.5454054   0.11098755 
   41800   -953.89917    34.321169   -919.57801    1229.2598   -2489.9493    2.1898836    4.7382891   0.12675909 
   41900   -956.22639    38.766544   -917.45985     1388.477    3121.6965    2.2062729    5.4790075   0.10832739 
   42000    -961.3942    36.377935   -925.01626    1302.9257    12102.419    2.2434856    4.5970841  0.098828578 
   42100    -955.8887    32.373913   -923.51479    1159.5162    5488.4678     2.220031     4.933621   0.11193973 
   42200   -955.19895    34.511964   -920.68699    1236.0934   -6191.6107    2.1867872    5.2142234    0.1261532 
   42300   -953.96945    33.613842   -920.35561    1203.9259   -8970.9363    2.1771409    5.9065661   0.10771632 
   42400   -960.47697    33.244986   -927.23199    1190.7148    10.864081    2.2103493    5.3210059  0.092810127 
   42500   -957.93887    36.963566    -920.9753    1323.9009    5748.2533    2.2201356    6.3032886   0.10739748 
   42600   -957.86007     37.59368   -920.26639    1346.4693    5728.2633    2.2193485    5.0782794   0.10401738 
   42700   -960.89625    34.508868   -926.38738    1235.9825    214.52659     2.215224    6.1445659   0.10259746 
   42800    -959.0353    36.361601    -922.6737    1302.3407    -4050.826    2.1983912    6.1751317   0.10908824 
   42900   -954.13401    33.991638   -920.14237    1217.4572   -2617.8214     2.194766    4.8713804   0.11253821 
   43000   -960.11127    37.007508   -923.10376    1325.4747   -1769.2675    2.2058268    5.2108042   0.10777036 
   43100   -963.53548    37.506445   -926.02904    1343.3448    240.96004    2.2185487    4.6799725   0.09849522 
   43200   -956.15294    38.039411   -918.11353    1362.4337     257.9635    2.2012191    4.1029798   0.11738898 
   43300   -958.23114    37.259861   -920.97128    1334.5131   -72.881853    2.2058949    5.2716434   0.10596481 
   43400   -958.65819    35.088214   -923.56998    1256.7326    561.99932    2.2093162    5.9711583   0.11265258 
   43500   -956.46389    38.864758   -917.59913    1391.9947    220.93664    2.2024916    5.9612914   0.11319105 
   43600   -954.42362    35.954167   -918.46945    1287.7479    2639.6479    2.2073987    5.3850593   0.11270414 
   43700   -955.34464    32.718775   -922.62587    1171.8679    1187.3262    2.2086671    5.1889694   0.10969135 
   43800   -957.41407    36.294808   -921.11926    1299.9484   -2663.6232    2.1983903    5.1591942   0.10676099 
   43900   -957.21604    41.733389   -915.48265    1494.7387   -7702.9429    2.1858494    7.0841507   0.11246153 
   44000   -957.50071    34.519898   -922.98082    1236.3776    1582.0487    2.2126364    5.7805757   0.10278832 
   44100   -960.51888    38.918482    -921.6004    1393.9189    6743.8693    2.2279055    5.8790774   0.11219728 
   44200   -958.08325    41.849475   -916.23378    1498.8964    4810.5154    2.2167045    5.5092649   0.10067479 
   44300   -959.11885    37.356755   -921.76209    1337.9835   -3213.7131    2.2006117    4.4745721   0.10546067 
   44400    -957.5173    34.324828   -923.19247    1229.3909   -10500.786    2.1828982     5.351657   0.11843701 
   44500   -958.46842    39.125549   -919.34287    1401.3353   -9021.8516    2.1836807    4.3710962   0.10424992 
   44600   -958.57985    38.095802   -920.48404    1364.4535    973.59053    2.2102201    6.0048752    0.1119528 
   44700   -960.12749    35.181492     -924.946    1260.0735    10853.094    2.2369138    5.3999021   0.10014895 
   44800   -959.73608    39.507073   -920.22901    1415.0001    5765.1199    2.2231062    5.5847242   0.11236698 
   44900   -957.20669    36.384825   -920.82186    1303.1725   -902.21189    2.2020748    5.7945595   0.10948773 
   45000   -958.83817    31.649423   -927.18875    1133.5676   -4545.8953    2.2000897    5.2389861   0.10067833 
   45100    -958.4423    37.500304   -920.94199    1343.1249   -5291.2147     2.191456    5.0560832  0.095272639 
   45200   -953.98058    33.862613   -920.11797     1212.836     2937.481    2.2070581    5.6394167    0.1018958 
   45300   -959.49166    33.580232   -925.91142    1202.7221    6606.7874    2.2295419    4.1002865  0.097206666 
   45400   -958.42756    37.463659    -920.9639    1341.8124    2797.9641    2.2159129    4.5761669    0.1101068 
   45500   -955.35922    35.648352   -919.71087    1276.7947   -37.547856    2.2005713    5.7587314   0.10089422 
   45600   -958.21433    34.260541   -923.95379    1227.0883   -5402.8613    2.1968335    5.5739497   0.10802528 
   45700   -958.42197     36.27716   -922.14481    1299.3163   -2714.5287    2.1981848    5.4611804  0.098335095 
   45800   -954.86314    37.029644   -917.83349    1326.2676    2138.8661    2.2030762    4.2384832    0.1148405 
   45900   -959.33333     36.71803    -922.6153    1315.1067    3934.3271    2.2196079    5.1427138   0.11202836 
   46000   -958.18613    35.757371   -922.42876    1280.6993    5463.0665    2.2198468     6.258031   0.11345327 
   46100   -954.57286    38.969685   -915.60317    1395.7528   -6206.9367    2.1825616    4.7929104   0.11283645 
   46200   -956.85561    34.304047   -922.55156    1228.6466   -11031.549    2.1776257    6.0078537  0.099287265 
   46300   -958.62881    36.419418   -922.20939    1304.4115   -5504.4879    2.1921296    4.5294677    0.1004557 
   46400   -954.89408    37.862244   -917.03183    1356.0883    6940.4449    2.2167154    4.7508692   0.10340914 
   46500   -955.88519    32.918435   -922.96676     1179.019    13975.815    2.2364819    6.0436256  0.093522798 
   46600   -960.28887    36.778838   -923.51003    1317.2846     601.1417    2.2118426    5.7415621   0.10111924 
   46700   -955.13856     35.20379   -919.93477    1260.8721   -5756.1707     2.183838    4.9216312   0.10684729 
   46800   -955.79236    36.014601   -919.77776    1289.9124   -8465.7925    2.1792096    5.4022122   0.10449444 
   46900   -959.60445    33.319746   -926.28471    1193.3925    1995.0402    2.2125035    5.2520054  0.094474265 
   47000   -958.51918    37.929623   -920.58955    1358.5016    5026.9459    2.2222034    4.8605146   0.10504879 
   47100   -958.49354    38.089875   -920.40366    1364.2412    5363.5966    2.2192905     4.892904   0.10951621 
   47200    -958.8032    31.938425   -926.86477    1143.9185    857.10593    2.2122895    3.9871889  0.099664387 
   47300   -956.55963    35.825569   -920.73407     1283.142   -8483.2309    2.1850117    4.5940418   0.10135048 
   47400    -957.9184    37.703746   -920.21466    1350.4114   -4730.9218    2.1910617     5.582482  0.091725791 
   47500   -958.79893    34.301762   -924.49716    1228.5647    2390.5886    2.2156443    5.6054204    0.1021548 
   47600   -960.20478    37.603654   -922.60112    1346.8265    7260.4428    2.2262934    5.4395851  0.089122844 
   47700   -957.33165    38.921682   -918.40997    1394.0335    2470.4736    2.2090112    5.5201618  0.098756918 
   47800   -959.55533    36.531104   -923.02423    1308.4117   -4540.5624    2.1993614    5.2004609  0.097624107 
   47900   -957.65844    35.291298   -922.36715    1264.0063   -4939.5677    2.1945961    4.7622298   0.10372697 
   48000   -954.30482    38.005406   -916.29942    1361.2158   -2461.3582    2.1894261     5.157855   0.10424748 
   48100   -958.76063    36.076072   -922.68456    1292.1141    2550.7747    2.2118887    6.2664939   0.11084181 
   48200   -960.11287    37.939955   -922.17292    1358.8716    2291.0491    2.2133574    4.5142971  0.093776382 
   48300   -952.63223    36.822812   -915.80942    1318.8596    2400.9451    2.1992344    4.2642555   0.11037341 
   48400   -957.46445    34.652919   -922.81153    1241.1419    427.29033     2.206397    5.2052876   0.10662002 
   48500   -956.83503    34.310132    -922.5249    1228.8645    35.688258    2.2016454    5.2940779  0.098196206 
   48600   -955.48083    37.701932    -917.7789    1350.3465   -2150.7988    2.1946805    4.8603065   0.10943169 
   48700   -959.22968    35.863789   -923.36589    1284.5109    842.95046    2.2086723     5.628851   0.10036693 
   48800   -959.66299    35.980639   -923.68235     1288.696    419.42965    2.2092366    4.6986975   0.10520146 
   48900   -953.98369    34.519404   -919.46428    1236.3599    3119.2511    2.2054513     5.204992   0.10289759 
   49000   -958.68318    36.485226   -922.19796    1306.7685   -755.76302     2.208123    4.8667595   0.10612043 
   49100   -960.31345    34.498392   -925.81506    1235.6073   -2545.9088    2.2077774    4.7293776   0.11166398 
   49200   -958.43402    38.160428   -920.27359    1366.7681   -1578.3334    2.2021228    4.8441394   0.10414847 
   49300   -959.41138    37.953063   -921.45831    1359.3411   -601.64705    2.2085039    4.4856734    0.1062087 
   49400    -961.8697    34.990501    -926.8792    1253.2329    3410.4116    2.2234772    4.5970048   0.10821041 
   49500   -957.90803    38.277164   -919.63086    1370.9492     193.8872    2.2037356    5.0334703   0.09922498 
   49600   -956.76288      35.7268   -921.03608    1279.6044   -1756.3558    2.1964371    4.9246936   0.11037475 
   49700   -961.18715    35.510063   -925.67709    1271.8417   -5160.1419    2.2005315    5.0706957   0.10906786 
   49800   -955.32774     35.69245   -919.63529    1278.3741    269.33747    2.2019098    5.3073935   0.10766104 
   49900   -956.17091    36.787068   -919.38384    1317.5793    5639.2695    2.2156674    5.2338258   0.10402981 
   50000   -957.80748    34.481665   -923.32581    1235.0082    6877.7989    2.2200603    5.3855594  0.095914261 
   50100   -957.21675    36.597268   -920.61948    1310.7814   -624.74066    2.2015452    5.9711963   0.10025807 
   50200   -956.56256    39.043878   -917.51869    1398.4101   -5759.8663    2.1830652    6.4143626   0.10374727 
   50300   -959.66444    36.305121   -923.35932    1300.3178   -6340.4718    2.1915484    4.0579813   0.11313586 
   50400   -956.89057    35.749113   -921.14146    1280.4036    565.07496    2.2059942    5.6988003   0.10339135 
   50500   -956.73006    41.049961    -915.6801    1470.2607    4682.5173    2.2120406    5.5983561   0.10527543 
   50600   -959.21166    36.365666   -922.84599    1302.4863     7227.692    2.2273977    3.9961527  0.098799862 
   50700   -957.19736    35.416267   -921.78109    1268.4822     78.69397    2.2061944     4.522851   0.10592126 
   50800   -958.23416    41.017969   -917.21619    1469.1149   -12284.652    2.1713643     5.701185   0.10690624 
   50900   -958.81647    34.374202   -924.44227    1231.1592   -11067.176    2.1829281    4.4990829  0.099689828 
   51000   -957.72825    34.543512   -923.18474    1237.2233   -2423.1635    2.2037776    5.9432911   0.11172434 
   51100   -957.41062    38.296541   -919.11408    1371.6432    8670.0124    2.2269132    4.7962962   0.11165364 
   51200   -958.98337    35.418298   -923.56507     1268.555    11091.071    2.2343105    5.4923428   0.10110824 
   51300   -964.59863    39.259909   -925.33872    1406.1476   -2796.2229    2.2121066    5.6988117  0.092954398 
   51400   -960.25723    39.899079   -920.35815    1429.0403   -9036.0664    2.1882962    4.5789803  0.096382831 
   51500     -956.501    34.910658   -921.59034    1250.3732    -4727.718    2.1945505    5.7906727   0.10067296 
   51600    -962.3967    35.398799    -926.9979    1267.8566    923.64303    2.2166521    4.8530119  0.096697583 
   51700   -955.44473    35.595409   -919.84932    1274.8985     2007.564    2.2080252    6.2726195    0.1012355 
   51800   -957.63524    36.719573   -920.91566    1315.1619     2260.271    2.2114274    5.9858617  0.099602173 
   51900   -960.88533    35.351935   -925.53339    1266.1781    2457.7598    2.2144086     5.271987  0.085858125 
   52000   -954.79432     35.53096   -919.26336    1272.5901   -199.22578    2.1996993    6.1559848   0.10057015 
   52100     -955.403    35.697932   -919.70506    1278.5705    1621.6896      2.20285    5.6398074   0.10415816 
   52200   -958.48832    35.099181   -923.38914    1257.1254    114.39789    2.2079599    5.2714988  0.098996421 
   52300   -959.54434    38.352516   -921.19182     1373.648   -2380.1046    2.2055712       4.5833   0.10748734 
   52400   -952.95411    35.858046   -917.09606    1284.3052    1059.4698    2.1975036    5.5457067  0.094392368 
   52500    -958.4243    35.667526   -922.75677    1277.4814   -1815.1556    2.1990385    5.0886868   0.08635874 
   52600   -957.41681    35.498464   -921.91834    1271.4262   -869.75188    2.1990724    4.7300555  0.097101557 
   52700   -953.94676    38.597713   -915.34904    1382.4301   -157.06843    2.1939576    6.2964228    0.1008509 
   52800   -956.96335    34.394904   -922.56845    1231.9007    6850.7927    2.2198947    3.8427858  0.097655893 
   52900   -958.88038    36.805562   -922.07482    1318.2418    3244.3447    2.2173077     4.535757  0.092272985 
   53000   -955.10781    38.056389   -917.05142    1363.0419   -642.76494    2.1938978    6.0776747  0.099906824 
   53100   -958.28488    35.960709   -922.32418    1287.9822   -7320.8622    2.1871737    6.0661382    0.1098383 
   53200   -956.93359    33.585533   -923.34806     1202.912   -6472.4808    2.1879574    5.3746015  0.098634739 
   53300   -956.73156    37.238325   -919.49324    1333.7418    1538.7161    2.2048452    4.4351207   0.10211217 
   53400   -960.15041    38.985265   -921.16514    1396.3108    7808.8795    2.2305396    5.1131014   0.10146299 
   53500   -958.75997    33.291199   -925.46877      1192.37     8783.574    2.2314216    4.6571003   0.10374506 
   53600   -957.89972    37.184115   -920.71561    1331.8001   -564.71683    2.2005388    5.9006301   0.10416684 
   53700   -957.35513    36.633355   -920.72178    1312.0739   -8638.1126     2.182174    5.0450485    0.1002001 
   53800   -959.55627     31.97302   -927.58325    1145.1576   -4655.1064     2.199471    5.6901037  0.095763388 
   53900   -957.72696    36.020555    -921.7064    1290.1256    1101.4191    2.2076388    4.9602496   0.10276941 
   54000   -957.85841    37.914916   -919.94349    1357.9748     6430.042    2.2220296    4.8483264   0.10471621 
   54100   -957.82916    32.636832   -925.19233     1168.933    7596.8581    2.2283357    6.0046608   0.10129395 
   54200   -958.76762    35.084516    -923.6831    1256.6001   -855.37903    2.2057171    5.2798882    0.1031607 
   54300   -953.79536    34.059791   -919.73557    1219.8982   -3843.5542    2.1861423    6.5884409   0.11757655 
   54400   -957.91299    35.071596   -922.84139    1256.1374   -5698.8683    2.1912176    5.2318751    0.1091764 
   54500    -960.8143    36.744622   -924.06968    1316.0591   -1056.4053    2.2084417     5.126814    0.1003864 
   54600    -955.0669     38.41611   -916.65079    1375.9257    430.90134    2.2010946    6.6572274   0.10916784 
   54700   -955.63873     34.62837   -921.01036    1240.2626    2328.4611     2.208161    4.1322521   0.10389546 
   54800   -960.29226    37.050014   -923.24224    1326.9971   -1809.9425    2.2062476    5.4491498   0.10740563 
   54900   -954.65996    38.344521   -916.31543    1373.3617   -1323.3702    2.1947723    4.7239566   0.11156793 
   55000   -956.74165    36.949609   -919.79204     1323.401    1009.4642    2.2032475    4.6885267  0.097076489 
   55100   -959.83305    36.828789   -923.00426    1319.0737   -208.52438    2.2055794    5.3975927  0.091211908 
   55200   -957.73916    38.634369   -919.10479     1383.743   -1805.9989    2.2006415      4.68286  0.090823047 
   55300    -955.0578    37.911708   -917.14609    1357.8599    1041.1429    2.1985207    4.8709503   0.10671814 
   55400   -957.65848    34.060448   -923.59803    1219.9217    2536.2784    2.2121456    5.3071597  0.093697932 
   55500   -957.15241    36.439182   -920.71323    1305.1193    2200.2912    2.2087371    5.1770134  0.088383514 
   55600    -953.7178    36.225654   -917.49215    1297.4716    1669.8325    2.1989524    5.3721905   0.10477246 
   55700     -959.235    33.844468   -925.39054    1212.1861   -304.92314    2.2103587    4.9534129   0.10233923 
   55800   -960.14806    37.683486   -922.46457    1349.6858   -5273.0562    2.1940394    4.6482884   0.09728514 
   55900   -957.50232     38.04047   -919.46185    1362.4717   -4295.2785    2.1899208    5.7980971  0.086670877 
   56000   -959.12921    33.399848   -925.72936    1196.2614    2718.9062    2.2150602    4.5712162  0.087669445 
   56100   -961.02428    37.019736   -924.00454    1325.9127    4227.9396    2.2210287    3.8146583   0.10415321 
   56200   -959.06644    39.252256   -919.81418    1405.8735    2221.9078    2.2101879    4.7732706  0.097452902 
   56300    -959.8888    36.532438   -923.35636    1308.4594   -5101.9629    2.1953278    5.0987058   0.10219454 
   56400   -959.93547     33.31441   -926.62106    1193.2014   -6748.7846    2.1903822      5.72474  0.095560435 
   56500   -956.24684    36.485546   -919.76129    1306.7799   -4244.0397    2.1875813    5.4270478  0.098153048 
   56600   -960.35176    38.872104   -921.47966    1392.2578    2760.9399    2.2133676    5.1113886  0.090460833 
   56700   -960.66044    35.700317   -924.96012    1278.6559    10057.581    2.2338211    5.2905103  0.081378065 
   56800   -954.61618    37.277513   -917.33866    1335.1453    3979.1832    2.2062956    5.6247854   0.09947756 
   56900   -958.16272    38.259179   -919.90354     1370.305     -4673.56    2.1893663    5.0251188  0.095661818 
   57000   -959.51676    36.116654    -923.4001    1293.5676   -9783.1324    2.1825171    4.6384556   0.10300389 
   57100   -958.44521    38.845271   -919.59994    1391.2967   -5754.4815    2.1897141    5.0528232   0.10423773 
   57200   -957.45264    40.458438    -916.9942    1449.0745    4457.0461    2.2119504    4.5226563     0.104934 
   57300   -960.05213    37.950758   -922.10137    1359.2585    9244.1185    2.2301428    4.8312748   0.10735233 
   57400   -959.14514    37.537023   -921.60811    1344.4401    3129.3998    2.2150193    5.4730718   0.11443785 
   57500   -954.20688    38.994469   -915.21241    1396.6405   -9357.5441    2.1707186    4.7609973  0.099347702 
   57600   -956.36375    33.933767   -922.42998    1215.3845   -11971.293    2.1736948    4.7291583   0.10296785 
   57700   -959.83102    37.402205   -922.42882    1339.6113   -6097.4279    2.1958753    5.7896912  0.098241771 
   57800   -956.50268    37.598277    -918.9044    1346.6339    12791.103    2.2336955    4.8001926    0.1063804 
   57900   -959.33606    37.515678   -921.82039    1343.6755     15903.43    2.2507498    5.1670705   0.10490713 
   58000   -958.88835    33.286053    -925.6023    1192.1857     2489.361    2.2181025    6.7356458   0.10425951 
   58100   -956.88677    35.026968    -921.8598     1254.539   -6987.4522     2.185742    4.2567043   0.10754329 
   58200   -957.24101    37.095081   -920.14593    1328.6113   -6484.4711    2.1879143    4.1457271   0.10326434 
   58300   -961.74963    34.746442   -927.00319    1244.4915   -214.72577    2.2119406    4.5697974  0.098022358 
   58400   -959.61743     36.31225   -923.30518    1300.5731    2378.9452    2.2154282    4.8869354   0.11379321 
   58500   -956.10513    36.178214   -919.92692    1295.7724    4558.4338    2.2139447    5.5938539    0.1099217 
   58600   -959.43237    35.784542   -923.64783    1281.6725   -26.132498    2.2090591    5.1900875   0.11055352 
   58700   -962.98824    35.885078   -927.10316    1285.2733   -3773.1701      2.20539    4.7359943  0.097070745 
   58800   -959.32459    39.374882   -919.94971    1410.2655   -8137.6297    2.1879798    4.9965314  0.099484613 
   58900   -958.22865    36.676347    -921.5523    1313.6137   -1200.5699    2.1994167     4.931354  0.094413155 
   59000   -956.88033    31.772869   -925.10746    1137.9889    7361.7941    2.2214787    5.7191308   0.09033899 
   59100   -959.39282    38.038079   -921.35474     1362.386    8151.1648    2.2272637    5.8267552   0.09686428 
   59200   -958.24594    39.164768   -919.08117      1402.74    2104.6297    2.2097003     4.766536   0.10757463 
   59300   -957.96909    35.815238   -922.15385    1282.7719   -7095.9149     2.186364    5.3006499   0.10303309 
   59400   -956.69244    33.745516   -922.94693     1208.642   -10427.775    2.1780842      4.77322   0.10474297 
   59500   -959.31394     44.00552   -915.30842    1576.1181   -7000.9422    2.1865657    5.4710382  0.095506472 
   59600   -955.27565    35.813017   -919.46263    1282.6924    11144.843    2.2270896     5.357724     0.104016 
   59700   -962.23787    39.972306   -922.26556     1431.663    5298.6069    2.2272216    4.9709696  0.096391553 
   59800   -955.58717    35.490122   -920.09705    1271.1275    242.61524    2.2033313    4.9019639   0.10355819 
   59900   -954.86034    39.651865   -915.20848     1420.186   -7022.4945    2.1811034    5.3115508   0.11125668 
   60000   -960.72874    37.687004   -923.04174    1349.8118   -3465.4107    2.2013944    4.7952338  0.095825375 
   60100   -958.85201    37.150457   -921.70155    1330.5946    1134.8253    2.2107423    4.5365223   0.10570435 
   60200   -959.47072    41.828639   -917.64208    1498.1502     2609.501    2.2114055    4.6740445  0.097580786 
   60300   -957.48388    39.983751   -917.50013     1432.073   -838.04571    2.2010235     4.341726   0.10107594 
   60400   -956.40339    32.956606   -923.44678    1180.3861   -687.91712    2.2036999    4.6537073   0.10360199 
   60500   -956.02739    34.566364   -921.46103    1238.0418    423.00365    2.2041645    5.8663511   0.10812347 
   60600   -956.95889    38.092295   -918.86659    1364.3279    2674.5221    2.2083084    4.7404185   0.10872908 
   60700   -958.82805    33.704664   -925.12339    1207.1788    2033.2762    2.2168543     6.546956  0.097823679 
   60800   -955.84101    31.241176   -924.59983    1118.9456   -59.477198     2.205948    5.1610332  0.098628303 
   60900   -958.11766    37.130926   -920.98673    1329.8951   -4449.5527     2.195461    4.3515145  0.097577244 
   61000   -959.05173    38.712113   -920.33961    1386.5275   -4307.9523    2.1981648    5.0786327   0.11151138 
   61100   -961.17728    33.561965   -927.61532    1202.0679    5730.7719      2.22887    4.3383074   0.10018498 
   61200   -957.58966    35.842383   -921.74728    1283.7442    5865.2664    2.2212401     5.206538   0.10203563 
   61300    -958.7817    38.312096    -920.4696    1372.2003   -709.10299    2.2052057    5.4080034  0.095819148 
   61400   -958.55165    33.636337   -924.91532    1204.7316   -6458.2574    2.1911457    6.4990062   0.10619756 
   61500   -960.30279    34.972752   -925.33004    1252.5971   -8278.8109    2.1899548    5.0991053  0.092058041 
   61600   -956.10382    36.117431   -919.98639    1293.5954    1080.7328    2.2032356    6.0782136  0.095940644 
   61700   -957.11701    35.488769   -921.62824     1271.079    7624.1776    2.2237358    5.5686436  0.096526093 
   61800   -959.58112    34.351542   -925.22958    1230.3476    8771.7958    2.2297496    5.5926838  0.096222977 
   61900   -954.91017    36.628508   -918.28166    1311.9003   -877.53661    2.1985551    7.1276324    0.1077436 
   62000   -954.24022    34.954032   -919.28618    1251.9267   -4015.1462    2.1857345    5.2397449  0.092367334 
   62100   -958.60286    36.218092   -922.38476    1297.2007   -5586.0679    2.1900416    5.1643262  0.088995024 
   62200   -958.28616    35.915976   -922.37018      1286.38    795.37072    2.2083774    5.4492115  0.098545768 
   62300   -954.57316    39.574513   -914.99865    1417.4156    5679.0239    2.2113567    4.7072545    0.1082148 
   62400   -955.03216    34.400932   -920.63123    1232.1166    8980.9297    2.2233394    4.9358971  0.099453866 
   62500   -959.79774    36.897674   -922.90007    1321.5409   -2954.4371    2.2026209    4.8770039  0.094212965 
   62600   -951.68896    34.641322   -917.04764    1240.7265    -10992.91    2.1621947    5.8969898   0.10968671 
   62700   -952.34314    34.373798   -917.96934    1231.1448   -10297.797    2.1672955    5.4277735   0.10803375 
   62800   -959.44462    36.845701   -922.59892    1319.6794    706.25662    2.2123816    6.3495483   0.10312674 
   62900   -959.18265     38.84565     -920.337    1391.3103    12437.792    2.2384456    4.3680898  0.098953146 
   63000   -955.99478    41.140593   -914.85419    1473.5069    6892.2229    2.2153947    6.7718589   0.08904082 
   63100   -956.87595    34.851831   -922.02412    1248.2662   -978.01983    2.2000743    4.8693769  0.095504008 
   63200   -957.37251    35.005111    -922.3674    1253.7561   -6554.7288    2.1846698    5.8095733  0.092408236 
   63300   -954.49172    35.097291   -919.39443    1257.0577    -3375.245    2.1870441    4.0423593  0.099254684 
   63400   -955.79299    38.994741   -916.79825    1396.6502    774.15263    2.2006413     5.038781   0.10469777 
   63500   -960.18837    35.210518   -924.97785    1261.1131    9088.7568    2.2345726    5.6286763    0.1004291 
   63600   -958.01868    35.666609   -922.35207    1277.4486    5909.2579    2.2192621    5.1813226  0.099976613 
   63700   -957.89892    37.445486   -920.45343    1341.1615    -4250.851    2.1911004      4.97075  0.098094228 
   63800   -954.54883    35.097903   -919.45093    1257.0796   -6644.2643    2.1805572    5.2596425   0.10436163 
   63900   -960.73525    33.426168   -927.30908    1197.2041   -74.878146    2.2119931    5.5641452  0.091299696 
   64000    -957.3784    34.616653   -922.76175     1239.843    5697.9485    2.2203989    5.3672465  0.093502921 
   64100   -957.12813    37.130569   -919.99757    1329.8823    4793.8291    2.2161286    5.8125805  0.092800826 
   64200   -960.05077    37.293417   -922.75736    1335.7149   -2143.1887      2.20341    5.5283639  0.091566836 
   64300   -960.26884     33.46187   -926.80697    1198.4828   -4330.7239    2.1998533    6.2672105  0.095381056 
   64400   -957.78049    36.664747   -921.11574    1313.1983   -4274.2357    2.1926818    4.2479837  0.091331829 
   64500   -954.19973    33.463123   -920.73661    1198.5277    3071.1982    2.2049131    5.7706221  0.092078122 
   64600   -960.87804    33.689117   -927.18892     1206.622    5611.6495    2.2273492    5.1103863  0.093201201 
   64700   -957.23311    35.370543   -921.86257    1266.8446    5814.7215    2.2158121    4.5638705  0.099437793 
   64800   -955.35946    34.972826   -920.38664    1252.5998    1247.2136       2.1994    6.0522111   0.10331232 
   64900   -959.10843    35.483914   -923.62451    1270.9051     -12191.5    2.1766639    5.2213863     0.094036 
   65000   -957.78312    32.128628   -925.65449    1150.7309   -9515.7801    2.1806585    6.3664312   0.10088672 
   65100   -957.13393     38.57192   -918.56201    1381.5063    1597.4106     2.202926    5.6569028   0.10306304 
   65200   -959.11896    38.991944   -920.12701      1396.55    13922.792    2.2379046    4.8286054   0.08751227 
   65300   -958.37102    35.975157   -922.39587    1288.4997    10565.792    2.2322966    5.7674974  0.089887887 
   65400   -956.11877    38.062369    -918.0564     1363.256   -1818.5444    2.1951717    5.6606719  0.097384724 
   65500   -953.68469    36.017191   -917.66749    1290.0052   -8070.6329    2.1729568    4.8242796    0.1064508 
   65600    -957.3868    34.533152   -922.85364    1236.8523   -7057.6048    2.1869608    4.3083954   0.10142537 
   65700   -958.14123     37.10825   -921.03298    1329.0829    1587.7706    2.2088884    5.2728438   0.08715343 
   65800   -953.74436    39.331108   -914.41325    1408.6977    7380.3204    2.2116507    5.3101255   0.10056724 
   65900    -956.2112    34.214554   -921.99665    1225.4412    7929.3268    2.2212705    5.1661283  0.091573158 
   66000   -957.97824    35.864324   -922.11391      1284.53    -1612.682    2.1999775    5.6585273   0.10227226 
   66100   -955.66704    37.778665   -917.88837    1353.0948   -6972.7337    2.1799584    5.5078865    0.1129804 
   66200    -956.2071    37.317443   -918.88965    1336.5755   -6602.7761    2.1843528    4.8458853  0.098117694 
   66300   -958.95456    35.409434   -923.54513    1268.2375     2655.935    2.2134826    4.8638401  0.098157687 
   66400   -957.91883    37.303165   -920.61566    1336.0641     7645.056    2.2234364    4.9301798  0.089874094 
   66500   -959.91909    40.288117   -919.63097    1442.9742    2766.5004    2.2129161    4.8951763  0.099015994 
   66600   -962.22877    34.828564    -927.4002    1247.4328   -1945.1186    2.2129069     5.366397  0.086453325 
   66700   -959.64127    36.321523   -923.31974    1300.9052    -6681.714    2.1934072    5.2762046   0.09612779 
   66800   -957.25197    36.690468    -920.5615    1314.1195   -3982.9269    2.1950939    4.3241088    0.1093266 
   66900   -954.71285    32.162889   -922.54996     1151.958    2848.0325     2.208932    6.0227195   0.09658547 
   67000   -963.57707    36.463588   -927.11348    1305.9935      2593.82    2.2268065    4.6230369   0.10177639 
   67100   -956.08703    35.696917   -920.39012    1278.5341    3139.9166    2.2112602    5.1184917   0.10503805 
   67200    -955.1698    34.136043   -921.03376    1222.6293    1362.9314    2.2038965    6.0378508  0.096175659 
   67300   -958.22688    31.519457   -926.70743    1128.9126   -872.46862    2.2095428    5.6472045   0.10657852 
   67400   -958.85528    36.129027   -922.72625    1294.0107   -1812.3808    2.2070273    5.9114128   0.10133735 
   67500   -956.15397    35.890132   -920.26384    1285.4544    2140.5218    2.2098503    5.8628596   0.10485005 
   67600   -958.05558    35.366927   -922.68865    1266.7151    439.77486    2.2100937    6.1480885  0.098568194 
   67700   -958.90256    32.228869   -926.67369    1154.3212    1128.9934    2.2113321    5.0127424  0.090194988 
   67800    -958.9182    34.497589   -924.42061    1235.5785    807.37806    2.2117318    5.2576465  0.097641876 
   67900    -959.0644    38.468406     -920.596    1377.7988     501.9258    2.2103383    5.1907644  0.084335392 
   68000   -956.50362    35.090906   -921.41271     1256.829   -429.28531    2.2046701    4.5543787    0.1047245 
   68100   -958.17623    35.643835    -922.5324    1276.6329   -4149.9906    2.1975604    6.0222383  0.094051998 
   68200    -959.7884    31.984447   -927.80396    1145.5669   -3846.3058    2.2025539    4.5095866  0.094112104 
   68300   -959.19794    32.227652   -926.97029    1154.2776   -90.420637    2.2117973    6.1860547   0.10385435 
   68400   -960.06637    37.783923   -922.28244    1353.2831     8081.872    2.2293511    5.7366766     0.094739 
   68500   -958.36111     38.05344   -920.30767    1362.9362    8537.9173    2.2276404    5.8467081  0.089993365 
   68600    -957.4783    35.840859   -921.63744    1283.6896   -942.86722    2.2028314    6.2215688  0.094665394 
   68700   -960.43003    32.742275   -927.68775    1172.7096   -7072.3274    2.1947753    5.8574835  0.095071236 
   68800   -957.39688    35.093118   -922.30376    1256.9082   -6864.7868    2.1904376    5.5096529  0.099894819 
   68900   -955.93019    35.602288    -920.3279    1275.1448    3055.6448    2.2083243    4.7947504  0.094230987 
   69000   -961.00202    36.223677   -924.77834    1297.4007    9224.1897    2.2322552    4.9058681    0.1007241 
   69100   -958.44796    32.644889   -925.80308    1169.2215    7982.7399    2.2295106    5.2431165  0.099065209 
   69200   -961.89178    41.271482    -920.6203    1478.1948   -4496.8467    2.2018495     4.168587  0.088445154 
   69300   -956.56694    34.798242    -921.7687    1246.3468   -6611.2856    2.1874569    5.3869257   0.10274445 
   69400   -961.19849    33.520318   -927.67817    1200.5762   -5158.0816     2.200914    5.2071287  0.096161506 
   69500   -955.79988    33.500194   -922.29969    1199.8555    3471.1579     2.211671    4.8667621   0.10894514 
   69600   -957.84674    37.569985   -920.27675    1345.6206    8456.4502    2.2241629     5.430758   0.10414661 
   69700   -959.97528    37.132695   -922.84258    1329.9585    2817.7068     2.218203    5.5777484   0.10203449 
   69800    -961.6315    34.718937   -926.91256    1243.5064   -3045.0691    2.2064046     4.814244  0.085390216 
   69900   -961.07625     31.40373   -929.67252    1124.7677   -1753.8586     2.209821    4.5829351  0.093406704 
   70000   -956.06199    33.533395   -922.52859    1201.0446    834.88843    2.2034378    5.0090179   0.10309608 
   70100   -957.87808    36.039948   -921.83813    1290.8203    2.1558335    2.2066263    4.2444746  0.099907994 
   70200    -956.3279    35.272142   -921.05576    1263.3202    187.66559    2.2062371    4.2054821    0.1042878 
   70300   -956.78016    39.035504   -917.74465    1398.1102   -346.03951    2.2011257    5.6994649   0.11171892 
[...]
  186800   -956.44133    36.403823   -920.03751    1303.8529   -2079.0322    2.1962112    14.966001  0.089138284 
  186900    -960.2465    33.487295    -926.7592    1199.3935   -3302.4018    2.2051165    13.567509  0.098591825 
  187000   -956.90573    36.200922   -920.70481    1296.5858   -1574.1434    2.2006125    14.161462   0.10237512 
  187100     -957.796    38.001336   -919.79467      1361.07    4248.2061    2.2154351    15.693558   0.10083091 
  187200   -961.70151     36.36397   -925.33754    1302.4255    7189.9494    2.2329421    14.784847   0.10056085 
  187300   -956.17938    36.355443   -919.82394    1302.1201    1712.0065    2.2053992     14.46221  0.092731959 
  187400   -956.33559    36.637512   -919.69808    1312.2228   -8908.3995    2.1806254    16.334089  0.093581676 
  187500   -958.88974    34.677831   -924.21191    1242.0341   -11059.974    2.1828806    15.954317  0.099821932 
  187600   -958.12197    37.148958   -920.97301     1330.541   -2091.0419    2.2036924    15.416365   0.10970173 
  187700   -954.16086    36.689931   -917.47093    1314.1003    11630.648    2.2278341     15.04864   0.10813696 
  187800   -958.69927    36.038586   -922.66068    1290.7714    8673.7851    2.2301417    14.260152   0.10600272 
  187900   -958.04876    36.357746   -921.69102    1302.2026   -844.96523    2.2030678    14.108685  0.092415223 
  188000   -954.84886    38.704686   -916.14417    1386.2615   -10950.155    2.1714805    17.729289  0.098798892 
  188100   -958.79425    34.936637   -923.85762    1251.3036    -5552.273    2.1936855    15.314621  0.097156387 
  188200   -959.37583    37.477648   -921.89819    1342.3134   -405.03026    2.2081281    14.847672  0.095727712 
  188300   -956.60413    39.296447   -917.30768    1407.4562    4294.2805    2.2102284    12.776216    0.1067969 
  188400   -960.23237    35.672503   -924.55986    1277.6597    3515.0268    2.2186564     15.42139  0.088884724 
  188500   -959.31563    36.412874   -922.90276    1304.1771   -3423.2806    2.1983436     15.56035  0.093125214 
  188600   -958.47631    39.228119    -919.2482     1405.009   -6578.7216    2.1863145    15.334617  0.096834714 
  188700   -961.58243    36.565591   -925.01684    1309.6469    -4474.342    2.2022584    13.333925  0.097758956 
  188800   -959.20989    35.010548   -924.19935    1253.9509    1939.6713    2.2118109    15.138868  0.099299221 
  188900   -955.19018    35.976036   -919.21414    1288.5311    5722.8455    2.2135562    12.571583   0.10775317 
  189000   -961.95679     38.41805   -923.53874    1375.9952   -187.94141    2.2149507    14.925103   0.11063478 
  189100   -961.27169    35.591495    -925.6802    1274.7583    -3110.711    2.2064073    15.146842   0.10150735 
  189200   -955.83684    36.798491   -919.03835    1317.9885   -6160.7133    2.1853679     14.05513   0.10284503 
  189300   -959.28559     36.74136   -922.54423    1315.9423   -5830.6951    2.1947938    13.963543   0.10659431 
  189400   -961.42183    36.811267   -924.61056    1318.4461    1145.4466    2.2172856    15.627796   0.10207853 
  189500   -954.41642    37.628712    -916.7877     1347.724    11031.363    2.2253362     15.76909    0.1142993 
  189600   -957.22306    36.533209   -920.68985     1308.487    9973.4608    2.2312912    14.015271   0.11619976 
  189700   -961.05634    37.075928   -923.98041    1327.9253   -8512.5337     2.192306    13.448096   0.10301984 
  189800    -951.9214    35.157616   -916.76379    1259.2183   -17571.323    2.1503082    16.049181   0.12984977 
  189900   -957.68682    37.947253   -919.73957     1359.133   -10273.771    2.1805941    15.477704   0.10967345 
  190000    -960.1479    37.514804    -922.6331    1343.6442    4876.9172    2.2218188    12.580261   0.10968672 
  190100   -957.71005    38.130547    -919.5795    1365.6979    9824.0429    2.2295186    13.564221   0.12298679 
  190200   -956.19679    40.209809   -915.98698    1440.1695    3001.0679    2.2075836    14.308875   0.10449157 
  190300   -958.80749    35.144841   -923.66265    1258.7608   -1459.7859    2.2025563    18.724522   0.11169498 
  190400   -957.48358    35.517748   -921.96584    1272.1169   -5896.2818    2.1906782    15.192256   0.11521715 
  190500   -953.73581    35.064451   -918.67136    1255.8815   -3167.2608    2.1910976    15.126763   0.12008626 
  190600   -961.56269    38.136455   -923.42623    1365.9095   -102.89626     2.210925    13.104346  0.098923463 
  190700   -959.56185    34.887959   -924.67389    1249.5602    4989.9644    2.2202605    13.949681  0.088268677 
  190800   -958.42078    37.539321   -920.88146    1344.5224    2351.5626    2.2136413    16.678815    0.1055601 
  190900     -956.972    36.793543   -920.17846    1317.8113   -1101.2213    2.2013286    14.862058   0.10728996 
  191000    -963.5382    35.980962   -927.55723    1288.7076   -6632.1234    2.2045639    14.100514   0.10132089 
  191100    -955.8045    33.759594    -922.0449    1209.1462   -4635.2261    2.1904703      16.5928   0.10454591 
  191200   -956.90007    36.834051   -920.06602    1319.2621    -401.7216    2.2013077    14.934191  0.092672718 
  191300   -960.74286    35.561054    -925.1818     1273.668    6861.0201    2.2292668    15.702515   0.10271073 
  191400   -961.69196    37.170238   -924.52172    1331.3031    7786.7029    2.2344311    14.033236   0.10604387 
  191500   -954.82271    34.994266   -919.82844    1253.3677    2297.7422    2.2049841    12.491185   0.11647035 
  191600   -958.02138    35.118217   -922.90316    1257.8072   -12023.379    2.1777207    15.663685  0.098598696 
  191700   -957.97153    31.990709   -925.98082    1145.7912   -10399.399    2.1815525    14.592817   0.10103031 
  191800   -958.08347    39.343645   -918.73982    1409.1467   -4787.6683    2.1957325    14.435417   0.11046885 
  191900   -956.84697    36.607978   -920.23899     1311.165    9378.2289    2.2297398    13.480038  0.094417429 
  192000   -958.84533    35.747095   -923.09824    1280.3313    8263.8315    2.2291832    13.612283  0.097674494 
  192100   -955.80981    38.378679   -917.43113    1374.5851    149.23458     2.203409    16.746595   0.10967721 
  192200   -956.06173    37.350463   -918.71126    1337.7581   -4561.4339    2.1905214    15.748525  0.095449999 
  192300   -959.37961    36.274751   -923.10486      1299.23   -5338.5752     2.196276    13.427692  0.098964034 
  192400   -957.61965    37.512982   -920.10666     1343.579    -742.4878    2.2032942    14.343676  0.085850278 
  192500   -954.17512    38.312271   -915.86285    1372.2066    3578.3447    2.2044706    15.715207   0.10036104 
  192600   -959.07715    36.130748    -922.9464    1294.0724    3809.5619    2.2181111    17.356956   0.10481317 
  192700   -955.80837    34.527441   -921.28093    1236.6477     1376.481    2.2077025    15.848964   0.10383747 
  192800      -955.41    38.782363   -916.62763    1389.0436   -4677.0856    2.1868767    13.860154    0.1120241 
  192900   -959.79069    35.884784    -923.9059    1285.2628   -5121.3144    2.1976572    13.787961  0.089963183 
  193000   -959.42605    36.445067   -922.98098    1305.3301   -3010.2316    2.1999608    13.401993  0.088577295 
  193100   -957.53329    38.049347   -919.48394    1362.7896    4504.9357    2.2114434    13.248988    0.1043094 
  193200   -960.76075    38.572778   -922.18797     1381.537    8342.6029    2.2270813    14.098995  0.097166282 
  193300   -960.87156    35.199783   -925.67178    1260.7286    3726.9254    2.2208355    14.628941  0.094225258 
  193400   -955.75192    34.814875   -920.93704    1246.9426   -6139.2609    2.1886848    14.411127   0.10594409 
  193500   -954.49924    33.904305   -920.59494    1214.3293   -9920.8499     2.176115    15.299708   0.12121498 
  193600   -963.19987    35.559472    -927.6404    1273.6113   -5006.3023    2.2053274    16.763096   0.10209586 
  193700   -959.04343    37.258194   -921.78524    1334.4534    7081.5623    2.2229038    14.014981   0.10512675 
  193800   -958.59456    38.625194   -919.96937    1383.4144    9430.7251    2.2327256    14.005199   0.10727176 
  193900   -959.66429     34.82934   -924.83495    1247.4607    3320.8563    2.2200832    14.703802   0.11003601 
  194000    -959.0153    33.291302   -925.72399    1192.3737   -5103.0745     2.197881    16.228452   0.11243775 
  194100   -954.05933    34.489472   -919.56986    1235.2878   -7483.8218    2.1806228    19.844255   0.12610385 
  194200   -953.35304    33.226832    -920.1262    1190.0646    1568.7244    2.2000077    17.834903   0.10823365 
  194300   -959.63965    36.948564   -922.69109    1323.3636    3252.9483    2.2181721    19.531455   0.10438737 
  194400   -961.20266    33.310258    -927.8924    1193.0526    5505.1907    2.2261634    24.389373   0.11094269 
  194500    -955.6974    35.023187   -920.67422    1254.4036    2327.5176    2.2066902    21.818163   0.12705686 
  194600   -954.88747    34.907506   -919.97996    1250.2603   -3296.0589    2.1916347    21.204119   0.11926451 
  194700   -956.35281    36.356941   -919.99587    1302.1738   -5551.1364    2.1887643    19.149041     0.112802 
  194800   -958.68419    31.014929   -927.66926    1110.8423     1694.189    2.2149876    30.097781   0.12971562 
  194900   -958.78718    36.698536   -922.08864    1314.4085    1573.5981    2.2121197    33.078368   0.13944999 
  195000   -957.80174    38.894118   -918.90763    1393.0463    639.17749    2.2050015    19.608307   0.12275994 
  195100   -957.29255    35.503223   -921.78932    1271.5967   -575.93182    2.2033647    22.500047   0.10782521 
  195200   -959.01837    33.287842   -925.73053    1192.2498    921.38508    2.2122828    17.610785   0.10463174 
  195300    -957.9373    38.967121   -918.97018    1395.6609   -1474.7866    2.2015422    22.536891   0.11542635 
  195400   -954.54743     34.31064   -920.23679    1228.8827    1550.4957    2.2033586    20.152862    0.1251777 
  195500    -957.8296    32.750907    -925.0787    1173.0187    1818.8807    2.2152529    18.492933   0.13457191 
  195600   -955.78002    36.511075   -919.26894    1307.6943    3038.0605    2.2078469     19.58875   0.11616874 
  195700   -952.18196     33.65211   -918.52985    1205.2965    6026.5492    2.2111489    21.947273   0.12525883 
  195800   -957.12445    35.846579   -921.27787    1283.8945   -503.23355    2.2032496    18.526681   0.12716195 
  195900   -955.36065    33.166275   -922.19437    1187.8957   -7193.2627    2.1861068    36.815649   0.13477664 
  196000   -953.36337    39.065898   -914.29747    1399.1988   -10436.029     2.166852    33.198905   0.13943673 
  196100   -955.67938    36.274703   -919.40468    1299.2283   -52.699525    2.2019016    43.927964   0.12819218 
  196200   -958.21663    37.378153   -920.83848    1338.7499    11598.823    2.2308778    29.759779   0.12210203 
  196300     -955.805    34.923735   -920.88126    1250.8415    11979.731    2.2275199    35.221716   0.13115773 
  196400   -954.36913    41.430806   -912.93833    1483.9012   -5733.2334    2.1795374    33.161712   0.12472427 
  196500   -955.46773     36.19021   -919.27752    1296.2021   -6769.8223    2.1791918    44.145002   0.13093448 
  196600   -955.32269    34.011704   -921.31099    1218.1759   -3770.5308    2.1901657    34.104055   0.12258248 
  196700   -955.79636     34.54964   -921.24672    1237.4428    4579.9421    2.2116242    36.975067    0.1261676 
  196800   -952.67517    39.513527   -913.16165    1415.2312    5424.6413    2.2027642    37.892163   0.11644372 
  196900   -957.25529    38.065724   -919.18957    1363.3762    6833.4868    2.2139881      34.3222   0.12738314 
  197000   -954.80138    33.597472    -921.2039    1203.3396    2945.4237    2.2045727     32.20819   0.13536878 
  197100   -954.75039    35.595523   -919.15487    1274.9025   -2006.0161    2.1919556    36.217634   0.12219199 
  197200   -954.89422      42.0131   -912.88112    1504.7569   -7905.5044    2.1761566    32.661444   0.12875669 
  197300   -957.52305    36.721135   -920.80191    1315.2179   -1260.1877    2.2022008    34.913509   0.13031851 
  197400   -956.73473    35.961034   -920.77369    1287.9938    7356.4495    2.2210536    36.291299   0.13874747 
  197500   -959.20394    38.958727   -920.24521    1395.3603    6647.3571    2.2244874    33.711315   0.11746271 
  197600   -950.93079    39.625307   -911.30548    1419.2348   -983.83021    2.1880095    32.448216   0.13639501 
  197700   -955.88062    38.322625     -917.558    1372.5774   -7358.5602    2.1836072    36.688081   0.12244077 
  197800   -957.42885    37.468133   -919.96072    1341.9726   -11090.485    2.1788768    40.149822   0.13318375 
  197900   -954.98511    33.076414    -921.9087    1184.6772    2841.5708    2.2094484    34.686823   0.12936454 
  198000   -955.96611    33.633238   -922.33287    1204.6206     12896.48    2.2379784     33.93758   0.12778224 
  198100   -954.33853    40.101056   -914.23747    1436.2744    4754.3979    2.2121538    34.098912   0.12944396 
  198200   -955.56006    37.484798   -918.07526    1342.5695   -5500.0943    2.1876015     48.50444   0.12364047 
  198300    -955.7833    33.963244   -921.82006    1216.4402   -7939.8063    2.1823368     35.40879   0.13022292 
  198400   -953.60488    34.139312   -919.46557    1222.7464   -1928.0097    2.1909877    35.091513   0.13241943 
  198500   -957.07373    43.159186   -913.91455    1545.8055   -692.46178    2.2005951    28.414556     0.125068 
  198600   -959.52851    39.284786   -920.24373    1407.0386    4086.4641    2.2163317    57.171692   0.11007125 
  198700   -959.20412    38.853698   -920.35043    1391.5986    2586.7117    2.2131996     52.34916   0.10859916 
  198800   -954.30277     39.73528   -914.56749    1423.1736    1815.0525    2.1968926    56.691953   0.11886982 
  198900   -956.17344    35.615561   -920.55788    1275.6202    1464.9693    2.2050081    68.271334  0.095878655 
  199000   -958.90853     36.46716   -922.44137    1306.1214   -2853.1732    2.1976445    67.171071  0.092272791 
  199100    -958.6092    38.318433   -920.29077    1372.4273   -3848.9084    2.1947709    66.424874  0.098435718 
  199200   -956.27491    41.537684   -914.73723    1487.7292   -1610.0906    2.1958253    68.602095  0.099312355 
  199300   -957.89004    36.477125   -921.41291    1306.4783    5431.2803    2.2149854    65.958351    0.1098717 
  199400   -957.72568    35.636038   -922.08965    1276.3536     395.0303    2.2081844    69.711266     0.104541 
  199500   -955.83702    34.695147   -921.14187    1242.6544    101.34057    2.1997566    68.031185    0.1094703 
  199600    -954.4612    36.078444   -918.38275     1292.199   -1003.7761    2.1942438    66.519783   0.10912886 
  199700   -953.69262    41.126854   -912.56576    1473.0148   -2144.4214    2.1871701    64.708891   0.10409388 
  199800   -956.72721    36.420257   -920.30695    1304.4415    3129.4906    2.2093327    71.231385   0.10707446 
  199900   -958.03555    36.539951    -921.4956    1308.7285    1838.2487    2.2113293    64.393071  0.099707232 
  200000    -957.8163    35.029257   -922.78704    1254.6209     852.5864    2.2068761    67.838814    0.1010621 
  200100   -961.46217    32.311741   -929.15043    1157.2894   -2685.0468    2.2102059    64.490589  0.097198559 
  200200   -961.45642    35.042698   -926.41372    1255.1024   -2859.0267     2.206376    68.649665  0.091497673 
  200300    -959.0641      36.5308   -922.53331    1308.4008   -1159.0054    2.2081542    65.634469  0.099840705 
  200400   -959.17407    38.409202   -920.76487    1375.6783     646.7393    2.2110113    65.738051   0.10351347 
  200500   -957.23219    35.006314   -922.22588    1253.7992     1817.989    2.2108852    70.032854   0.10533579 
  200600   -961.20135    33.541045    -927.6603    1201.3186    601.31611    2.2185853      62.1577  0.091578993 
  200700   -956.23706    34.437657   -921.79941     1233.432    1456.4297    2.2066386    65.348391   0.10880666 
  200800   -956.96025    36.407212   -920.55304    1303.9743   -972.64984    2.2020466    63.449461   0.10900566 
  200900   -958.90781    33.427386   -925.48043    1197.2477   -1158.2627    2.2076679    66.521321  0.086499641 
  201000   -961.15793    35.795543   -925.36239    1282.0665   -1081.7624    2.2113161    71.515414  0.097187981 
  201100   -959.63505    39.366883   -920.26817     1409.979    2660.7059    2.2170505    67.413693  0.092287288 
  201200   -956.38057    34.598854   -921.78172    1239.2055    4979.7772    2.2163128    63.146616   0.10604283 
  201300   -961.95717    34.631759   -927.32541     1240.384   -2645.0598    2.2112291    65.288454  0.096554475 
  201400   -955.55473     34.32436   -921.23037    1229.3741   -5252.8549    2.1899871    69.132943   0.10680212 
  201500   -956.71963    36.150727    -920.5689    1294.7879   -2140.3484    2.2006963    64.145777    0.1146796 
  201600   -958.10757    36.060252   -922.04732    1291.5475    4759.7225    2.2232899    61.856062    0.1135082 
  201700   -960.52273    34.486308   -926.03642    1235.1745    8206.1165     2.235321    60.216324   0.11966248 
  201800   -959.60517    31.745644   -927.85953    1137.0138    3727.1938    2.2246471    63.943896   0.10812086 
  201900   -958.76568    37.911823   -920.85386     1357.864   -9913.6195    2.1853803    68.065835    0.1150576 
  202000   -956.73871    35.413312    -921.3254    1268.3764   -11804.605    2.1767501    64.366639   0.11940601 
  202100   -956.40441    34.866174   -921.53823    1248.7799   -2481.7876    2.1991177    69.743038   0.10635647 
  202200   -964.25347     35.54407    -928.7094    1273.0597    5623.2986    2.2366517    64.326121  0.098107604 
  202300   -958.91403    34.986704   -923.92732    1253.0968    7031.6796    2.2285331     66.76927   0.09827529 
  202400   -957.19708    35.892732   -921.30435    1285.5475    1235.1744    2.2096981    66.430792    0.1187529 
  202500   -958.75873    37.467642   -921.29109     1341.955      -3990.9    2.1981131    66.131758  0.097711965 
  202600   -960.98614    33.049414   -927.93672    1183.7101   -3455.5635    2.2059841    62.176081  0.098701094 
  202700   -962.00991    37.607229   -924.40268    1346.9545   -2884.3829    2.2085114    64.669079  0.092613442 
  202800   -956.48934    35.558568   -920.93077    1273.5789    4187.0281    2.2154049    69.300319   0.10402571 
  202900    -958.2346    36.815036   -921.41956    1318.5811    3099.2108    2.2167469    62.163772   0.11968135 
  203000   -961.71611    33.334502    -928.3816     1193.921    -734.8222     2.216516    61.881666   0.10314893 
  203100   -959.38029    36.126747   -923.25354     1293.929    -3921.266    2.1983306    62.685332   0.10791184 
  203200    -956.9242    35.856001    -921.0682    1284.2319   -2588.3432    2.2002612       69.013   0.12123179 
Loop time of 146.639 on 1 procs for 200000 steps with 217 atoms

Performance: 353.522 ns/day, 0.068 hours/ns, 1363.896 timesteps/s
100.0% CPU use with 1 MPI tasks x no OpenMP threads

MPI task timing breakdown:
Section |  min time  |  avg time  |  max time  |%varavg| %total
---------------------------------------------------------------
Pair    | 143.42     | 143.42     | 143.42     |   0.0 | 97.80
Neigh   | 0.12982    | 0.12982    | 0.12982    |   0.0 |  0.09
Comm    | 0.85064    | 0.85064    | 0.85064    |   0.0 |  0.58
Output  | 0.07035    | 0.07035    | 0.07035    |   0.0 |  0.05
Modify  | 1.8674     | 1.8674     | 1.8674     |   0.0 |  1.27
Other   |            | 0.3012     |            |       |  0.21

Nlocal:    217 ave 217 max 217 min
Histogram: 1 0 0 0 0 0 0 0 0 0
Nghost:    957 ave 957 max 957 min
Histogram: 1 0 0 0 0 0 0 0 0 0
Neighs:    4315 ave 4315 max 4315 min
Histogram: 1 0 0 0 0 0 0 0 0 0
FullNghs:  8630 ave 8630 max 8630 min
Histogram: 1 0 0 0 0 0 0 0 0 0

Total # of neighbors = 8630
Ave neighs/atom = 39.7696
Neighbor list builds = 218
Dangerous builds = 1
Total wall time: 0:02:28
