LAMMPS (3 Mar 2020)
Reading data file ...
  orthogonal box = (0 0 0) to (17.469 17.469 17.469)
  1 by 1 by 1 MPI processor grid
  reading atoms ...
  217 atoms
  read_data CPU = 0.00106072 secs
Reading potential file library.meam with DATE: 2012-06-29
Reading potential file LiSi.meam with DATE: 2020-11-07
1 atoms in group Li
216 atoms in group Si
Neighbor list info ...
  update every 1 steps, delay 10 steps, check yes
  max neighbors/atom: 2000, page size: 100000
  master list distance cutoff = 6
  ghost atom cutoff = 6
  binsize = 3, bins = 6 6 6
  2 neighbor lists, perpetual/occasional/extra = 2 0 0
  (1) pair meam/c, perpetual
      attributes: full, newton on
      pair build: full/bin/atomonly
      stencil: full/bin/3d
      bin: standard
  (2) pair meam/c, perpetual, half/full from (1)
      attributes: half, newton on
      pair build: halffull/newton
      stencil: none
      bin: none
Setting up Verlet run ...
  Unit style    : metal
  Current step  : 0
  Time step     : 0.003
Per MPI rank memory allocation (min/avg/max) = 8.895 | 8.895 | 8.895 Mbytes
Step Temp E_pair E_mol TotEng Press Volume 
       0         1550   -951.04357            0   -907.76727   -115560.29    5330.9442 
    3200     1583.653   -950.22865            0   -906.01275    1628.5246    4608.1245 
Loop time of 2.27896 on 1 procs for 3200 steps with 217 atoms

Performance: 363.956 ns/day, 0.066 hours/ns, 1404.152 timesteps/s
99.9% CPU use with 1 MPI tasks x no OpenMP threads

MPI task timing breakdown:
Section |  min time  |  avg time  |  max time  |%varavg| %total
---------------------------------------------------------------
Pair    | 2.2129     | 2.2129     | 2.2129     |   0.0 | 97.10
Neigh   | 0.017799   | 0.017799   | 0.017799   |   0.0 |  0.78
Comm    | 0.013894   | 0.013894   | 0.013894   |   0.0 |  0.61
Output  | 2.5456e-05 | 2.5456e-05 | 2.5456e-05 |   0.0 |  0.00
Modify  | 0.029386   | 0.029386   | 0.029386   |   0.0 |  1.29
Other   |            | 0.004968   |            |       |  0.22

Nlocal:    217 ave 217 max 217 min
Histogram: 1 0 0 0 0 0 0 0 0 0
Nghost:    953 ave 953 max 953 min
Histogram: 1 0 0 0 0 0 0 0 0 0
Neighs:    4187 ave 4187 max 4187 min
Histogram: 1 0 0 0 0 0 0 0 0 0
FullNghs:  8374 ave 8374 max 8374 min
Histogram: 1 0 0 0 0 0 0 0 0 0

Total # of neighbors = 8374
Ave neighs/atom = 38.5899
Neighbor list builds = 30
Dangerous builds = 1
Setting up Verlet run ...
  Unit style    : metal
  Current step  : 3200
  Time step     : 0.003
Per MPI rank memory allocation (min/avg/max) = 9.661 | 9.661 | 9.661 Mbytes
Step PotEng KinEng TotEng Temp Press Density c_msdli[4] c_msdsi[4] 
    3200   -950.22865    44.215893   -906.01275     1583.653    1628.5246    2.1885928            0 7.6184795e-32 
    3300   -946.56695    41.973816   -904.59314    1503.3499    -2823.811    2.1750276   0.12911728    0.1156456 
    3400   -954.26714    41.851431   -912.41571    1498.9665   -2966.3809    2.1859421   0.10072611  0.083891276 
    3500   -951.26503      41.7363   -909.52873    1494.8429    808.87338    2.1914779  0.030168871  0.096817579 
    3600   -948.93918     44.48704   -904.45214    1593.3644    3832.7597    2.1919289   0.11464292   0.13060929 
    3700   -948.67735    41.738632   -906.93872    1494.9264   -151.56899    2.1836344  0.011367933  0.091130239 
    3800   -954.59685    40.506815   -914.09003    1450.8072   -4182.6865    2.1859241    0.0181835   0.09262847 
    3900    -948.6362    42.994729   -905.64147    1539.9153   -2338.0601    2.1767473  0.048705872   0.10041868 
    4000   -947.13463    42.023147   -905.11149    1505.1167    4668.2184     2.192446  0.028621078   0.11272419 
    4100   -952.43377    42.171659   -910.26211    1510.4359    471.79722    2.1902884  0.049029852  0.089622134 
    4200   -954.73125    43.768207   -910.96304    1567.6184   -5168.0041    2.1808744   0.24773324  0.091327847 
    4300   -949.20738    45.285443   -903.92193    1621.9603   -3753.9985    2.1697763   0.17480561  0.083764066 
    4400   -950.66711    44.572384   -906.09473    1596.4212   -179.55822    2.1836757   0.15123359  0.098890294 
    4500   -950.95484    42.137884   -908.81696    1509.2262    3271.0962    2.1951552   0.32506893    0.1137346 
    4600   -942.62643    42.414665   -900.21177    1519.1395    2080.3411    2.1722901   0.29046398   0.10178469 
    4700   -951.38834    48.916484   -902.47185     1752.011   -2925.0763    2.1773898  0.067058734   0.11338933 
    4800   -949.71795    42.605336   -907.11261    1525.9686   -570.81452    2.1802477  0.059622547   0.10214946 
    4900   -951.39096    44.573504   -906.81746    1596.4613   -1346.8091    2.1811052  0.038855844   0.10547018 
    5000   -945.87305    47.534063   -898.33898    1702.4978   -989.51842    2.1659884  0.082291556   0.10977151 
    5100   -949.40671    43.024394   -906.38232    1540.9778     3450.495    2.1876408   0.30826702   0.10492249 
    5200   -948.83225    41.705579   -907.12668    1493.7426     1050.147    2.1847453  0.066520739  0.097691788 
    5300   -945.90091    45.766004    -900.1349    1639.1723   -2541.5137    2.1686425  0.061313893    0.1071172 
    5400   -949.97683    44.456995   -905.51984    1592.2884   -972.52948    2.1771352   0.11448232   0.11379152 
    5500    -950.6998    42.636203    -908.0636    1527.0742   -624.01856    2.1849714  0.059103951   0.11166532 
    5600   -950.01166    46.011755    -903.9999    1647.9742    1459.1148    2.1852575  0.019840251  0.098269829 
    5700   -946.00898     45.27897   -900.73001    1621.7285    733.72856    2.1755318  0.020640015   0.10515188 
    5800   -952.23868    41.976591   -910.26209    1503.4493     466.1235    2.1920738  0.023145985    0.0990305 
    5900     -948.817    42.041695    -906.7753    1505.7811   -69.209366    2.1791656   0.18337312   0.11192277 
    6000   -947.43717    43.789353   -903.64781    1568.3758    -481.4663    2.1772671  0.054928418   0.13337995 
    6100   -953.65856    42.525664   -911.13289    1523.1151   -782.07074    2.1917486  0.043078794   0.10827745 
    6200   -953.53858    43.916533   -909.62204     1572.931   -2113.5457      2.18701   0.16092093   0.11196797 
    6300   -948.48316    44.076152   -904.40701    1578.6479     229.3211    2.1835906   0.16809962   0.11458132 
    6400   -947.89368     40.73412   -907.15956    1458.9484    1006.4892    2.1848891  0.042889618   0.11397835 
    6500   -955.14554    42.205348   -912.94019    1511.6425   -811.92936    2.1957699 0.0075007617   0.10951713 
    6600   -946.90647      42.4403   -904.46617    1520.0576    -2657.077    2.1758782  0.046143269   0.12497255 
    6700   -946.86035    41.403374   -905.45697    1482.9187    319.36517    2.1798849  0.039617376    0.1012462 
    6800   -950.20459    38.515124   -911.68947    1379.4721    4123.1341    2.1977295  0.062129631     0.103626 
    6900   -949.49923    43.067222   -906.43201    1542.5117    441.40166    2.1880432   0.14890533   0.12563477 
    7000    -946.3071    42.103569   -904.20353    1507.9972    1628.3093    2.1836915    0.1215471   0.12068206 
    7100   -949.00571    41.314244   -907.69146    1479.7264   -2151.0586    2.1803502   0.11183675   0.12294726 
    7200   -950.48764    41.114696   -909.37294    1472.5793   -2082.2776    2.1834769   0.24602582   0.11169949 
    7300   -945.54611    45.651913    -899.8942     1635.086   -1224.4542    2.1744795   0.10346224   0.11497188 
    7400   -945.67383     41.36071   -904.31312    1481.3906    9128.9952    2.1992574   0.36359126   0.11480905 
    7500   -948.13471    40.310523   -907.82419    1443.7767    1640.6734    2.1882321  0.043124047    0.1145015 
    7600   -946.15332    44.081231   -902.07209    1578.8298    -6611.011    2.1600769  0.025762489   0.11555504 
    7700   -948.68187    47.539091   -901.14278    1702.6778   -1656.9063    2.1749022   0.02786391   0.10216029 
    7800   -948.57458    41.814102   -906.76048    1497.6295    8052.3981    2.2037612 0.0042192609      0.10851 
    7900   -951.56218    45.275542   -906.28664    1621.6057    848.33334    2.1901292   0.23535734   0.10429015 
    8000   -945.57879    47.136883   -898.44191    1688.2722   -10702.997    2.1466066   0.18763237   0.13909446 
    8100   -948.53639    41.445358   -907.09104    1484.4224   -189.42877    2.1811067   0.11309214   0.11899738 
    8200   -949.16646    42.471611   -906.69485    1521.1791    8314.0777    2.2049142   0.10137081   0.11234933 
    8300   -949.93958    45.521212   -904.41837    1630.4047    1153.5638    2.1874312   0.03536833   0.11452467 
    8400   -946.37752     47.55833   -898.81919    1703.3669   -9088.8575    2.1458675  0.037263376   0.10245782 
    8500   -950.65149    41.643999   -909.00749     1491.537    1340.1475      2.18835  0.014425048   0.10647399 
    8600   -952.79776    45.784902   -907.01286    1639.8492    7032.5792    2.2064565   0.17053951   0.11490366 
    8700   -948.35272    45.065854   -903.28686    1614.0955    63.471466    2.1787947   0.17915346   0.10879239 
    8800   -942.89362    40.409963   -902.48366    1447.3383   -11095.903    2.1447094  0.074803464   0.12878162 
    8900   -952.82852    40.749254   -912.07926    1459.4905   -224.77214    2.1911995     1.645121   0.12299083 
    9000   -949.76117    45.114032   -904.64714     1615.821    14719.163    2.2200932    8.9114951   0.13084703 
    9100   -947.48955     44.12281   -903.36674     1580.319   -203.45881    2.1833175    8.7730401   0.14493797 
    9200    -945.6038     38.43462   -907.16918    1376.5887   -8604.3091    2.1554805    12.227479   0.11601935 
    9300   -954.43734     44.08115   -910.35619    1578.8269   -3080.1201    2.1868456    10.846924   0.10395921 
    9400    -946.4209    43.733049   -902.68785    1566.3592    7352.9112    2.1946989    13.916724   0.10816982 
    9500   -950.54695    43.622281   -906.92467    1562.3919   -336.43373    2.1882822    15.226191    0.1013081 
    9600   -950.33871    39.597498   -910.74121    1418.2388   -2726.5897    2.1817704    16.671261   0.11416979 
    9700   -945.69643    44.165268   -901.53116    1581.8397   -3047.7354    2.1707017    15.975109    0.1106513 
    9800   -950.29089    45.958712   -904.33218    1646.0744    4618.5505    2.1972837    16.444571   0.10930237 
    9900   -950.11903    41.899264   -908.21976    1500.6797    1782.8709    2.1903001    12.034137   0.11441452 
   10000   -944.34463    42.182065   -902.16257    1510.8086   -2373.3454    2.1658884    12.383676   0.12230327 
   10100    -947.4124    45.453984   -901.95841    1627.9969   -2452.7566    2.1731523    14.158028   0.12162281 
   10200   -950.51983    43.081598   -907.43823    1543.0266    2634.2297    2.1925554     14.43627   0.12401563 
   10300    -946.4505    41.479769   -904.97073    1485.6549    3470.2376    2.1906215     13.94328   0.11409396 
   10400   -943.54066    44.811003   -898.72966    1604.9676   -3734.0293    2.1611984    15.839409   0.10560016 
   10500   -948.71579      40.3087   -908.40709    1443.7115   -529.28063    2.1826081    13.610886   0.11086857 
   10600   -949.40594    42.958708   -906.44723    1538.6251    5798.9509    2.2008189    14.633747   0.10517545 
   10700   -947.63972     45.73166   -901.90806    1637.9422    4306.1448    2.1887271     15.93918   0.11503544 
   10800   -948.68728    45.127276   -903.56001    1616.2954   -10242.138    2.1551417    14.227239   0.10701086 
   10900   -948.79481    39.440975   -909.35383    1412.6327   -5073.3756    2.1712919    12.645995   0.10320068 
   11000   -946.98746      42.7134   -904.27406    1529.8391    12151.555    2.2101161     13.29624   0.12435166 
   11100   -948.31467    43.089856   -905.22481    1543.3224    6139.3895    2.1980326    14.037007   0.11487756 
   11200   -953.22191    39.888263   -913.33365    1428.6529   -7481.1589    2.1748156    14.907991   0.11138906 
   11300   -947.78362    40.697032   -907.08659    1457.6201    -7831.606    2.1650792    15.738841   0.12160002 
   11400   -948.32711    44.485414   -903.84169    1593.3062    5509.8462    2.1954992    14.521395   0.11194396 
   11500   -951.39057    40.839395   -910.55117     1462.719    6955.1526    2.2041172     14.65036   0.10506993 
   11600   -950.81928    41.423628   -909.39565    1483.6441   -4015.9053    2.1758759      14.6868   0.10581782 
   11700   -946.92272    42.709775   -904.21295    1529.7093   -3774.2602    2.1658053    17.080831   0.11033427 
   11800   -951.95151    44.865251   -907.08626    1606.9106    884.59487     2.187315    13.411084   0.11541589 
   11900   -955.08358    43.775065   -911.30851    1567.8641    3108.9511     2.202655    12.730121   0.11410038 
   12000   -947.90944    46.435442   -901.47399    1663.1491   -3960.9604    2.1677234    13.738713   0.11487616 
   12100   -951.44036      46.5624   -904.87796    1667.6963   -4255.8307    2.1771265    13.361834   0.11809893 
   12200   -949.66369     41.67342   -907.99027    1492.5908    2010.4898    2.1903639    15.169071   0.11457091 
   12300   -948.27887    42.793895   -905.48498    1532.7221    3710.4438     2.188369    14.874423   0.12411336 
   12400   -945.00057    44.730752   -900.26982    1602.0933   -3247.4566    2.1643522    16.629893   0.11802463 
   12500   -949.40071    42.217226   -907.18349    1512.0679   -1604.4548     2.180892    13.342044   0.10414058 
   12600   -945.95863    39.283596   -906.67503     1406.996    4882.0614    2.1927274    16.535612    0.1151368 
   12700   -944.03365    45.509804   -898.52385    1629.9961    889.89972     2.171263     12.33767   0.11117304 
   12800   -948.08585    41.469985   -906.61586    1485.3045    1011.6095    2.1839052    15.443795    0.1163393 
   12900   -949.65428    42.252775   -907.40151    1513.3412   -1477.9697    2.1795942    12.045533   0.10775146 
   13000   -946.52512    44.590346   -901.93477    1597.0645     280.6429    2.1765644    14.703871   0.11665371 
   13100   -950.43627    46.865247   -903.57102    1678.5432   -2385.9583    2.1774179    14.009906   0.10923488 
   13200   -949.46164    40.342314   -909.11932    1444.9154    1852.9797    2.1877835    15.569452   0.10833042 
   13300   -946.69607    41.626209   -905.06986    1490.8998    3140.5978    2.1856904    15.349386   0.11928451 
   13400   -946.36273    43.391403   -902.97133    1554.1227   -452.85024    2.1757549    15.125878   0.10706677 
   13500   -952.96539    40.575467   -912.38993    1453.2661     669.4683    2.1921258    14.389237   0.10380962 
   13600   -951.80631    44.123703    -907.6826     1580.351   -3131.3565    2.1783558    13.062143   0.10633869 
   13700   -946.78645    42.821165   -903.96528    1533.6988    318.52815    2.1792575      13.9321   0.11392376 
   13800   -951.27968    42.296761   -908.98292    1514.9166    3028.6754    2.1967597    14.612709   0.10405557 
   13900   -951.51654    40.500389   -911.01615    1450.5771    1408.3946    2.1912935    15.401981   0.10339155 
   14000    -945.5737    40.891031   -904.68267    1464.5684   -1360.8375    2.1751371    14.144832   0.11502126 
   14100    -947.8723    41.700572   -906.17173    1493.5633    742.52168    2.1805928    16.297692   0.10687091 
   14200   -955.83804    42.615956   -913.22209     1526.349    3342.8266    2.2057388    13.920556   0.11072888 
   14300   -948.36559    43.693542   -904.67205    1564.9442    -1737.648    2.1801991    16.324141     0.121056 
   14400   -951.52999    46.229003   -905.30098    1655.7552   -5167.1653    2.1732509    13.374596  0.098733497 
   14500   -953.41022    44.047112   -909.36311    1577.6078   -2093.5728    2.1859492    15.798894   0.10353767 
   14600    -952.0785    40.058511   -912.01999    1434.7506    5514.4003    2.2046123    13.855587   0.11616047 
   14700   -944.96283    42.097009   -902.86582    1507.7622   -445.21998    2.1704806    15.094567   0.11349536 
   14800   -950.49288    44.348254   -906.14462    1588.3936   -7989.2557    2.1652873    16.397615   0.10199706 
   14900   -951.42098    43.203688    -908.2173    1547.3994    2689.5012    2.1907724    16.142091  0.097272811 
   15000   -953.51479    45.468318   -908.04647    1628.5103     8062.702    2.2086948    13.484531  0.086365978 
   15100   -944.39895     44.16278   -900.23617    1581.7506   -6401.2232    2.1531798    13.820288    0.1135426 
   15200   -948.12476     42.30127   -905.82349    1515.0781   -10887.875    2.1531755    14.394835   0.10803146 
   15300   -947.27514    40.564813   -906.71033    1452.8845    7768.6849    2.1983788    16.369212    0.1009833 
   15400   -949.64588    41.213933   -908.43194    1476.1336    10572.857    2.2107599     13.51769   0.12021334 
   15500   -947.12813    49.071436    -898.0567    1757.5609   -8838.1821    2.1506456    13.933122   0.11331284 
   15600   -948.17198    44.325346   -903.84663    1587.5731   -4991.0272    2.1700519    12.710582   0.11182864 
   15700   -950.92965    44.284728   -906.64492    1586.1183    3042.1609    2.1917723     13.53066   0.11641228 
   15800   -954.00548    46.172652   -907.83283    1653.7369    998.47683    2.1930846    16.044949   0.10017865 
   15900    -943.2329    45.262363   -897.97053    1621.1337   -4084.8487    2.1572645    15.767382   0.11939028 
   16000   -949.49459    44.239082   -905.25551    1584.4835   -1851.2389     2.179759     16.45909   0.10945114 
   16100   -952.46379     45.34544   -907.11835    1624.1092    1409.2142     2.191004    13.107106   0.10132762 
   16200   -951.94271    48.795947   -903.14676    1747.6939   -1878.8764    2.1823214    14.834263   0.10810362 
   16300   -947.32749    47.548774   -899.77871    1703.0247   -4831.3701    2.1625187    13.971326   0.11183957 
   16400   -948.72596     40.94031   -907.78565    1466.3334    267.02766    2.1819628    14.552816   0.11553513 
   16500   -949.32311    43.857855   -905.46526    1570.8293    5344.5354    2.1960556    13.282287   0.11688423 
   16600   -944.97305    45.536383   -899.43667    1630.9481    4720.6156    2.1813075    12.939624   0.12884232 
   16700     -947.018    42.509404    -904.5086    1522.5327   -8013.9024    2.1574938    15.747367   0.11537395 
   16800   -949.70373    41.822146   -907.88159    1497.9176   -8470.2621    2.1611304    15.332926   0.11558224 
   16900   -953.07457    48.996404   -904.07816    1754.8735    12476.792    2.2188468    13.669313   0.11602285 
   17000    -947.6956    41.468405    -906.2272    1485.2479    12515.076    2.2111867    15.930804   0.10462779 
   17100   -951.92509    38.077086   -913.84801    1363.7831   -10551.865     2.162635    13.684432   0.11165703 
   17200    -945.7935    37.707631   -908.08587    1350.5506   -6272.4899    2.1621922    13.970652   0.10985528 
   17300   -950.44848    46.168765   -904.27972    1653.5977    6290.5815    2.1986691     12.97456   0.11192502 
   17400   -952.59952    44.290516     -908.309    1586.3257    4812.2191    2.1981819    13.449777   0.10376937 
   17500   -953.49588     40.06378    -913.4321    1434.9393   -4024.9061    2.1852345    14.994566   0.12187046 
   17600   -950.75119    45.260525   -905.49066    1621.0679   -7348.0233    2.1682223    15.710535   0.11082444 
   17700   -952.10281    46.584156   -905.51866    1668.4755     2178.497    2.1888383    15.994258   0.10323338 
   17800   -952.43942    40.944847   -911.49458    1466.4959    4897.8536    2.2043019    13.243244   0.12596384 
   17900    -948.0265    39.671235   -908.35526    1420.8798   -2236.5778    2.1803112    15.758007   0.11207606 
   18000   -948.67255    44.371449    -904.3011    1589.2244   -4248.8809    2.1672505    16.509989   0.10482892 
   18100   -946.82235    40.472309   -906.35004    1449.5713    2791.3986    2.1844387    17.310641    0.1066424 
   18200   -952.05545    43.199731   -908.85572    1547.2577    6318.0745    2.2028408    13.564137   0.11008157 
   18300   -947.34973    47.757894   -899.59184    1710.5146   -226.21427    2.1748314    13.466525   0.11255753 
   18400   -945.91703     43.41875   -902.49828    1555.1022   -2600.1123    2.1654091    13.555591   0.10645173 
   18500    -948.0976    41.463698    -906.6339    1485.0793   -1328.7436    2.1809202    14.192325   0.11674299 
   18600   -952.47497    45.134145   -907.34083    1616.5414    5468.9305    2.2011963    15.010889   0.11464196 
   18700   -946.79044    49.213595   -897.57685    1762.6525   -746.35601    2.1682359    13.748294   0.11037757 
   18800   -948.21485     43.54728   -904.66757    1559.7056   -4291.1001    2.1682525    16.635712    0.1351102 
   18900   -951.21761    43.727594   -907.49001    1566.1638    -671.7735    2.1820104    14.969154    0.1195595 
   19000   -948.98321      45.3015   -903.68171    1622.5354    6391.5064    2.1946375    14.690125   0.10494588 
   19100   -947.18636      47.9913   -899.19506    1718.8743   -3149.6397    2.1709464    13.897271    0.1398299 
   19200    -948.2662     40.48214   -907.78406    1449.9234   -4514.7061    2.1715963     13.94804   0.11383637 
   19300   -953.71232    47.164938   -906.54738     1689.277   -3063.2061    2.1834312    14.414719   0.12358474 
   19400   -949.06908     48.83387   -900.23521    1749.0521    5802.7171    2.1948649    13.119646   0.12908197 
   19500   -949.53841    44.909036   -904.62937    1608.4788   -2805.0177    2.1743057    16.327534   0.11357633 
   19600   -951.86229    43.422652   -908.43964    1555.2419   -10108.668    2.1604371    14.236835    0.1189579 
   19700    -950.3176    45.824029   -904.49357    1641.2505    1509.6769    2.1884371    14.301347   0.13060846 
   19800   -947.86258    44.697082    -903.1655    1600.8874    11836.846    2.2077661    16.560706   0.13786017 
   19900   -952.19582     39.89085   -912.30497    1428.7456   -868.96167    2.1915755    14.008598   0.12156254 
   20000    -951.2457    43.753721   -907.49198    1567.0996   -12268.607    2.1546507    14.473012   0.12337714 
   20100   -951.75085    47.427118   -904.32374    1698.6674   -3510.2049    2.1804562    15.308083   0.11167804 
   20200   -951.92565    42.252024   -909.67363    1513.3143    6123.5767    2.2072848    14.056172    0.1121759 
   20300   -950.97436    39.508144   -911.46622    1415.0384    2711.4199    2.1954052    14.572623   0.10957454 
   20400   -946.91156    42.239894   -904.67167    1512.8798   -4015.6833    2.1706654    13.388024   0.11550722 
   20500   -951.22064    44.951347   -906.26929    1609.9942   -3362.5133    2.1786128    15.954022   0.11961445 
   20600   -952.60802    39.892148   -912.71587    1428.7921    5129.2833    2.2046588    16.743877  0.094959786 
   20700   -950.83168    45.318302   -905.51338    1623.1372    917.23083    2.1883268    16.421634   0.11521915 
   20800   -945.31667    40.685658   -904.63101    1457.2127    895.77367    2.1788833    15.535279   0.12982618 
   20900    -949.6673    41.878212   -907.78909    1499.9257   -3060.9454    2.1774496    16.482229    0.1172648 
   21000   -953.68622    42.201569   -911.48465    1511.5071   -137.79299    2.1931283    13.069193   0.11454467 
   21100   -949.04703    46.112486   -902.93455     1651.582    4327.1191    2.1911026    13.281205   0.10822659 
   21200   -947.70448    43.917162   -903.78732    1572.9535    4441.4768    2.1909601    15.198136   0.10914506 
   21300   -949.41294    42.724739    -906.6882    1530.2452   -6385.8718    2.1655623    14.367444   0.10489272 
   21400   -949.90418    42.653253   -907.25093    1527.6848   -7591.8104    2.1673596    15.788768   0.10635833 
   21500   -948.14999    49.354211   -898.79577    1767.6888    11181.514    2.2050826    15.614477   0.11671496 
   21600   -950.63227    49.795439   -900.83683     1783.492    10244.597     2.208556    15.267479   0.12017004 
   21700   -949.89895    43.384145   -906.51481    1553.8627   -12445.167     2.152247    14.629587   0.11118847 
   21800   -949.30301    42.568832   -906.73418    1524.6612    -10247.12     2.159373    15.062011   0.11938654 
   21900   -948.05739    46.682576   -901.37482    1672.0006    9036.1581    2.2016621    15.785301   0.12140694 
   22000   -945.10497     45.29532   -899.80965    1622.3141    4909.9803    2.1858572    15.050138   0.12066331 
   22100   -948.25975    41.324993   -906.93476    1480.1114   -4851.9559    2.1711055    15.501341   0.11019353 
   22200   -947.26813     41.02611   -906.24202    1469.4065   -1049.8213    2.1755305    14.530871  0.096134461 
   22300   -945.03567    44.608462    -900.4272    1597.7134    5673.8975    2.1887277    15.541485     0.122325 
   22400   -945.66237    45.119022   -900.54334    1615.9998    1280.0827    2.1806081    14.980873   0.11226414 
   22500   -949.96292      43.0438   -906.91912    1541.6728   -6401.9108    2.1705674     14.93963   0.10075057 
   22600   -949.46028    43.258942   -906.20134    1549.3784   -1910.8615     2.184506    15.785681   0.10551705 
   22700   -949.43004    47.332822   -902.09722      1695.29     5032.949    2.1950576    15.550874  0.096851245 
   22800   -946.27387    48.921617   -897.35225    1752.1949    11.213964    2.1692552    15.215669   0.11934589 
   22900   -947.67113    41.588273   -906.08286    1489.5411   -4664.8562     2.168382    15.640175   0.11420443 
   23000   -949.85426    43.335393   -906.51887    1552.1166    121.82057    2.1910069    12.105622   0.13099855 
   23100    -950.6439    45.671112   -904.97279    1635.7736     8563.318    2.2045361    14.238646   0.11858283 
   23200   -943.04147    47.154185   -895.88729    1688.8919   -4479.7614    2.1557459    14.785054   0.12306544 
   23300   -948.68982    43.432456   -905.25736    1555.5931   -9552.3984    2.1568948     15.06536   0.10526579 
   23400   -951.59411    44.962933   -906.63117    1610.4092    4257.0464    2.1977222    15.714565   0.10964674 
   23500   -949.25244    44.746086   -904.50635    1602.6425    14198.736     2.216851    13.770868   0.10914808 
   23600   -942.64046    45.680482   -896.95998    1636.1092   -6466.8333    2.1494608    13.713398   0.11325926 
   23700   -949.94889    44.747723   -905.20117    1602.7012   -13159.705    2.1526123    13.879705   0.11676564 
   23800   -946.08492    39.718444   -906.36648    1422.5706    5869.8081    2.1911394    13.791123   0.10769345 
   23900   -950.78879    45.672852   -905.11594    1635.8359     7310.438    2.2042088    13.704198   0.13151381 
   24000    -944.6296    44.824034   -899.80556    1605.4343   -10.645476    2.1729655    12.996961   0.11895672 
   24100   -946.35352    46.571387   -899.78214    1668.0182   -7611.3777    2.1535262    14.057346   0.11688152 
   24200   -948.16669    42.058523   -906.10816    1506.3838     395.4532    2.1837137    13.873181   0.10924866 
   24300    -948.1495    42.474132   -905.67537    1521.2694    6316.3387     2.196628     14.68814   0.10691642 
   24400   -949.61185    42.277502   -907.33435    1514.2268    -821.1303    2.1806632     16.40537   0.10769469 
   24500   -955.48406    39.832288   -915.65177    1426.6481    -2534.136    2.1917991    16.083972  0.097533771 
   24600   -953.84665    45.563746    -908.2829    1631.9281   -4744.7317    2.1810183    13.917685   0.10392452 
   24700   -952.88445    47.542845    -905.3416    1702.8123   -1466.2121    2.1862241    13.087328   0.09824481 
   24800   -950.01106    44.256607   -905.75445    1585.1112      -42.898    2.1841894    16.086061    0.1102048 
   24900   -951.85101     37.41013   -914.44088    1339.8952    1804.1934    2.1958722    13.207103   0.11157436 
   25000   -952.77565    45.397167   -907.37849    1625.9619   -6679.0441    2.1730614    15.847586   0.11475912 
   25100   -947.46504    42.517686   -904.94736    1522.8293    1171.9464    2.1854191    14.784147   0.12398829 
   25200   -950.84051    42.408754   -908.43176    1518.9278    5519.9719    2.2023508     15.89757   0.10684679 
   25300   -952.34839    38.873844   -913.47454    1392.3201    1384.4101    2.1957692    16.523274   0.10447636 
   25400   -948.35803    43.010887   -905.34715     1540.494   -8896.1554    2.1588201    14.699695   0.11949058 
   25500   -949.20406    43.597288   -905.60677    1561.4968   -1367.6494    2.1806305    15.117689   0.11578008 
   25600   -952.32832      41.9071   -910.42122    1500.9603    11214.121    2.2166841      14.8832   0.11094734 
   25700   -954.40041    42.552678   -911.84773    1524.0826    346.14399    2.1962504    12.244342  0.097614273 
   25800   -946.18062    41.841427   -904.33919    1498.6082   -11181.438    2.1497704    13.777439   0.11531203 
   25900    -948.1957    41.751432   -906.44427    1495.3849   -3671.4157    2.1732519    14.314326   0.12448829 
   26000   -948.52767    41.842793   -906.68488    1498.6571    11354.707    2.2110843    16.101727    0.1197516 
   26100   -944.73636    47.727297   -897.00907    1709.4187    1831.9545    2.1756235    14.590858    0.1236041 
   26200    -949.2854     45.21909   -904.06631    1619.5838   -6003.5513    2.1679725    18.027857   0.10270153 
   26300   -950.26364    43.136853   -907.12678    1545.0056   -2795.4722    2.1804959    15.545685   0.10436484 
   26400   -946.95224    42.088175   -904.86407    1507.4458    6220.5088    2.1981995    13.337376   0.12852931 
   26500   -944.28052    46.546205   -897.73431    1667.1163    494.81502    2.1736099    16.179552    0.1187037 
   26600   -949.03436    42.273475   -906.76089    1514.0826   -2592.2632    2.1796268    14.631616   0.11372439 
   26700   -949.25691    42.649175   -906.60773    1527.5388    651.13663    2.1885091    13.284287   0.11341579 
   26800    -946.1114    44.732954   -901.37844    1602.1722    4621.3959    2.1874327    14.242561   0.10716387 
   26900   -946.27727    46.464591   -899.81268    1664.1931   -3677.2948    2.1666998    15.606781   0.12170068 
   27000   -949.07612    41.598077   -907.47805    1489.8922   -6787.3653    2.1678372    15.735765   0.10807193 
   27100   -950.90324    45.557329   -905.34591    1631.6983    6815.6319    2.2053204    14.553149   0.11698217 
   27200   -947.99067    44.431211   -903.55946    1591.3648    9490.8752    2.2068612    15.400874   0.11238606 
   27300   -941.77906    48.004464    -893.7746    1719.3458   -10584.169    2.1385602    14.759453   0.11688578 
   27400   -950.44437    46.606435   -903.83793    1669.2735    -7475.387    2.1676421     14.09453   0.12292145 
   27500   -950.37717    45.092588   -905.28458     1615.053    5616.7409    2.2030362    14.930377   0.11452098 
   27600   -948.42188    42.319668   -906.10221     1515.737    6575.0465    2.1999409    15.309731     0.114575 
   27700   -945.73561     41.14976   -904.58585    1473.8352   -5506.0641    2.1663224    13.478307   0.13058341 
   27800    -940.8562    43.414911   -897.44129    1554.9647   -7508.5882    2.1486337    16.582743   0.12293271 
   27900   -950.88948     45.52123   -905.36825    1630.4054    5055.5851    2.2030546    15.987489   0.11263543 
   28000   -948.20061    41.851863   -906.34875     1498.982    8929.9926     2.206546    14.173311   0.12549254 
   28100   -949.39125    44.803423   -904.58783    1604.6961   -6691.4834    2.1669148    17.220689   0.10674308 
   28200   -943.57265    45.934833   -897.63782    1645.2192   -11027.433    2.1459484     15.32123   0.11709322 
   28300   -948.93567    42.245936   -906.68973    1513.0962    5600.6567    2.1963319    13.393042   0.10765651 
   28400   -949.19198    42.853485    -906.3385    1534.8564    6552.6688    2.1992528    14.589068   0.11595523 
   28500   -945.45422    43.617138   -901.83708    1562.2077   -1221.1046    2.1702974    13.466763   0.10695135 
   28600   -944.08394    44.681608   -899.40233    1600.3332   -5363.7752    2.1539801    15.064453   0.10182586 
   28700   -949.07015    41.764431   -907.30572    1495.8505    3014.3048    2.1916749    15.833401   0.10471676 
   28800   -951.45185    46.027283   -905.42457    1648.5304    5177.5148    2.1996214    17.516712   0.11251678 
   28900   -947.94796    44.556457    -903.3915    1595.8507   -2665.4233    2.1742047    17.714045   0.11389103 
   29000   -941.45312    48.409475   -893.04365    1733.8518   -5634.2064    2.1497632    16.650266   0.12886916 
   29100    -949.5575    47.459543   -902.09796    1699.8287    5432.6078    2.1913282    15.943594   0.10475992 
   29200   -948.73377    43.790061    -904.9437    1568.4012    1973.1996    2.1862979    13.700883   0.09744566 
   29300   -950.18688    43.113851   -907.07303    1544.1818   -4515.4621    2.1725546    14.320513   0.11388757 
   29400   -949.94614    44.018371   -905.92777    1576.5784   -2399.2944    2.1788675    14.313708   0.10996648 
   29500    -945.1567    47.086812   -898.06988    1686.4789    407.84682    2.1734466    14.645267   0.11911763 
   29600   -948.30689    43.228928   -905.07796    1548.3034    2055.0384    2.1868361    14.172822   0.10545459 
   29700    -951.7142     44.45126   -907.26294    1592.0829   -2437.9679    2.1822446     15.93349   0.09486127 
   29800   -948.47089    45.479191    -902.9917    1628.8997   -2657.0663     2.171265    16.473629   0.11159081 
   29900   -944.70806    44.969999   -899.73806    1610.6623    1015.3264    2.1751985    14.848175   0.11393152 
   30000   -951.85881    45.384039   -906.47477    1625.4917   -90.989654    2.1856779    14.955876   0.12208592 
   30100   -951.50483    45.233129    -906.2717    1620.0867    421.79304    2.1862922    13.944843   0.11506965 
   30200   -941.67028    43.451852   -898.21843    1556.2878    1421.2455    2.1697573    13.370037   0.10335273 
   30300   -943.95545    39.779497   -904.17596    1424.7573    2850.1221    2.1784927    14.890197     0.113163 
   30400   -949.10264    41.892944   -907.20969    1500.4533   -2532.6564    2.1770091    14.209649   0.12009927 
   30500   -948.97986    44.254035   -904.72583     1585.019    1101.1831    2.1830135    13.392066   0.10603768 
   30600    -945.0903    47.839915   -897.25039    1713.4523    3869.2271    2.1778097    14.063725   0.11047132 
   30700   -945.27699    41.226576   -904.05041    1476.5864   -803.35105    2.1758635    14.544358   0.11255186 
   30800   -945.96961     39.21788   -906.75173    1404.6422   -6703.0649    2.1603689    13.973356   0.11575673 
   30900   -948.88211    43.493252   -905.38885    1557.7705     1662.653    2.1842112    15.597107   0.11413592 
   31000   -951.34483    45.394514   -905.95032    1625.8669    7600.5831    2.2044464    15.244922   0.12163791 
   31100    -953.0768    38.668495   -914.40831    1384.9653    3174.9744    2.1996783    13.469388   0.10476494 
   31200   -946.87012    38.439285   -908.43084    1376.7558   -9049.3377     2.158191    16.607409   0.10753074 
   31300   -948.66664    43.067363   -905.59928    1542.5168   -3450.5204    2.1750648    13.876575   0.11014029 
   31400   -952.29414    48.049786   -904.24436    1720.9691    9532.7976    2.2078891    14.113883   0.10689381 
   31500   -950.08447    37.032855   -913.05162    1326.3826    4979.9681    2.1996859    15.914193   0.11362452 
   31600   -946.34729    36.924632   -909.42266    1322.5064    -8090.011    2.1600769    15.483404   0.11643088 
   31700   -948.15793    42.504673   -905.65325    1522.3632   -1615.5544    2.1773011     15.38624   0.11063983 
   31800   -949.15267    44.204618   -904.94806    1583.2491    7495.0664    2.1985812    14.523548   0.12144054 
   31900   -952.93493    39.396729    -913.5382     1411.048    2734.2955    2.1972507    16.550084   0.10457401 
   32000   -952.57587    44.364214   -908.21165    1588.9653   -6717.9283    2.1714176    14.655232   0.11091499 
   32100   -948.68379    43.541157   -905.14263    1559.4863   -109.20605    2.1805926    16.786144   0.12590812 
   32200   -948.99055    42.573215   -906.41734    1524.8182    3893.0932    2.1923072    16.073605   0.10511773 
   32300   -953.83637    39.326317   -914.51005     1408.526    867.32808    2.1967329    15.832649   0.12206411 
   32400   -948.09746    41.799322   -906.29814    1497.1001   -4708.1701    2.1675158    14.065753   0.11394502 
   32500   -949.35673    44.023474   -905.33326    1576.7612    194.37964    2.1832711    15.179351   0.10785407 
   32600   -951.41505    43.501241    -907.9138    1558.0567    4966.5014    2.2013835    16.268906   0.10537265 
   32700   -953.25533    38.169656   -915.08567    1367.0987    2251.5337    2.1966871    15.651753  0.091526088 
   32800   -947.76528    42.012865   -905.75241    1504.7484   -9923.6798     2.152242    16.541574   0.10958946 
   32900   -949.98486    44.311622   -905.67324    1587.0816     1932.024    2.1849923    13.881414   0.10744332 
   33000   -952.60133    46.636427   -905.96491    1670.3477      10395.1    2.2155458    13.390668    0.1066664 
   33100   -949.15594    41.962509   -907.19343    1502.9449   -975.49655    2.1855676    15.525079   0.12436175 
   33200   -956.01952    40.165962   -915.85355    1438.5991    -12133.56    2.1713857    15.455229   0.10947017 
   33300   -954.99226    43.986942   -911.00532    1575.4528   -5326.3287    2.1831573    14.841216   0.11154667 
   33400   -952.24645    45.736661   -906.50979    1638.1213    7645.8484    2.2073744    14.926045   0.10825817 
   33500   -946.57553    42.255266   -904.32026    1513.4304    4413.8743     2.186341    15.515517   0.10432705 
   33600   -943.14867    40.342662   -902.80601    1444.9278   -5764.4189    2.1559079    14.658755   0.10843296 
   33700   -951.97898    39.891389   -912.08759    1428.7649    2528.6227    2.1953067    13.366984  0.093955735 
   33800   -948.94792    42.153042   -906.79487    1509.7691    5300.0785    2.1950472    15.323419   0.10740937 
   33900   -949.78532    45.247567   -904.53775    1620.6038    -1199.246    2.1802077    13.690343   0.11816678 
   34000   -950.75118    40.574387    -910.1768    1453.2274    -2737.048    2.1786681    15.242457  0.097022923 
   34100   -952.14941    41.341576   -910.80784    1480.7053    589.94119    2.1900878    12.592006   0.10628719 
   34200    -950.9503    46.231082   -904.71921    1655.8297    3637.9776    2.1899915    17.220264   0.11007365 
   34300   -950.86248    44.607309   -906.25517     1597.672   -1735.1736    2.1801192    15.292654   0.10453665 
   34400   -955.90156    41.918696   -913.98286    1501.3757   -4389.1958    2.1855579    14.204458   0.11226741 
   34500   -949.57152     43.61642    -905.9551     1562.182   -3311.1524    2.1735781     15.64618  0.097652899 
   34600   -950.33517    45.467816   -904.86736    1628.4923    3589.8452    2.1933521    12.375651   0.11613225 
   34700   -953.95015    44.230583   -909.71957    1584.1791    2552.1511    2.1958727     12.81236   0.10527382 
   34800   -950.44636    38.776377   -911.66998    1388.8292   -3570.7169    2.1784482    15.049657  0.099914626 
   34900   -946.22229    42.835781   -903.38651    1534.2223   -6151.4539    2.1594323    15.891512   0.12618645 
   35000   -950.50109    44.616415   -905.88467    1597.9982    2988.4756    2.1907748    14.798941   0.10359547 
   35100   -948.65889    40.739607   -907.91929     1459.145     9640.836    2.2078389    14.710866    0.1260895 
   35200    -943.9464    45.565614   -898.38079    1631.9951   -3688.4012     2.160163    15.494343   0.12712652 
   35300    -945.1615    41.782802    -903.3787    1496.5085   -4166.2281    2.1600365    17.957766   0.10818017 
   35400   -948.49325    41.303152    -907.1901    1479.3291    4704.1464    2.1902731    13.351403   0.10274582 
   35500   -947.18537    41.560565    -905.6248    1488.5487    11680.932    2.2057293    13.376226   0.11497135 
   35600    -946.9874    49.062605   -897.92479    1757.2446   -6171.8785    2.1569344    16.030722   0.10557443 
   35700   -945.69995    38.646714   -907.05324    1384.1851   -8156.9444    2.1578376    14.248446   0.10691762 
   35800   -951.06082    44.248752   -906.81207    1584.8298      3999.23    2.1966234    14.515085   0.11030926 
   35900   -942.36698    40.092347   -902.27463    1435.9625     18200.37    2.2144368    15.007294   0.10419132 
   36000   -949.22481    47.046235   -902.17857    1685.0255   -8873.7147     2.161683    15.120292   0.11686236 
   36100   -949.36338    39.384136   -909.97924    1410.5969   -9018.3787    2.1603717    12.602226   0.10392404 
   36200   -948.44594    42.369707   -906.07623    1517.5293    5126.7172    2.1944534     14.84034   0.11102419 
   36300   -946.94707     44.20936   -902.73771    1583.4189    8941.9129    2.1986779    14.163418   0.11603983 
   36400   -949.36374    41.678105   -907.68563    1492.7586   -3523.0038    2.1733349    13.830008   0.10370372 
   36500    -955.3086    44.776733   -910.53187    1603.7402   -7476.5593     2.176987    15.604757  0.097269421 
   36600   -950.52284    45.420732    -905.1021    1626.8059    2357.0537    2.1888647    12.644256   0.10706898 
   36700   -948.67704    43.985574   -904.69147    1575.4037    4635.6046    2.1880243    15.913999   0.11012159 
   36800   -954.55352    41.136938   -913.41658    1473.3759   -895.42238    2.1914162    15.508812   0.10239213 
   36900   -951.23861     44.60697   -906.63164    1597.6599   -8971.8435    2.1656218    14.214769   0.11366206 
   37000   -948.39698    43.768896   -904.62808    1567.6431    943.50686    2.1823079    15.487985   0.10894229 
   37100   -951.49782    41.661152   -909.83667    1492.1514    6337.5365    2.2026959    15.111004   0.10628195 
   37200   -951.46549    39.633561   -911.83193    1419.5304     1086.041    2.1883535    16.577593   0.11386591 
   37300   -947.04587     42.64412   -904.40175    1527.3577   -6452.7933     2.160708    14.422688   0.11590442 
   37400   -950.53424    43.997989   -906.53625    1575.8484   -1224.9323    2.1785079    14.415736   0.10865039 
   37500    -951.1495    41.209086   -909.94042      1475.96    9974.8257     2.211792    14.362461   0.11256452 
   37600   -947.15736    45.603814   -901.55354    1633.3632    4256.2249     2.187245    14.016349   0.12208455 
   37700   -947.31829     44.36841   -902.94988    1589.1156   -8861.7517    2.1507978    14.035545   0.11750652 
   37800   -944.84315    37.610214   -907.23293    1347.0615   -3697.4295    2.1642917    16.401371   0.11566625 
   37900   -949.21621    43.590273   -905.62594    1561.2455     13274.02    2.2153345     15.51152   0.12300153 
   38000   -942.10872    45.142158   -896.96656    1616.8284    7651.1411    2.1901227    14.632056   0.13065665 
   38100   -950.20629    45.111602   -905.09468     1615.734   -10494.899    2.1591841    15.447994   0.10675519 
   38200   -947.76935    40.441276   -907.32807    1448.4598   -4607.1417    2.1709741    14.352694    0.1326752 
   38300   -947.92763    44.543769   -903.38386    1595.3963     8897.209     2.202408    12.778282   0.12733211 
   38400   -944.04129    45.931599   -898.10969    1645.1033    5868.5516    2.1832443    16.362471   0.12013376 
   38500   -947.15925    40.001515   -907.15773    1432.7092   -2815.2725    2.1752402    15.202803   0.13336972 
   38600   -949.79786    43.240655   -906.55721    1548.7234   -4443.3492    2.1763698    14.108905   0.13391926 
   38700   -949.39089    47.640614   -901.75027     1706.314    1357.9761    2.1865285    17.107248   0.13403514 
   38800   -947.63566    49.280645   -898.35501     1765.054   -2801.7965    2.1724909    15.263597   0.12595753 
   38900   -948.60279    41.489723   -907.11307    1486.0114   -318.29108    2.1839663    12.935983   0.12103232 
   39000    -947.9296    41.830514   -906.09908    1498.2173    2031.7339    2.1869717    15.779082   0.12614561 
   39100   -948.57585    44.835951    -903.7399    1605.8612    1808.3939    2.1841027    16.501504   0.11911036 
   39200   -943.26996    48.820489   -894.44948    1748.5729   -2088.1407    2.1613787    14.475351   0.12067354 
   39300   -946.72596    42.906504   -903.81946    1536.7554    3017.5043    2.1870117    13.934154   0.11743466 
   39400   -948.89716    43.036936   -905.86022     1541.427    145.85749    2.1832431     14.93894   0.10939183 
   39500   -954.06444    47.213115   -906.85132    1691.0026   -5525.7176    2.1781068    15.680186   0.10481772 
   39600   -952.51146    49.876167    -902.6353    1786.3834   -1178.5995      2.18454    15.341892   0.12304539 
   39700   -942.71419    43.768666   -898.94553    1567.6349    6237.9485    2.1841381    14.800317   0.13063202 
   39800   -949.80608     44.27358    -905.5325    1585.7191   -9070.9273    2.1631203    15.730567   0.11885645 
   39900    -947.6287    40.271797    -907.3569    1442.3897    -5986.639    2.1687775    16.205066   0.11653899 
   40000   -946.16418    43.358426   -902.80575    1552.9416    13711.043    2.2081478     14.55747   0.11724204 
   40100   -946.70543    47.368979   -899.33645    1696.5851    5989.0626    2.1862495    13.903674   0.11073941 
   40200   -951.19358    44.007785    -907.1858    1576.1993   -10823.669    2.1580724    14.935966  0.099837791 
   40300   -947.25668    40.787231   -906.46945    1460.8507   -1952.3065    2.1707536    16.065785    0.1024219 
   40400   -947.11919    46.643881   -900.47531    1670.6147     6922.383      2.19783    14.602779   0.11490545 
   40500   -946.98017    43.571588   -903.40858    1560.5763     3766.579    2.1856353    16.450303   0.10741706 
   40600   -952.09962     43.71229   -908.38733    1565.6157   -10350.631    2.1635089    14.282029   0.10730128 
   40700   -947.85365    42.296807   -905.55684    1514.9182   -1153.9952    2.1783811    18.019567   0.10466495 
   40800   -947.66694    45.993504   -901.67344    1647.3205     6179.088    2.1947178    14.302847   0.10339951 
   40900   -942.35144    47.407284   -894.94416     1697.957     665.6543    2.1690143    20.365875   0.11311968 
   41000   -947.85662    42.965785   -904.89083    1538.8786   -2334.5765    2.1737896    14.340296   0.10705569 
   41100   -947.66529    41.818205   -905.84708    1497.7764   -2742.4946     2.172425     17.91335   0.10437932 
   41200   -949.44089    43.416446   -906.02445    1555.0197    3572.3794    2.1921618    13.038448   0.11492602 
   41300   -954.91065    46.416382   -908.49427    1662.4665    1422.1205    2.2006873    16.507223   0.10633989 
   41400   -953.86522    37.599948   -916.26527    1346.6938   -1047.3227    2.1975293    15.429815   0.11277976 
   41500   -947.76594    40.018813   -907.74713    1433.3288   -9194.0395       2.1575    16.536728  0.099972533 
   41600   -948.78793    42.777705   -906.01023    1532.1423    163.60041    2.1824288    15.696295   0.11585606 
   41700   -950.74684    46.881465   -903.86537    1679.1241    15182.122    2.2229587    12.746879   0.12446382 
   41800   -949.46858     47.57239   -901.89619    1703.8705   -779.32796    2.1780763    16.034291   0.11174429 
   41900   -941.67467    47.099863   -894.57481    1686.9463   -18991.217    2.1130362    16.782515   0.11841802 
   42000   -947.87492    43.136612   -904.73831     1544.997    2032.5545    2.1835974    14.683878  0.097973635 
   42100   -949.74054    44.371298   -905.36925     1589.219    11677.838     2.212311    14.492635   0.11484948 
   42200   -949.47449    41.268845   -908.20564    1478.1004   -170.23863    2.1820896    13.826852   0.11050658 
   42300   -945.66707    46.629031   -899.03804    1670.0828   -6906.2243    2.1496922    14.029083   0.10947384 
   42400   -949.02909    47.040857   -901.98824    1684.8329    3239.9013      2.18695    12.982375   0.10720302 
   42500   -951.43182    45.371776   -906.06004    1625.0525    5380.7589    2.1980706    13.570708   0.10223436 
   42600   -949.17253    41.241505   -907.93102    1477.1212   -1591.9135    2.1749047    13.474185   0.10606128 
   42700   -943.15433    44.549024   -898.60531    1595.5845     -6200.29    2.1528105    14.840446   0.12848787 
   42800   -950.88877    46.197122   -904.69165    1654.6134    2689.0935    2.1944205    14.817859    0.1180974 
   42900   -948.78568    41.590702   -907.19498    1489.6281    4720.8921    2.1937194    15.005955   0.10698581 
   43000   -947.52732    43.386901   -904.14042    1553.9615   -5659.3132    2.1650417    14.084354   0.11793222 
   43100    -945.1701    46.136736   -899.03337    1652.4506   -5150.2984    2.1571098    13.620136   0.11971059 
   43200    -950.7691     42.62901   -908.14009    1526.8165    7723.8542    2.2072586    11.957099   0.10908382 
   43300    -949.5829    44.214103    -905.3688    1583.5888    7549.8523    2.2016492    15.003267   0.11291763 
   43400   -945.26989    42.034053   -903.23584    1505.5073     -7100.11    2.1562615    12.999551   0.12009546 
   43500   -952.74653     40.03107   -912.71546    1433.7678   -6102.9417    2.1745291    14.588429    0.1032405 
   43600   -953.83507    45.623457   -908.21162    1634.0668    6035.3417    2.2024416    13.396045   0.10809603 
   43700    -950.8018    47.258309   -903.54349    1692.6212    7110.6092    2.2009867    12.858967    0.1139189 
   43800   -950.59529    42.258417   -908.33688    1513.5432   -7349.1271    2.1668334    14.593087   0.11061837 
   43900   -950.47044    38.198936   -912.27151    1368.1473   -10716.716    2.1631086     14.92276   0.12246898 
   44000   -949.49942     44.92875   -904.57067    1609.1849     5097.759    2.1958814    14.730222   0.11612452 
   44100   -948.58807    43.805369    -904.7827    1568.9495    16267.016    2.2200501    13.581023   0.13332875 
   44200   -949.31389    38.262035   -911.05185    1370.4073   -5187.9436    2.1732888    14.342922    0.1210365 
   44300   -947.28067    44.774575   -902.50609    1603.6629    -21673.29    2.1239751    16.552765   0.10904751 
   44400   -948.14342    45.071288   -903.07213    1614.2901    6965.7821    2.1980775    15.026391   0.12706908 
   44500   -947.71691    41.624594   -906.09231     1490.842    14445.214    2.2154548    12.078891   0.10705712 
   44600   -949.32039    41.406208   -907.91419    1483.0202   -741.38456    2.1771405    14.877062   0.10522525 
   44700   -945.26471    47.018948   -898.24576    1684.0482    -7991.228    2.1522837    13.823355   0.12525582 
   44800   -949.20425    44.041273   -905.16297    1577.3987    5463.8933    2.1928307    13.390878   0.11912406 
   44900   -945.54276    38.678707   -906.86405     1385.331    9799.5429    2.1985422     15.22582   0.12252859 
   45000   -949.36016    45.868297   -903.49186    1642.8361   -4783.3607    2.1694129    17.116286   0.11166761 
   45100   -944.06403    44.065897   -899.99813    1578.2806   -9028.5581     2.150459    14.970912   0.11513759 
   45200    -950.3333    42.016888   -908.31641    1504.8926    2984.9235    2.1959771    13.140867   0.11845622 
   45300   -949.76538    44.808418   -904.95696     1604.875     8527.977    2.2053502    14.799899   0.11749724 
   45400    -944.1447    42.158362   -901.98633    1509.9596    -2683.867    2.1636671    14.898455   0.11639314 
   45500   -952.65514    41.300517   -911.35462    1479.2347   -6909.2874    2.1709616     14.51303   0.10841451 
   45600   -950.00102    41.915046   -908.08597    1501.2449    927.75606    2.1876098    14.195706   0.10739913 
   45700    -944.5887    41.137643   -903.45106    1473.4012    9114.4568    2.1982614    14.052006    0.1259717 
   45800   -948.98809    40.442015   -908.54608    1448.4863   -819.45353    2.1833424    15.328808   0.11583991 
   45900   -953.90427     42.19329   -911.71098    1511.2106    -10480.84    2.1713499    16.308133   0.11786468 
   46000   -952.64921    47.974089   -904.67512    1718.2579   -2689.7367    2.1798951    16.393794   0.10664267 
   46100   -950.91059     45.47485   -905.43574    1628.7442    6593.6321    2.2049079    13.628285    0.1023243 
   46200   -952.23174    39.496835    -912.7349    1414.6334    2268.4358    2.1998542     13.43803   0.12381439 
   46300   -949.66772    45.566154   -904.10157    1632.0144   -12010.669    2.1546531    14.623791   0.10448145 
   46400   -947.46353    42.991184   -904.47234    1539.7883    502.49566    2.1802287    13.385862   0.10881182 
   46500   -950.58595    42.680787   -907.90517     1528.671    12495.908    2.2154618    15.314082    0.1211467 
   46600   -952.08467    43.300776    -908.7839    1550.8767   -719.86925    2.1919321    15.842237   0.11627126 
   46700   -942.11716     41.05118   -901.06598    1470.3044   -16098.813    2.1271026    14.640977   0.13139536 
   46800   -953.42089    45.785356   -907.63554    1639.8654   -7138.0998    2.1737831    16.673959  0.097968376 
   46900   -951.01903    45.375624    -905.6434    1625.1903    18987.645    2.2338325     13.70044   0.11599053 
   47000   -946.52979    46.420237   -900.10955    1662.6046    2525.6473    2.1854708    15.031528   0.12154182 
   47100   -948.03238    44.049075   -903.98331    1577.6781   -10469.193    2.1561696    14.705485   0.10879588 
   47200   -951.42252    43.316315   -908.10621    1551.4333   -4425.7981    2.1786107    13.435535   0.12819326 
   47300   -947.81562    44.871828   -902.94379    1607.1462    6878.4555    2.1986155    14.577164   0.11535094 
   47400   -946.18415    44.675078   -901.50907    1600.0993    3205.1319    2.1855253    16.312988    0.1069985 
   47500   -948.94683    39.284133    -909.6627    1407.0152    -3627.655    2.1796961    16.541996   0.11103982 
   47600   -950.20571    44.063608   -906.14211    1578.1986   -3467.0445    2.1762909    15.283849   0.10911026 
   47700   -946.14809    44.142516   -902.00558    1581.0248    5319.6181    2.1869339    15.748837   0.11511134 
   47800   -950.19495     39.17359   -911.02136    1403.0559    5885.3863    2.2036732    12.908177   0.11590374 
   47900   -951.32394    43.406174   -907.91776    1554.6517   -6439.7714    2.1690153    13.160958   0.10983201 
   48000    -948.2011    43.926383   -904.27471    1573.2837   -5961.2874    2.1667494     14.79393   0.11190066 
   48100   -950.65662    42.183363   -908.47326    1510.8551    5404.0523    2.2013015    15.390645   0.11365281 
   48200   -952.79618    41.600389   -911.19579    1489.9751    7699.4896    2.2089476    13.888516   0.11522392 
   48300   -947.21554    43.133754   -904.08179    1544.8946   -4140.2387    2.1666882    14.750137   0.12024415 
   48400   -949.37124    42.693111   -906.67813    1529.1124   -7638.9156    2.1639115    16.082027   0.12702186 
   48500   -953.46229    41.935302   -911.52699    1501.9704    5316.8414    2.2055216    15.097669   0.11461599 
   48600   -948.24615    45.730357    -902.5158    1637.8955    7902.2945    2.1980274    15.246137   0.10715882 
   48700   -949.43541    44.869389   -904.56602    1607.0588   -3951.6536    2.1721664    14.463147   0.11575818 
   48800    -949.7726     41.22011   -908.55249    1476.3548   -11124.588    2.1580896    14.193722    0.1245948 
   48900   -951.27556    47.655006   -903.62056    1706.8295    2236.3715    2.1895507    14.554276   0.11677883 
   49000   -948.01201    48.202514    -899.8095    1726.4392    13255.391    2.2120562    13.466988   0.13413787 
   49100   -947.16641    40.620757   -906.54566    1454.8882   -3869.7276     2.171471    14.309884   0.12198065 
   49200   -949.08777    42.217772      -906.87    1512.0875   -14064.301    2.1488715    15.157103   0.11300509 
   49300   -946.38991    46.537071   -899.85284    1666.7891    3939.5483    2.1853849    14.916043   0.11939481 
   49400   -948.07702    43.232999   -904.84402    1548.4493    10458.294    2.2063695    13.509321   0.12327402 
   49500   -949.59605    41.341757    -908.2543    1480.7118   -4126.5376    2.1792815    14.458445   0.12620335 
   49600   -948.40436     43.60188   -904.80248    1561.6612   -3679.2054    2.1708481    14.288007   0.11053516 
   49700   -949.09602    48.011598   -901.08442    1719.6013   -128.22588    2.1785906    14.721686    0.1139301 
   49800   -950.59171    39.796176   -910.79553    1425.3547    6494.2405    2.2059925    14.519428   0.12562217 
   49900   -947.79484    39.797808   -907.99703    1425.4132    -3232.729    2.1767956    13.487859   0.12067194 
   50000   -948.70542    43.996273   -904.70915    1575.7869   -5639.1162     2.167777    16.964469     0.131333 
   50100   -949.74166    45.744409   -903.99725    1638.3988    3127.9211    2.1923874    13.088717    0.1177396 
   50200   -951.98286    39.635361    -912.3475    1419.5949    10412.978    2.2170576    17.543161    0.1292526 
   50300   -947.88795    41.614757    -906.2732    1490.4897   -4925.9717    2.1703321    15.855848    0.1216453 
   50400   -950.87943    45.813262   -905.06617    1640.8649   -9307.7656     2.161184    17.877117   0.11564423 
   50500   -952.56167    41.737296   -910.82437    1494.8786    2424.8641    2.1996864    15.249292   0.11035824 
   50600    -950.6333    40.553396    -910.0799    1452.4756    12401.902    2.2142192    15.278921   0.10900458 
   50700    -947.3895    42.978851   -904.41065    1539.3466   -2198.6758    2.1733384    15.165732    0.1047958 
   50800   -945.95066    38.571296   -907.37936    1381.4839   -7408.1663    2.1584384    16.049711   0.11116401 
   50900   -952.28146    40.874122   -911.40734    1463.9628    3057.1092    2.1964699    13.538003   0.10471402 
   51000   -948.96458    46.874715   -902.08987    1678.8823     6138.645    2.1935352    14.745868   0.10694677 
   51100   -950.08036     45.81835   -904.26201    1641.0471   -654.10557    2.1811651    16.034993   0.11920236 
   51200   -949.22761     40.84798   -908.37963    1463.0265   -4983.5622    2.1736052      15.2452   0.10998442 
   51300   -947.29226    41.496416   -905.79584    1486.2511    3038.4009    2.1845641    16.123419   0.12259673 
   51400   -947.44618    46.924656   -900.52153     1680.671   -807.35043    2.1775276    14.710448   0.11453062 
   51500   -949.03231    42.269617   -906.76269    1513.9444    439.10039    2.1827615    15.321679  0.097507576 
   51600   -954.30289    46.729484   -907.57341    1673.6807   -3238.8816    2.1832223    16.987793  0.099174315 
   51700   -945.39394     46.83628   -898.55766    1677.5057     317.6186    2.1710106    14.493961   0.11832094 
   51800   -949.21666    43.796568   -905.42009    1568.6342    5405.6106    2.1909471    13.412473   0.12236244 
   51900   -949.38055    41.679378   -907.70117    1492.8042     823.7128    2.1839365    14.478843   0.10869648 
   52000   -945.12658    43.143797   -901.98278    1545.2544   -1599.9661     2.170466    13.987498   0.12185664 
   52100   -949.66591    47.199167   -902.46674     1690.503   -1584.7034    2.1776295      16.7279   0.11643201 
   52200   -953.11837    44.626878   -908.49149    1598.3729     882.6192    2.1941777     14.10603   0.11397709 
   52300    -951.0242    46.303883   -904.72032    1658.4372    895.62092    2.1854469    14.959589   0.12173309 
   52400   -950.34133    47.965662   -902.37567    1717.9561   -6265.3047    2.1663241    15.743627   0.11113813 
   52500    -950.9097    39.153411   -911.75629    1402.3332    1721.7732    2.1954917    12.972571   0.10922915 
   52600   -950.79847    44.061247   -906.73723    1578.1141    3871.0846    2.1970295    14.445858   0.10590709 
   52700   -948.31519    44.665196   -903.64999    1599.7453    1752.6268    2.1851843    16.812261   0.10916866 
   52800   -951.75007    41.462033   -910.28804    1485.0197   -8089.5617    2.1693139    13.024851   0.11711551 
   52900    -949.6696    40.064727   -909.60487    1434.9732   -2792.6789    2.1802914    13.732655   0.11841921 
   53000   -950.72967    47.389186   -903.34048    1697.3088    8199.0608    2.2054653     11.26229   0.12914413 
   53100   -949.69156    43.060792   -906.63077    1542.2814    4701.1126    2.1997371    12.187536   0.13486798 
   53200   -950.67246    37.425799   -913.24666    1340.4564   -8491.4871    2.1702266    14.774207   0.11391374 
   53300    -952.5579    47.495042   -905.06286    1701.1002   -8412.3741    2.1664324    14.956526   0.11046458 
   53400   -948.30897    44.010528   -904.29845    1576.2975    10715.171      2.20892    14.040231    0.1158392 
   53500   -951.73066    41.670606   -910.06005      1492.49    6139.6299    2.2078655    13.859556   0.11542679 
   53600   -949.64005    47.279938   -902.36011    1693.3959   -9315.1346    2.1620345    15.427594   0.10731244 
   53700   -949.40179    45.923112   -903.47868    1644.7993   -5850.1036    2.1712154    17.441486   0.11057394 
   53800    -952.3334    44.486099    -907.8473    1593.3308    3866.6453     2.194689    15.120567   0.11073969 
   53900   -949.13578    42.631437   -906.50435    1526.9035    4054.1431    2.1975304    13.968251   0.11424259 
   54000   -941.50261      41.3042   -900.19841    1479.3666   -1289.9538    2.1633085    13.116646   0.12451427 
   54100   -951.33147    43.566784   -907.76469    1560.4042    -3751.278    2.1777351    14.947857   0.10513075 
   54200   -953.66552    47.306331   -906.35919    1694.3412    519.42996    2.1928079    14.330034   0.11007947 
   54300   -944.53482     45.69226   -898.84256    1636.5311    2305.5751    2.1760423     14.40823   0.11355121 
   54400   -950.43516    43.037289   -907.39787    1541.4396   -1038.8007    2.1808473    14.446333   0.11133883 
   54500   -950.95626    43.739713   -907.21654    1566.5979   -4844.7426    2.1742997    14.023415  0.096258723 
   54600    -950.6554    48.948685   -901.70672    1753.1644   -582.31962    2.1812906    13.516667   0.11367043 
   54700   -951.95188    44.471557   -907.48033    1592.8099    3266.9274    2.1964941    14.822387   0.10683641 
   54800   -949.37208    40.148692   -909.22339    1437.9805   -3801.2872    2.1752466    14.108416  0.098237674 
   54900   -948.75591    43.879511   -904.87639     1571.605   -6125.6427    2.1636435    16.283223   0.11669795 
   55000   -950.36176    48.260122   -902.10164    1728.5026     6561.764    2.1997416    13.483824   0.10220651 
   55100    -951.7372    41.121149   -910.61605    1472.8104    16177.542     2.227693    13.229343   0.11571646 
   55200   -949.07334    43.735353   -905.33799    1566.4417   -11811.156    2.1540809    13.852932   0.11467681 
   55300   -947.66526    43.145079   -904.52018    1545.3003   -12422.853    2.1462145    15.138415   0.10497186 
   55400   -953.27311    44.403474   -908.86964    1590.3714    5131.6849    2.2063014    14.782421   0.11188087 
   55500   -950.00525    39.318508   -910.68674    1408.2464    13109.904    2.2218337    13.315571   0.10872642 
   55600   -946.16879    43.433521   -902.73527    1555.6312   -5915.8917    2.1612664    17.702622   0.10574487 
   55700   -948.36559     41.04807   -907.31752     1470.193   -7672.2025     2.162915    15.995356   0.10294996 
   55800   -951.79846    43.440956    -908.3575    1555.8975    3791.2496    2.1983705     14.07286   0.11047451 
   55900    -946.0927    46.932534   -899.16017    1680.9532     4649.468    2.1846603    14.381425   0.10651566 
   56000    -949.3929    43.648375   -905.74453    1563.3265   -3480.8065    2.1757817    12.792304   0.11865404 
   56100   -950.30503    42.049625   -908.25541    1506.0651   -5480.2593    2.1710612     13.16292   0.11545445 
   56200   -945.93989    45.360605   -900.57929    1624.6524    498.64267    2.1781563    14.540306   0.11980753 
   56300   -950.86521    47.252894   -903.61232    1692.4273    5022.2415    2.1958706     12.74808   0.12109201 
   56400   -948.72832    40.608317   -908.12001    1454.4427   -1537.6856    2.1772761    11.815365   0.10735751 
   56500   -948.00041    43.266166   -904.73425    1549.6372   -7129.4865    2.1620113    15.114448    0.1276172 
   56600   -942.04783    43.209427    -898.8384     1547.605    4541.9061    2.1777358    14.341891   0.11730986 
   56700   -954.59866    46.214985   -908.38368    1655.2532    10541.092    2.2176353    14.202338   0.11726113 
   56800   -948.36357    41.832674   -906.53089    1498.2947   -3792.5797    2.1709832    16.256316    0.1015101 
   56900   -947.05753    43.127483   -903.93004      1544.67   -14009.319    2.1417575    13.936428   0.11616682 
   57000   -955.44724    42.830045   -912.61719    1534.0169    1358.2845    2.2003746    12.734759    0.1051543 
   57100   -953.11863    44.451103   -908.66752    1592.0773    10394.021    2.2177597    13.832883    0.1132568 
   57200   -947.12434    42.498023   -904.62632    1522.1251    97.530886    2.1789109    14.030082   0.13091858 
   57300   -950.80269    44.786652   -906.01604    1604.0954   -8233.2701    2.1660809     17.08478   0.11195648 
   57400    -950.7649    37.897721   -912.86718    1357.3589    3310.3173    2.1989185    13.980929   0.12330306 
   57500   -946.13624    41.824022   -904.31222    1497.9848    3847.2718    2.1879766    15.920737    0.1175489 
   57600   -949.21985    43.848903   -905.37094    1570.5087   -702.92835    2.1830886    14.211393   0.12113822 
   57700     -953.622    42.612191    -911.0098    1526.2142    -1769.906    2.1869153    16.220102  0.092621327 
   57800   -949.93913    43.037672   -906.90145    1541.4533    1087.3319    2.1872274    12.761098   0.10787645 
   57900   -944.53359     41.08138   -903.45221     1471.386    4141.6215    2.1863297    16.181252   0.11647855 
   58000   -948.15796    40.893231   -907.26473    1464.6472   -724.00973    2.1805677    12.740664   0.10440764 
   58100   -952.43386    42.694941   -909.73892     1529.178   -3230.5198    2.1791226    16.833325    0.1123481 
   58200    -948.8406    48.795462   -900.04514    1747.6765   -2000.6727     2.170442    13.365272  0.094889157 
   58300   -951.03053    46.571534     -904.459    1668.0234    8015.1347    2.2029474    16.351304   0.11559128 
   58400   -948.99596    41.307507   -907.68846    1479.4851    4055.5859    2.1880623    15.747198   0.10851898 
   58500   -948.33054    46.722164   -901.60837    1673.4185   -10377.604    2.1529747    13.741035   0.11374519 
   58600    -944.0376    42.283207   -901.75439    1514.4311   -461.29371    2.1730832    13.827147   0.12497861 
   58700   -951.59396    44.747977   -906.84598    1602.7103    8514.1835     2.208641    13.943098   0.10896282 
   58800   -947.77131    42.064746   -905.70656    1506.6067    5526.8784    2.1939027    12.892602    0.1056807 
   58900   -943.41517     44.46909   -898.94608    1592.7215   -9484.6368    2.1436664    13.139347   0.11577467 
   59000   -951.17757    42.453747   -908.72382    1520.5392   -3272.6558    2.1774183    13.981009   0.11036875 
   59100   -953.36995    46.452252    -906.9177    1663.7512    8267.6176    2.2120442    13.162527   0.11823686 
   59200   -948.51429    44.431413   -904.08288    1591.3721    4635.6418    2.1914704    14.265222    0.1201078 
   59300   -944.39482    41.888037   -902.50678    1500.2776   -10320.033    2.1440601    14.990517   0.12087912 
   59400   -952.58098    40.749858   -911.83112    1459.5121   -2159.6529    2.1862709    15.547324   0.10918894 
   59500   -949.96334    44.033188   -905.93015    1577.1091    11925.606    2.2112655    13.072143   0.12514771 
   59600   -948.11021     43.93075   -904.17946    1573.4401     3462.843    2.1871579     13.57771   0.11182664 
   59700   -950.67647    41.215994   -909.46047    1476.2074   -7775.4197    2.1642156    15.190344   0.10334627 
   59800   -953.54506    43.094055   -910.45101    1543.4728   -1205.6536    2.1886658    14.147269   0.11121561 
   59900   -948.99913    45.010329    -903.9888    1612.1068     3421.084    2.1912532    15.090758   0.11667041 
   60000   -947.64451    40.698671   -906.94584    1457.6788    1819.4376    2.1835995    16.493754   0.11495388 
   60100   -952.49979    39.396363   -913.10343    1411.0348   -2503.8039    2.1855444    14.510612  0.099304305 
   60200   -947.12294    42.985062   -904.13788     1539.569   -1356.0744    2.1717954    15.327809   0.11217993 
   60300   -949.66756     44.54735   -905.12021    1595.5245    4856.8368    2.1924992    16.287032   0.11697928 
   60400   -951.33326    41.901531   -909.43172    1500.7609    5088.3237    2.1998364    16.956271   0.12185704 
   60500   -947.56399    44.081454   -903.48254    1578.8378   -2702.9448    2.1713528    13.706231   0.12055711 
   60600   -949.68615    47.022819   -902.66333    1684.1869   -5693.8388    2.1699814    12.105716   0.10815815 
   60700   -950.02445    42.938201   -907.08625    1537.8906    552.72319    2.1890344    15.759143   0.11776715 
   60800   -949.83319    42.215619   -907.61757    1512.0104     5633.945    2.1986376     15.58125   0.10601232 
   60900   -945.73824    47.229581   -898.50866    1691.5923   -2863.7493    2.1648567    15.178913   0.11346974 
   61000   -950.54762    44.654007   -905.89361    1599.3446   -7044.9385    2.1713863    14.885175   0.11141434 
   61100   -949.86299    42.248217   -907.61477    1513.1779    1971.2354    2.1890513    13.972291   0.11372402 
   61200   -945.36415    44.723648    -900.6405    1601.8389    8185.2617    2.1959345    13.587795   0.11799996 
   61300   -949.00616    45.068073   -903.93809    1614.1749   -1709.7861    2.1756981     15.63688   0.11471586 
   61400    -951.2201    42.336363   -908.88374     1516.335   -13029.578    2.1571553    16.882034   0.10677709 
   61500   -948.22104    44.152638   -904.06841    1581.3874    340.31207    2.1827618     14.39136   0.11828757 
   61600   -947.54824    44.902449   -902.64579    1608.2429    11133.743    2.2082238    16.208985   0.12235365 
   61700   -948.45005    37.404135   -911.04591    1339.6805    4683.1989    2.1954043    17.273785   0.10533786 
   61800   -946.89594    40.295978   -906.59997    1443.2558   -10188.384    2.1549114    17.298524   0.10799765 
   61900   -944.57442    40.864191   -903.71023    1463.6071   -1362.6327    2.1721258    15.922621   0.11957211 
   62000   -952.47283    41.320086   -911.15275    1479.9356     9138.548    2.2131425    13.177399   0.10125711 
   62100   -947.92931    39.709382   -908.21993    1422.2461    3559.4847    2.1925111    12.811063    0.1038759 
   62200   -947.12267    42.738417   -904.38425    1530.7351   -5570.2692    2.1673179    13.984727   0.11786085 
   62300   -950.34536    42.185387   -908.15997    1510.9276   -2888.8906    2.1780515    15.111512   0.11361036 
   62400   -952.68499    41.787532   -910.89745    1496.6778    5337.8346    2.2040813     17.19703   0.11060712 
   62500   -944.61504    42.262022   -902.35302    1513.6724    1263.9477    2.1809142    13.516121   0.11925336 
   62600   -954.34325    47.661319   -906.68193    1707.0556   -7098.5128    2.1773574    14.877867   0.11019848 
   62700   -952.15629    42.630242   -909.52605    1526.8607   -1868.3157    2.1866729    13.524043   0.11109872 
   62800   -945.81911    45.593406    -900.2257    1632.9905    938.62385    2.1790938    15.364624   0.11090075 
   62900   -949.56718    45.250935   -904.31625    1620.7244    3324.6079    2.1925131    13.662273   0.11763839 
   63000    -951.6438    43.191868   -908.45193    1546.9761   -2288.6867    2.1838022    14.497942   0.10644373 
   63100   -947.19095    45.542003   -901.64894    1631.1494   -2038.8703    2.1716036    15.506816   0.10333048 
   63200   -946.36431    43.720329   -902.64398    1565.9036    881.26679    2.1805133    15.245262   0.11468107 
   63300   -951.35249     43.11202   -908.24047    1544.1162    760.03734    2.1907069    14.378517   0.10931211 
   63400   -950.70557    46.441752   -904.26382    1663.3751    524.52293    2.1845289    14.710065   0.10826943 
   63500   -946.69766    46.398242   -900.29942    1661.8168   -2968.6221    2.1719211    13.219954    0.1282026 
   63600   -952.09457    42.438196   -909.65638    1519.9823    2431.2892    2.1962761    13.510798   0.12005749 
   63700   -949.44974    43.308259   -906.14148    1551.1448   -194.11103    2.1866731    14.443851   0.12135269 
   63800   -950.54069    47.860594    -902.6801    1714.1929   -6493.4614    2.1678145    13.928329   0.11036015 
   63900   -952.96444    41.515492   -911.44894    1486.9344   -756.30215    2.1889578    16.409743  0.094643224 
   64000   -950.71319    42.374195     -908.339      1517.69    5379.8985    2.2008186    13.434572   0.12199904 
   64100   -948.36871    45.008668   -903.36004    1612.0473    1808.0219      2.18556    15.804845   0.11091543 
   64200   -950.31751    42.608224   -907.70928    1526.0721   -9061.5204    2.1656084    14.599514   0.10617451 
   64300   -950.49344    39.668759   -910.82469    1420.7911   -1805.8839    2.1877434     12.90237   0.12842552 
   64400   -945.60314    42.919279   -902.68386    1537.2129    7320.2655    2.1968758    15.040661   0.11424501 
   64500   -949.37249    42.624984   -906.74751    1526.6723    2066.3408    2.1889643    15.895348   0.11988449 
   64600   -951.47398    39.987398   -911.48658    1432.2036   -6912.3749    2.1737081    14.558238   0.12181903 
   64700   -945.37225    42.793579   -902.57867    1532.7108   -4165.9351    2.1656482    13.962957   0.11943309 
   64800   -949.86752    45.072914   -904.79461    1614.3483    7500.4233     2.203722    12.599602    0.1206619 
   64900   -952.12305    42.934072   -909.18897    1537.7428    3953.0608    2.2005363    15.720329   0.11542152 
   65000   -946.40926     45.38297   -901.02629    1625.4534   -8199.8989    2.1544106    14.209294   0.12897751 
   65100   -949.19792    44.641763   -904.55615     1598.906   -4425.9264    2.1702841    13.035035   0.11312692 
   65200    -949.4859    41.818948   -907.66695     1497.803    8309.6806    2.2053711    14.012079   0.11567215 
   65300   -947.82615    45.024062   -902.80209    1612.5986    4671.3789    2.1923627    11.206268   0.12449291 
   65400   -947.31746    45.153867   -902.16359    1617.2478   -8220.7795    2.1560229    15.238209   0.11745984 
   65500   -950.08591    40.785746   -909.30016    1460.7975   -4711.3131    2.1781706    12.168943   0.12303434 
   65600   -948.92135    45.057708   -903.86364    1613.8037    8341.9984    2.2046115    13.626192   0.13130472 
   65700   -947.12494    44.845147   -902.27979    1606.1905    3823.8832    2.1893674    13.431445   0.13145036 
   65800   -951.31766    40.519327   -910.79833    1451.2553   -4830.4252    2.1786464    14.218602   0.12241517 
   65900   -946.92324    40.588846    -906.3344    1453.7453   -4585.5822    2.1713932    14.978659   0.13655028 
   66000   -945.77013    43.604272   -902.16585    1561.7469    5037.7348    2.1890453    14.030923   0.12847166 
   66100   -950.72461    40.016186   -910.70843    1433.2347    5463.5224    2.2041744    12.850353   0.12856712 
   66200    -949.0678    42.491313   -906.57649    1521.8848   -3223.1324    2.1769683    14.240719   0.11780687 
   66300    -945.6502    42.204003    -903.4462    1511.5943   -760.51768    2.1724403    14.559503    0.1058564 
   66400   -949.52936    39.852809   -909.67655    1427.3831    1577.1224    2.1921332    12.947768   0.12933775 
   66500   -951.92889    44.039078   -907.88981    1577.3201    655.02765    2.1929049    14.580839   0.12399051 
   66600   -947.64208    44.949424   -902.69266    1609.9253   -1900.3814    2.1741077    14.605274    0.1238172 
   66700   -951.36937    43.296145   -908.07322    1550.7109   -2399.0426    2.1813947    17.555252   0.11969205 
   66800   -950.72673    42.629378   -908.09735    1526.8297   -14.350213    2.1920549    16.238557    0.1265249 
   66900   -944.12449    43.844068   -900.28042    1570.3355   -735.00821     2.176285    13.982457   0.14091158 
   67000   -948.65078    41.379679    -907.2711    1482.0701   -56.113366    2.1850899    11.943494   0.13494589 
   67100   -949.81361     42.41708   -907.39653     1519.226    1018.7512    2.1894736    14.189397   0.12007941 
   67200   -946.63171     47.64832   -898.98339      1706.59   -65.508577    2.1760269    13.426188   0.11789021 
   67300   -947.27704    40.560376   -906.71667    1452.7256     1858.959    2.1907663    13.719879    0.1214273 
   67400   -948.49083    40.805931    -907.6849    1461.5205   -2801.2075    2.1810756    15.898157    0.1322715 
   67500    -944.0002    42.835733   -901.16447    1534.2206   -486.07634    2.1724325    15.230264   0.13243915 
   67600   -955.71046     47.78232   -907.92814    1711.3894    554.45428    2.1972579    14.765756   0.10371645 
   67700   -952.55283    43.947582   -908.60525     1574.043   -521.48735    2.1889856    13.575784   0.11370776 
   67800   -946.09795    42.422145   -903.67581    1519.4074   -3126.8886    2.1716819    15.270081   0.12862407 
   67900   -951.06256    45.876152    -905.1864    1643.1174   -2615.3464    2.1809392    14.690535   0.12662885 
   68000   -952.75996    42.034427   -910.72553    1505.5207    4569.7337    2.2064846    14.013048   0.13191142 
   68100    -946.8272    42.978356   -903.84884    1539.3288    3954.4073    2.1876909    13.861639    0.1095712 
   68200   -950.25077    44.725897   -905.52487    1601.9194   -8460.7021    2.1652646    15.064747   0.11525622 
   68300   -953.44067    40.668325   -912.77235    1456.5919   -2966.5385    2.1891941    15.948077    0.1060734 
   68400   -950.06673    45.305935    -904.7608    1622.6943    6733.0467    2.2011798    15.183858   0.12527211 
   68500   -948.25987    43.582651   -904.67722    1560.9725    5486.1052    2.1965149    14.427747   0.12698325 
   68600   -953.79026    42.672294   -911.11797    1528.3668   -6214.2002    2.1756925    14.353495  0.099222793 
   68700    -949.2701      44.3747    -904.8954    1589.3408   -5976.6535    2.1661498    16.112178   0.11394959 
   68800   -947.70529    44.674949   -903.03034    1600.0947    8849.5566    2.2024762    14.579577   0.11786529 
   68900   -952.17803    44.557652   -907.62038    1595.8935    5492.7899    2.2044373    14.496363   0.13175735 
   69000   -951.11519    43.972731   -907.14246    1574.9438   -10032.626    2.1630761    16.367943   0.11716169 
   69100   -947.46946    47.337955   -900.13151    1695.4739   -11118.085    2.1505532    14.814218    0.1336189 
   69200   -950.55313    43.528277   -907.02486     1559.025    6061.4815    2.2046253    14.489982   0.11089756 
   69300   -954.35275    47.157307   -907.19544    1689.0037    5969.2235    2.2070201    15.163075   0.10696366 
   69400   -948.33033    47.958733   -900.37159    1717.7079   -4785.0843    2.1635752    18.087878   0.11179718 
   69500   -949.98914    42.374906   -907.61424    1517.7155   -4440.0037    2.1740521    17.817572   0.11932697 
   69600   -950.46925     42.63511   -907.83414     1527.035     954.9538    2.1893823    15.304901   0.11893867 
   69700   -949.31927     46.90404   -902.41523    1679.9326    2553.0735    2.1877802    15.032047   0.10579485 
   69800   -949.60402    42.952888   -906.65114    1538.4167   -2887.1038    2.1780644    15.352943    0.1171929 
   69900   -950.82311    40.864681   -909.95842    1463.6247    -2116.298    2.1829895    15.381328   0.11324644 
   70000   -949.81375    45.985257   -903.82849    1647.0252   -54.921121    2.1852842    14.943014   0.12918895 
   70100    -950.5853    44.082838   -906.50246    1578.8874   -335.09502    2.1889993    15.078534   0.12706525 
   70200   -951.20095    39.244629   -911.95632    1405.6003   -611.26712    2.1881213    14.463594   0.11710634 
   70300    -947.2592    43.214219   -904.04498    1547.7766   -2973.7798      2.17274    14.826315   0.11754793 
   70400   -949.07312    43.286888   -905.78623    1550.3794    1906.6847    2.1890511    15.151339   0.11444774 
   70500   -950.90396    39.488215   -911.41574    1414.3247     6894.767    2.2044719    16.061605   0.11697724 
   70600   -944.36062    41.975292   -902.38533    1503.4027   -3796.5998    2.1645171    16.525455   0.11646476 
   70700   -949.01196    43.674094   -905.33787    1564.2476   -6316.1401    2.1681904     15.06169   0.11090605 
   70800   -951.04673    42.532741   -908.51399    1523.3685    6275.6576    2.2021202    14.736814   0.10049241 
   70900   -947.12975    44.362282   -902.76746    1588.8961    9674.1003    2.1998527    13.868128   0.12276728 
[...]
  186800   -950.33703    44.747526    -905.5895    1602.6941    6005.0087    2.2007673    28.255632   0.10396523 
  186900   -956.43444    45.740536    -910.6939    1638.2601   -2875.2102    2.1915654    33.474342   0.11088956 
  187000   -950.01833    43.084902   -906.93343    1543.1449   -5505.2371    2.1685291    30.554567   0.10993437 
  187100   -945.34489    41.049374   -904.29552    1470.2397    1202.7074    2.1780632    29.121457   0.11541046 
  187200   -953.29897    42.757448   -910.54152    1531.4167    7139.9484    2.2093769    31.558277   0.11330094 
  187300   -952.02972    41.124345   -910.90537    1472.9249   -830.07672    2.1877876    30.577271    0.1012719 
  187400   -950.44841    44.777625   -905.67079    1603.7721   -10325.588    2.1577262    29.181179   0.12027093 
  187500    -950.1464    45.001727   -905.14468    1611.7986   -1801.5469    2.1796445    29.605833   0.12016059 
  187600   -950.55359    38.199767   -912.35382    1368.1771    15367.351    2.2250563    31.006728   0.12087584 
  187700   -948.34259    42.048156   -906.29444    1506.0125    1158.9623    2.1858869    30.513554   0.11119083 
  187800   -948.95975    43.964693   -904.99505    1574.6559   -12032.245    2.1548038    30.331886   0.11862238 
  187900   -950.74769    44.078648   -906.66904    1578.7373   -1174.9764    2.1821179    31.879929   0.10781883 
  188000   -953.74242    41.694038   -912.04839    1493.3293    10613.262    2.2218336    30.197264   0.10543552 
  188100   -947.52601    43.212765   -904.31324    1547.7245    1970.0852    2.1872424    29.378762   0.12028286 
  188200     -948.795    44.387163   -904.40784    1589.7872   -6968.7478     2.163919     29.38207   0.10961432 
  188300   -950.46449    43.602084   -906.86241    1561.6685   -4447.4567     2.176666    33.520697   0.11735057 
  188400   -950.79192    42.826792   -907.96513    1533.9004    6589.8461    2.2041651     28.78939   0.11412499 
  188500   -944.17018    46.167158   -898.00302    1653.5402    957.27742    2.1729669    30.406489   0.13235932 
  188600   -945.30572    40.953607   -904.35211    1466.8097   -1981.9121    2.1717132    30.516317   0.10956917 
  188700   -949.89961    42.511301   -907.38831    1522.6006   -455.70268    2.1836848    31.384903   0.11710291 
  188800   -950.17696    44.695014   -905.48195    1600.8133    2593.3437    2.1920439    30.318188   0.11641514 
  188900   -939.57942    40.870798   -898.70862    1463.8438    413.47276    2.1635975     31.17462   0.12378145 
  189000     -948.423    41.312258   -907.11074    1479.6553    -8820.076    2.1625954    30.751477    0.1235729 
  189100   -948.63658    42.528895   -906.10768    1523.2308    8904.7747    2.2047512    30.669931   0.10679744 
  189200   -948.96704    46.451329   -902.51572    1663.7182    13144.628    2.2130412    29.903216   0.12620696 
  189300   -943.42531    43.698957   -899.72635    1565.1381   -11481.428    2.1422998    31.075562   0.13185128 
  189400   -950.32637    41.890005   -908.43637     1500.348   -10766.516    2.1592627    30.145423   0.10387033 
  189500   -947.08344    41.696753   -905.38668    1493.4265    12348.557    2.2064591    28.284894   0.11210795 
  189600   -951.09429    48.222262   -902.87203    1727.1465    6291.4901    2.2011386    29.990851   0.11111164 
  189700   -941.96719    45.927696    -896.0395    1644.9635   -7392.7547    2.1444299    33.262758   0.12023495 
  189800   -949.13398    42.314911   -906.81906    1515.5667   -5397.3856    2.1729197    31.631816   0.12089392 
  189900   -950.83456    44.397614   -906.43694    1590.1615    4983.2535     2.197742    31.670154   0.11759293 
  190000   -950.38479    44.869652   -905.51514    1607.0682    4139.5636    2.1947891    30.039204    0.1068843 
  190100   -941.45527    39.880965    -901.5743    1428.3915    -564.4526    2.1632018    26.891474   0.11887662 
  190200   -943.91746    47.037211   -896.88025    1684.7023   -7085.4954    2.1500821    30.890123   0.10962451 
  190300   -949.95176    44.678924   -905.27284     1600.237    3978.2587     2.192883    33.393541   0.11447153 
  190400   -949.81326    43.955392   -905.85786    1574.3227    7628.4624    2.2049295    31.516994   0.11886351 
  190500   -949.21862    40.446205   -908.77242    1448.6364   -3364.6745    2.1745931    33.175615   0.10731231 
  190600   -954.47469    37.522808   -916.95188    1343.9309   -8034.7475     2.177878    28.416125   0.10890713 
  190700   -948.49746    39.611267   -908.88619    1418.7319    1955.1057    2.1906566    30.640521    0.1186256 
  190800    -950.9848    45.195036   -905.78976    1618.7223    7659.9794    2.2050822     32.11249   0.12161539 
  190900   -947.85713    42.330737    -905.5264    1516.1335   -634.36686    2.1774525    30.123704   0.11557003 
  191000    -944.3867    45.140163   -899.24654     1616.757    -7255.122    2.1491873    31.850779   0.11991286 
  191100   -947.36556    48.622899   -898.74266    1741.4959   -757.00308    2.1703598    31.327424   0.10515673 
  191200   -949.70308    45.381017   -904.32206    1625.3835    5930.7504    2.1984361    28.617166   0.10776835 
  191300   -951.45489    45.131185    -906.3237    1616.4354    714.66588    2.1905645    30.487815   0.11575355 
  191400   -947.63208    39.216224   -908.41585    1404.5829   -11179.929    2.1547458     30.19723   0.12333136 
  191500   -956.37602    38.773605   -917.60242    1388.7299    -4348.311    2.1910212    29.036419   0.11436471 
  191600   -952.75931    43.125265   -909.63405    1544.5906    16285.501    2.2338562    26.424866   0.11446509 
  191700   -947.23093    40.973868   -906.25707    1467.5354    7859.2053    2.1979367    31.107741   0.12514208 
  191800   -947.83125    41.882987   -905.94827    1500.0967   -13494.017    2.1476694    32.238305   0.11220203 
  191900   -947.44286    45.439278   -902.00358    1627.4701    -6293.091    2.1660671    32.942231   0.12812308 
  192000   -945.21612    51.009241   -894.20688     1826.966    8858.6019    2.1894527     30.59041   0.12335594 
  192100   -946.09363    42.575396   -903.51824    1524.8963    7184.8933    2.1956332    28.229177   0.12295278 
  192200   -947.39714    41.413408   -905.98373    1483.2781   -5346.3209    2.1658319    31.531203   0.12014389 
  192300   -948.31741    41.661454   -906.65595    1492.1622   -4861.0857     2.173104    26.864961   0.10594429 
  192400   -952.07245    36.673808   -915.39864    1313.5228    5989.2948    2.2108945    28.458047   0.11894195 
  192500   -950.15124    40.730701   -909.42054     1458.826    3523.5356    2.1948863    28.440168   0.11955219 
  192600   -945.01419    38.950319   -906.06387    1395.0592    161.94753    2.1787321    30.874691    0.1240711 
  192700   -949.81748    44.309322   -905.50816    1586.9992   -3935.2719    2.1765264    30.008411   0.11920937 
  192800    -951.3234    39.439139   -911.88427    1412.5669    2341.5872    2.1970926     34.55849   0.10800355 
  192900   -949.47603     38.28571   -911.19032    1371.2553    5011.1807    2.2012265    30.245311     0.116909 
  193000   -948.07851    42.391568   -905.68694    1518.3122    723.20665    2.1861189    31.262918   0.13404612 
  193100   -947.83431     41.83499   -905.99932    1498.3776   -7371.9601     2.163709     28.07712    0.1160584 
  193200   -953.53603    40.687677   -912.84835     1457.285   -1642.5385    2.1893492     28.30773   0.10136239 
  193300   -954.04465    43.927749    -910.1169    1573.3326    8899.5818     2.216595    27.593282   0.10782245 
  193400   -949.53193    44.634987   -904.89694    1598.6634    5055.9648    2.1956696     29.89464   0.11337367 
  193500   -949.99563     43.15742   -906.83821    1545.7423   -12107.967     2.153572    30.334809   0.11760146 
  193600   -951.62541    40.231381   -911.39403    1440.9422   -6418.2767    2.1752973    30.996757   0.11328618 
  193700   -954.67276    42.472246   -912.20052    1521.2018    13483.175    2.2270356    31.164573   0.11082262 
  193800   -950.99791     45.74791      -905.25    1638.5242    4232.2873    2.1934182    32.367019   0.11043348 
  193900   -947.46362    41.166234   -906.29738    1474.4252   -9019.7176    2.1583998    32.450838   0.12632697 
  194000   -947.54872    41.671484   -905.87723    1492.5214   -3449.3114    2.1746324    32.168776   0.11467401 
  194100    -946.3389    46.057711   -900.28118    1649.6202    9684.3956    2.2011027    29.982955   0.12252226 
  194200   -945.61148    47.194971   -898.41651    1690.3527    741.97857    2.1745556    26.162968   0.11918241 
  194300   -948.92556    44.557921   -904.36764    1595.9031   -7558.6902    2.1625395    32.192202   0.11260384 
  194400   -946.65286    39.675199   -906.97766    1421.0218    1736.0918    2.1826308    31.112265   0.12105605 
  194500   -946.43576    39.360183   -907.07558     1409.739     9863.123     2.204048    32.201212   0.11630322 
  194600   -944.70658    46.735881    -897.9707    1673.9098   -1540.8035    2.1694511    31.481748   0.12440572 
  194700   -950.18844    44.761794   -905.42664    1603.2051   -5370.8255    2.1716125    31.012519   0.11978931 
  194800   -949.54858     42.42046   -907.12812     1519.347    1506.9568    2.1869121    28.833177   0.11757053 
  194900   -946.00119    43.675775   -902.32541    1564.3079    6730.9484    2.1925661    32.692497   0.11440243 
  195000   -945.18221    44.885032   -900.29718    1607.6191   -2328.1596    2.1659907    32.642897   0.11904521 
  195100   -949.79385    42.073538   -907.72031    1506.9216   -6746.9216     2.166872    30.691169   0.11820972 
  195200   -948.95157    43.457544   -905.49402    1556.4916    2594.8292    2.1910519    31.600926   0.10544572 
  195300   -946.45878    46.281973   -900.17681    1657.6524    11112.365    2.2015352    31.632453   0.12062558 
  195400   -946.37989    45.150851   -901.22904    1617.1397   -7863.7775    2.1557034    29.799095   0.11743556 
  195500   -948.85116    41.040946   -907.81021    1469.9379   -15701.146    2.1443209    31.120068   0.12182615 
  195600   -950.97444    45.236671   -905.73777    1620.2135    9241.7684    2.2088365    33.328685    0.1172188 
  195700   -948.05543    44.006676   -904.04875    1576.1596    16496.061     2.219551    29.206325   0.11047657 
  195800   -943.09473    47.202794   -895.89193    1690.6329   -6146.4699    2.1501268    33.244208   0.12810317 
  195900   -949.51686    44.434479   -905.08238    1591.4819   -6429.1002    2.1664698    30.508764   0.12340309 
  196000   -950.75856    44.633395   -906.12516    1598.6063   -89.913852    2.1891075    33.123133   0.12015429 
  196100   -948.97571    43.476996   -905.49871    1557.1883    3568.5642    2.1910414    29.023586   0.11946031 
  196200   -947.85327    48.975525   -898.87774    1754.1257   -4191.0043    2.1664273    33.295734   0.10786086 
  196300   -947.04664    45.923685   -901.12295    1644.8199   -4190.7573     2.165231    31.769187   0.12394897 
  196400   -950.05037    43.904172   -906.14619    1572.4882   -323.66325     2.184985    35.127656   0.12460441 
  196500   -948.68298    42.814711   -905.86827    1533.4677    6149.9992    2.1968083    31.517917   0.12360296 
  196600   -945.86045    43.794216   -902.06624      1568.55    217.84594    2.1756804    32.528661   0.12359455 
  196700   -944.65458    46.057333   -898.59725    1649.6067   -9502.7883    2.1479446    28.654528    0.1241051 
  196800   -948.19282     41.83006   -906.36276     1498.201    931.30637    2.1823616    28.734667   0.11995021 
  196900   -947.20059    41.421017   -905.77957    1483.5506    12829.405    2.2130091    28.976416   0.11486699 
  197000   -948.10822    41.301221     -906.807      1479.26    4142.2309    2.1893165    31.152611   0.11908654 
  197100   -952.26432    39.497219    -912.7671    1414.6471    -14511.88    2.1547938    33.713408   0.10346624 
  197200   -952.67477    39.416755   -913.25801    1411.7652    -1739.667    2.1857464    32.075146   0.11730721 
  197300     -953.618    46.422571   -907.19543    1662.6881    11094.483    2.2171842    30.155169    0.1094994 
  197400   -950.44532    45.329646   -905.11568    1623.5435    1878.0649    2.1864572    31.731064   0.11125787 
  197500   -950.96852    45.918451   -905.05007    1644.6324   -8862.8275    2.1644071    32.217911   0.11781598 
  197600   -951.78819    38.264638   -913.52355    1370.5006    1925.5129    2.1972869    30.780434   0.10734259 
  197700     -949.915    43.514852   -906.40014    1558.5442    3197.0396    2.1925502    34.116603   0.12606969 
  197800   -951.35716    46.731256   -904.62591    1673.7441   -480.09304    2.1827709    29.340241   0.10860608 
  197900   -954.68455    44.125482   -910.55906    1580.4148   -6727.7395    2.1805676    32.603702   0.10856281 
  198000   -952.34343    41.925719   -910.41771    1501.6272    246.93647    2.1885396    30.545834   0.10688284 
  198100   -949.17031    44.883624   -904.28669    1607.5686    4044.9884    2.1944546     33.19652   0.12036106 
  198200    -948.4865    41.634311   -906.85219      1491.19     433.2826    2.1871067    31.379184   0.11490077 
  198300   -951.64754    38.664837    -912.9827    1384.8342   -5208.4845    2.1788818     32.87978   0.10790766 
  198400   -951.36954    44.893933    -906.4756    1607.9379   -2304.0969    2.1842372    32.620741   0.11356318 
  198500   -950.66423    46.243555   -904.42068    1656.2764    8270.4939    2.2075669    33.015677   0.12924774 
  198600   -953.38792    46.094343   -907.29358    1650.9322   -2599.3104    2.1869481     30.64541   0.12398516 
  198700   -947.77975    40.563242   -907.21651    1452.8282   -12284.235    2.1507522    31.586057   0.10718009 
  198800    -944.4049    45.990218   -898.41468    1647.2028    -4458.243    2.1583715    31.602711   0.11753267 
  198900   -951.81588    47.812403   -904.00347    1712.4669    15578.168    2.2229839    32.931286   0.11088123 
  199000   -949.09367    42.076089   -907.01758    1507.0129    3871.8895    2.1957366    35.560532   0.11172127 
  199100   -947.33376    42.746335   -904.58743    1531.0187    -9852.775    2.1559012    33.758009   0.12725534 
  199200   -942.81331    45.553036   -897.26027    1631.5446   -3325.8344    2.1620001    32.666311   0.12455526 
  199300   -950.91319    45.166077   -905.74711    1617.6851    6811.2098    2.2005924    20.808917   0.11876689 
  199400   -948.26568    43.453045   -904.81263    1556.3305    5841.5776    2.1919953    14.205361   0.13252966 
  199500   -943.25718    44.093837   -899.16334    1579.2814   -2039.5801    2.1616873    10.126934   0.14483071 
  199600   -945.91857    43.392949   -902.52562    1554.1781    -4031.531    2.1663661    11.654321   0.12627591 
  199700   -952.37551    45.877872   -906.49764     1643.179    335.60225     2.191308    12.304975   0.14150717 
  199800   -951.96742    47.614489   -904.35293    1705.3783    2903.4326    2.1946281    14.135585   0.13068138 
  199900   -945.26742    44.376588   -900.89083    1589.4085   -2175.8902    2.1680484     25.65937   0.12002083 
  200000   -938.91458    44.809984    -894.1046    1604.9311   -5190.8424    2.1480886    26.761029   0.15471014 
  200100   -950.26083    45.569726    -904.6911    1632.1423    5716.8124    2.1997494    33.083204   0.11668832 
  200200   -949.64615    44.261103   -905.38504    1585.2722    6501.3037     2.201393    26.185956   0.10796292 
  200300   -947.10257    39.261114   -907.84146    1406.1907   -6755.6474    2.1632106    28.577001   0.10654718 
  200400   -948.39976     46.01416    -902.3856    1648.0603   -9368.9622    2.1582125    31.695389   0.11960668 
  200500   -945.86221    45.899106    -899.9631    1643.9395    9283.2088    2.1969575    29.015848   0.11704924 
  200600    -945.4682    40.549217   -904.91899    1452.3259    7452.7062    2.1941751    30.211426   0.11369415 
  200700   -947.61314    39.674777   -907.93836    1421.0066   -7609.1556    2.1623506    29.754346   0.12177701 
  200800   -944.83925    43.613503   -901.22575    1562.0775   -3254.6572    2.1644527    26.950265   0.10940548 
  200900    -948.6005    47.215064   -901.38544    1691.0724    5918.1988    2.1931801    29.595006   0.11701881 
  201000   -952.26235    45.217885   -907.04447    1619.5407   -453.73535    2.1883956    30.505709   0.11198113 
  201100   -949.07729    42.962978   -906.11431    1538.7781   -4005.5985    2.1707247    30.115555   0.10576624 
  201200   -942.94658    44.839773    -898.1068     1605.998   -1291.4622    2.1684321    26.704399   0.13581899 
  201300   -950.16645    43.676701   -906.48974    1564.3411    2912.4604    2.1920086    28.815157   0.10694068 
  201400   -949.90815    42.743271   -907.16488     1530.909    812.29576    2.1817997    31.694879   0.10934248 
  201500    -945.9723       42.418    -903.5543    1519.2589   -1974.0055    2.1725976    31.522108   0.12000172 
  201600   -944.06379    46.237908   -897.82588    1656.0742    875.37436     2.174629     34.96803   0.12066437 
  201700   -949.83222    42.049725    -907.7825    1506.0687    6961.3161    2.2027698    31.558556   0.11557446 
  201800   -946.86623    40.223817   -906.64241    1440.6713   -1636.2511    2.1754035    34.341073   0.12306195 
  201900   -944.60892    40.187321    -904.4216    1439.3641    -3526.504    2.1645111    31.030229   0.11282211 
  202000   -950.45188    40.912163   -909.53972    1465.3253    1825.9972     2.194692    33.051769    0.1218549 
  202100   -951.63889    40.421243   -911.21765    1447.7423    8316.1711    2.2099409    31.385403   0.10483618 
  202200   -950.48236    44.725145   -905.75721    1601.8925   -1904.8083    2.1813166    30.467561   0.11305771 
  202300   -950.98007    45.489209   -905.49087    1629.2585   -10800.748    2.1575359     30.92858   0.11217933 
  202400   -953.34446    39.965138   -913.37932    1431.4063   -29.238812      2.19323     35.16076   0.10699788 
  202500   -952.18689    43.606754   -908.58014    1561.8358    8875.7449    2.2093458    31.511602   0.10244908 
  202600   -945.91767    41.384976    -904.5327    1482.2598    4841.7182    2.1839572    30.538777   0.11302762 
  202700   -949.50595    41.826145   -907.67981    1498.0608   -13130.987    2.1483124    33.845475   0.10320856 
  202800   -954.13603    40.944605   -913.19142    1466.4873   -3217.5072    2.1856964    30.983995   0.10500015 
  202900   -948.22824    42.283483   -905.94476     1514.441    17068.157    2.2206353    31.863638   0.11902162 
  203000   -947.94607    43.298068     -904.648    1550.7798    4927.9581    2.1932081    32.497019   0.10777372 
  203100   -950.14835     42.60799   -907.54036    1526.0637   -10393.154     2.157724    32.165052   0.11980312 
  203200   -951.41807    46.183188   -905.23488    1654.1143   -3993.3961    2.1742401    30.212961  0.099576423 
Loop time of 141.769 on 1 procs for 200000 steps with 217 atoms

Performance: 365.665 ns/day, 0.066 hours/ns, 1410.746 timesteps/s
100.0% CPU use with 1 MPI tasks x no OpenMP threads

MPI task timing breakdown:
Section |  min time  |  avg time  |  max time  |%varavg| %total
---------------------------------------------------------------
Pair    | 137.83     | 137.83     | 137.83     |   0.0 | 97.22
Neigh   | 0.84195    | 0.84195    | 0.84195    |   0.0 |  0.59
Comm    | 0.86364    | 0.86364    | 0.86364    |   0.0 |  0.61
Output  | 0.069764   | 0.069764   | 0.069764   |   0.0 |  0.05
Modify  | 1.8576     | 1.8576     | 1.8576     |   0.0 |  1.31
Other   |            | 0.3015     |            |       |  0.21

Nlocal:    217 ave 217 max 217 min
Histogram: 1 0 0 0 0 0 0 0 0 0
Nghost:    957 ave 957 max 957 min
Histogram: 1 0 0 0 0 0 0 0 0 0
Neighs:    4136 ave 4136 max 4136 min
Histogram: 1 0 0 0 0 0 0 0 0 0
FullNghs:  8272 ave 8272 max 8272 min
Histogram: 1 0 0 0 0 0 0 0 0 0

Total # of neighbors = 8272
Ave neighs/atom = 38.1198
Neighbor list builds = 1420
Dangerous builds = 8
Total wall time: 0:02:24
