LAMMPS (3 Mar 2020)
Reading data file ...
  orthogonal box = (0 0 0) to (17.469 17.469 17.469)
  1 by 1 by 1 MPI processor grid
  reading atoms ...
  217 atoms
  read_data CPU = 0.0010012 secs
Reading potential file library.meam with DATE: 2012-06-29
Reading potential file LiSi.meam with DATE: 2020-11-07
1 atoms in group Li
216 atoms in group Si
Neighbor list info ...
  update every 1 steps, delay 10 steps, check yes
  max neighbors/atom: 2000, page size: 100000
  master list distance cutoff = 6
  ghost atom cutoff = 6
  binsize = 3, bins = 6 6 6
  2 neighbor lists, perpetual/occasional/extra = 2 0 0
  (1) pair meam/c, perpetual
      attributes: full, newton on
      pair build: full/bin/atomonly
      stencil: full/bin/3d
      bin: standard
  (2) pair meam/c, perpetual, half/full from (1)
      attributes: half, newton on
      pair build: halffull/newton
      stencil: none
      bin: none
Setting up Verlet run ...
  Unit style    : metal
  Current step  : 0
  Time step     : 0.003
Per MPI rank memory allocation (min/avg/max) = 8.895 | 8.895 | 8.895 Mbytes
Step Temp E_pair E_mol TotEng Press Volume 
       0         1800   -951.04357            0   -900.78722   -114161.75    5330.9442 
    3200    1748.1151    -938.8863            0   -890.07859   -11397.809     4735.421 
Loop time of 2.25308 on 1 procs for 3200 steps with 217 atoms

Performance: 368.136 ns/day, 0.065 hours/ns, 1420.279 timesteps/s
100.0% CPU use with 1 MPI tasks x no OpenMP threads

MPI task timing breakdown:
Section |  min time  |  avg time  |  max time  |%varavg| %total
---------------------------------------------------------------
Pair    | 2.1622     | 2.1622     | 2.1622     |   0.0 | 95.97
Neigh   | 0.041686   | 0.041686   | 0.041686   |   0.0 |  1.85
Comm    | 0.014642   | 0.014642   | 0.014642   |   0.0 |  0.65
Output  | 2.5743e-05 | 2.5743e-05 | 2.5743e-05 |   0.0 |  0.00
Modify  | 0.029604   | 0.029604   | 0.029604   |   0.0 |  1.31
Other   |            | 0.004874   |            |       |  0.22

Nlocal:    217 ave 217 max 217 min
Histogram: 1 0 0 0 0 0 0 0 0 0
Nghost:    957 ave 957 max 957 min
Histogram: 1 0 0 0 0 0 0 0 0 0
Neighs:    4194 ave 4194 max 4194 min
Histogram: 1 0 0 0 0 0 0 0 0 0
FullNghs:  8388 ave 8388 max 8388 min
Histogram: 1 0 0 0 0 0 0 0 0 0

Total # of neighbors = 8388
Ave neighs/atom = 38.6544
Neighbor list builds = 71
Dangerous builds = 0
Setting up Verlet run ...
  Unit style    : metal
  Current step  : 3200
  Time step     : 0.003
Per MPI rank memory allocation (min/avg/max) = 9.664 | 9.664 | 9.664 Mbytes
Step PotEng KinEng TotEng Temp Press Density c_msdli[4] c_msdsi[4] 
    3200    -938.8863    48.807709   -890.07859    1748.1151   -11397.809    2.1297595            0 5.4350456e-32 
    3300   -939.33465    50.254112   -889.08054      1799.92    5665.2868    2.1667127 0.0030815888   0.12798413 
    3400   -942.00353    50.810898   -891.19263    1819.8621    5472.4203    2.1739557   0.25449879    0.1180781 
    3500   -942.80725    47.807644    -894.9996    1712.2964   -9729.7574    2.1364212   0.27587651   0.11609951 
    3600   -947.98836    46.429166    -901.5592    1662.9243    4249.2343    2.1855316  0.067265417   0.13159074 
    3700   -945.80535    53.735832   -892.06952    1924.6226    3871.2395    2.1777536   0.07799174  0.092361435 
    3800   -939.20361    48.643528   -890.56008    1742.2348   -7209.8896    2.1380083   0.12687418   0.11537334 
    3900   -938.33683    50.598624   -887.73821    1812.2592   -572.28217    2.1544929   0.25578451   0.13311999 
    4000   -946.20065    48.060269   -898.14038    1721.3445    10328.705    2.1966081  0.099486624   0.11589793 
    4100   -941.61241    48.804753   -892.80765    1748.0093   -6987.3801    2.1390348  0.081470076   0.11477547 
    4200   -935.92505    46.393718   -889.53133    1661.6547     2158.847     2.153368  0.027825272   0.11173891 
    4300   -939.34751    50.056745   -889.29076    1792.8511    8835.3016    2.1829302   0.73595423   0.13256411 
    4400   -942.18524    44.831258   -897.35398    1605.6931   -7310.4063    2.1480479  0.043251459   0.15275303 
    4500    -943.6555    47.113552   -896.54195    1687.4366   -5011.9915    2.1557227   0.34344553   0.14354475 
    4600   -941.20526    52.276648   -888.92862    1872.3599     12006.36    2.1846962   0.10181269   0.14939488 
    4700   -939.08355    48.650526   -890.43302    1742.4854   -3097.6539    2.1472927  0.017388036   0.12924264 
    4800   -939.91249    49.341799   -890.57069    1767.2443     -7028.06    2.1389485  0.010034325   0.12584311 
    4900   -947.03877    46.271712   -900.76706    1657.2849    14675.543    2.2091481  0.083715374   0.12765947 
    5000    -942.1243    49.986033   -892.13827    1790.3184   -4703.8923    2.1514278   0.14595235   0.12932135 
    5100   -941.94816    51.380414   -890.56775    1840.2601   -9653.3678    2.1364926   0.36464113    0.1346066 
    5200   -941.55415    54.146383   -887.40777    1939.3271    6319.5934    2.1750851    0.1277122    0.1392135 
    5300   -944.27027    49.609175    -894.6611    1776.8207   -2678.9713    2.1604666   0.41914383   0.13295723 
    5400   -941.97607     45.40076   -896.57531    1626.0906   -7475.9182    2.1457806   0.17732138    0.1299421 
    5500   -940.37311    50.369514   -890.00359    1804.0533    8319.3412    2.1783242   0.19968804   0.14665017 
    5600   -936.78574    47.914525   -888.87122    1716.1245    3651.0979    2.1610257  0.078710338   0.13509291 
    5700   -938.63951    47.591986   -891.04752    1704.5723   -9879.4367    2.1327531   0.17709373   0.13819506 
    5800   -943.01419     45.33231   -897.68188    1623.6389    9501.4245     2.189723   0.61751138   0.12226528 
    5900   -940.19926    50.949285   -889.24998    1824.8186    5103.4279    2.1716996   0.15323317   0.12969948 
    6000   -945.02195    54.721661   -890.30029    1959.9315    -13127.12    2.1319197   0.31109631    0.1266711 
    6100   -940.87293    48.118095   -892.75483    1723.4157    780.48383    2.1608335   0.26218814   0.14751878 
    6200   -945.54626    46.165444   -899.38082    1653.4788    13711.531    2.2046345   0.30795217   0.13593023 
    6300   -942.58211    52.649432   -889.93268    1885.7117   -10989.016     2.137548   0.25639614   0.12437964 
    6400   -939.91172    49.987866   -889.92385    1790.3841    -4363.082    2.1504265   0.16105836   0.12868598 
    6500   -946.67452     52.97086   -893.70366    1897.2241     5692.594    2.1820542   0.28643899   0.11547867 
    6600   -946.53425    44.719476   -901.81477    1601.6894   -733.85607    2.1735352   0.14264711   0.14122577 
    6700   -937.65148    46.686935   -890.96455    1672.1567   -6012.6092      2.14236   0.35929881   0.15434301 
    6800   -940.54513       51.082   -889.46313     1829.572    6358.7525    2.1764681   0.22090061   0.11951742 
    6900    -939.9678     48.48837   -891.47943    1736.6776    1979.1217    2.1666793   0.22508752   0.13366701 
    7000   -943.40416    50.079355   -893.32481    1793.6609   -5429.2675    2.1518116  0.013431441   0.12842765 
    7100   -947.08805    44.916841   -902.17121    1608.7583     7967.596    2.1980676  0.070853594    0.1255258 
    7200   -939.72097    45.443575   -894.27739    1627.6241     1827.739    2.1675622   0.22161793   0.15936986 
    7300   -944.03689    53.291604   -890.74528     1908.712   -7319.5428     2.145215  0.078313576   0.13212813 
    7400   -942.91623    55.455795   -887.46043    1986.2255    512.00565    2.1645975  0.083616068   0.12414601 
    7500   -944.71745    47.681748    -897.0357    1707.7873    1462.5162    2.1775292   0.38635283   0.13121877 
    7600   -942.03376    48.285574   -893.74818    1729.4141   -5235.5817    2.1486648   0.11880784   0.12606157 
    7700   -937.68675    49.102269   -888.58448    1758.6652    3464.9116    2.1662088   0.35574902   0.14003426 
    7800   -941.17266    50.262615   -890.91005    1800.2246    5115.7689    2.1740399   0.09209926   0.14469551 
    7900   -945.62825    45.688226   -899.94003    1636.3866   -6516.9031    2.1572038   0.42291857   0.11387014 
    8000   -938.96783    47.661903   -891.30592    1707.0765   -4856.1548      2.14836   0.17699963   0.12628433 
    8100   -938.78615    52.062196   -886.72395    1864.6791    22324.686    2.2124131   0.10088829   0.13301821 
    8200   -941.16991    48.547671   -892.62224    1738.8015   -12204.819    2.1307705   0.31188398   0.14271779 
    8300   -936.54327    49.352782   -887.19049    1767.6377   -13039.076     2.120395   0.39105698   0.15395019 
    8400   -935.57742    56.799438   -878.77798    2034.3499    14723.759    2.1818395  0.072090624   0.12929341 
    8500   -940.62026    51.997878   -888.62238    1862.3754   -1519.5567    2.1590716   0.20642886   0.11979123 
    8600   -934.89633    43.144787   -891.75154    1545.2898   -5589.9877    2.1359504   0.19360345   0.11802432 
    8700   -935.83338    48.442393   -887.39099    1735.0309    8748.0409    2.1713882   0.15725954   0.13366428 
    8800    -936.1109    56.523191    -879.5877    2024.4557    2754.5873     2.150895   0.14551543   0.12515333 
    8900     -940.225    49.509853   -890.71514    1773.2634   -3197.7934    2.1489767   0.29982446   0.12845895 
    9000   -941.06111    50.085783   -890.97533    1793.8911     648.7683    2.1622221   0.11977225   0.12166441 
    9100   -938.69911    50.777686   -887.92142    1818.6726    5262.9639    2.1692748   0.19637863    0.1325364 
    9200   -933.27787    54.323977    -878.9539    1945.6878   -6523.5334    2.1250044   0.27354852   0.13284531 
    9300   -943.70811    52.745613    -890.9625    1889.1566    2011.2296    2.1725486  0.078233473   0.12390704 
    9400   -942.78309    52.327038   -890.45605    1874.1648    1284.7007    2.1678907  0.094295542   0.12225112 
    9500   -939.98929    49.746385    -890.2429    1781.7351   -8835.5329    2.1430721   0.37645895    0.1289564 
    9600   -935.51804    53.589144    -881.9289    1919.3688     2721.747    2.1560871    0.2387093   0.13091654 
    9700   -936.70663    54.273008   -882.43363    1943.8623    4002.3448    2.1649326  0.051140541   0.14282537 
    9800   -936.81333     47.03485   -889.77848    1684.6177   -11730.523    2.1305318  0.099887519   0.13341051 
    9900   -937.36423    46.236542   -891.12769    1656.0252    4690.5955    2.1693614   0.27767026   0.15634929 
   10000   -940.56409    50.044457   -890.51963     1792.411    14193.242    2.1988136  0.011535068   0.14574341 
   10100   -933.29543     52.56989   -880.72554    1882.8628    -13077.26    2.1066889   0.29025069   0.14915094 
   10200   -939.77788    48.438213   -891.33967    1734.8811    -601.2373    2.1613604   0.16517041   0.14873925 
   10300    -940.7661    51.586657   -889.17944     1847.647    8739.4909     2.178113    3.3251736     0.145034 
   10400    -938.6237     51.73673   -886.88697     1853.022   -5441.5192    2.1434681    12.656297   0.16071612 
   10500   -931.25023    53.242761   -878.00746    1906.9626   -5603.9204    2.1200146    10.611561   0.17326857 
   10600   -940.47874    51.165706   -889.31303    1832.5701    7970.0919    2.1795307    10.022462   0.16356549 
   10700   -938.10914    49.110277   -888.99887     1758.952   -84.076062    2.1585475     8.659243   0.17610845 
   10800   -934.97786    48.070456    -886.9074    1721.7094   -1951.1025    2.1456793    8.7113695    0.1570336 
   10900   -932.48566     53.84751   -878.63815    1928.6225    6268.7179    2.1553662    6.2401813   0.14620195 
   11000   -939.04676    51.227228   -887.81953    1834.7735    939.74089    2.1568608    6.4500632   0.13846044 
   11100   -940.53451    49.907891   -890.62662    1787.5197   -7782.4142    2.1401218    8.4570459   0.13383812 
   11200   -940.10258     51.05419   -889.04839    1828.5759    7604.6193    2.1756508     5.644304   0.12694919 
   11300   -945.25666     48.89573   -896.36094    1751.2677    2697.8457    2.1786126    6.1616446   0.12780756 
   11400   -945.04564    47.324901   -897.72074    1695.0063   -7007.4285    2.1512914    6.0832615   0.12806546 
   11500   -943.17541    52.732374   -890.44304    1888.6824   -612.19894     2.164124    6.9142867   0.13215507 
   11600   -939.92856    51.469909   -888.45865    1843.4655    6537.6042    2.1717307    5.7643638   0.14457877 
   11700   -943.47217    49.392087   -894.08008    1769.0454    -5297.185    2.1502476    6.6612919   0.14651796 
   11800    -946.0742    47.362729   -898.71147    1696.3612   -1827.8113     2.171132    7.2409443   0.12559439 
   11900   -937.79625    49.316499   -888.47975    1766.3381    8201.2067     2.171759    5.9720917   0.12533042 
   12000   -936.59093    46.693541   -889.89739    1672.3933   -4151.3481    2.1412542    9.2917174   0.13024834 
   12100   -944.89782    52.650887   -892.24693    1885.7638   -8202.5184     2.145182    7.4092388   0.12101133 
   12200   -945.68155    47.623981   -898.05757    1705.7183    20941.593    2.2231131    4.6199303   0.12851664 
   12300   -937.50027    50.499241   -887.00103    1808.6997   -7065.3232    2.1317994    5.2426716    0.1351243 
   12400   -938.86265    48.923611   -889.93904    1752.2663   -9889.5161    2.1277189    6.7555324   0.12796589 
   12500   -941.28211    51.578648   -889.70346    1847.3601    11546.286    2.1915289    5.7523585   0.12625995 
   12600   -944.81684    46.986202   -897.83063    1682.8754   -725.01304    2.1691401    6.1211176   0.13871975 
   12700   -941.78812    45.808712   -895.97941     1640.702   -8045.1201    2.1453252    7.2141583   0.12896008 
   12800   -940.24798    50.526796   -889.72118    1809.6866    5302.4505    2.1693067    7.0083624   0.14101715 
   12900   -937.79644    48.134038    -889.6624    1723.9867    4507.4842    2.1621649    6.2224081   0.13350929 
   13000   -943.22292    49.923417   -893.29951    1788.0757   -7649.1306    2.1449517    6.2207364   0.12143626 
   13100   -948.96726    48.237412   -900.72985    1727.6892    3664.6427     2.187576    4.9475031   0.13817448 
   13200   -938.26974    48.438991   -889.83075     1734.909    1325.5975    2.1571329    6.9907089   0.14018605 
   13300   -941.53319    51.410421   -890.12277    1841.3348   -5164.5347    2.1459498    7.4093407   0.13121103 
   13400   -939.68134     49.75894    -889.9224    1782.1848    3070.9202    2.1636805    4.8506175   0.13413965 
   13500   -946.35631    46.140152   -900.21616    1652.5729    3835.4168    2.1796943    7.0843782   0.13726856 
   13600   -940.53264    46.356612   -894.17603    1660.3257   -8012.6537    2.1379804    6.8721748   0.11712726 
   13700   -941.69522    51.725215      -889.97    1852.6096    5490.3473     2.174915    5.4024906    0.1400504 
   13800    -940.0292    51.886072   -888.14313    1858.3709    8316.1671    2.1736156    7.3874819   0.12010172 
   13900   -934.11103    45.993137    -888.1179    1647.3074   -13818.968    2.1122368    7.5046722   0.12151677 
   14000   -942.29955    44.209833   -898.08971    1583.4359    8043.5361    2.1889951     5.800457    0.1369046 
   14100   -938.92268    49.204243   -889.71843    1762.3176    11283.875    2.1864088    5.5846619   0.14097004 
   14200   -942.57434    52.485027   -890.08932    1879.8233   -12175.054    2.1283855     5.883752    0.1256322 
   14300   -940.22353    52.084483   -888.13904    1865.4773   -1297.4221    2.1524188    6.8659138   0.14928933 
   14400   -947.42422    48.041078   -899.38314    1720.6572    7071.1167    2.1990096    6.0585189   0.14414609 
   14500   -938.29861    45.242884   -893.05573     1620.436   -3860.5817    2.1500128    6.5853387   0.14267484 
   14600   -939.84908    50.323684    -889.5254    1802.4119   -3307.4107    2.1563922    7.9099348   0.14095681 
   14700   -942.26139    51.910203   -890.35119    1859.2352    3100.6928    2.1746942    5.8901116   0.13151871 
   14800   -942.11295    42.172857   -899.94009    1510.4788    2241.7038    2.1740211    6.7717684    0.1310174 
   14900   -940.70841    49.818186   -890.89022    1784.3068   -8092.7728    2.1420914    7.8883126   0.13751645 
   15000   -939.48056    51.274621   -888.20594     1836.471    6068.7515    2.1712819    6.2199386   0.12645063 
   15100   -943.31088    49.361334   -893.94954     1767.944    2627.4053    2.1697104    6.0176502   0.13956888 
   15200   -945.08313    46.320254   -898.76287    1659.0235   -7652.5107    2.1518226    7.0138745   0.12279495 
   15300   -941.86526    53.407044   -888.45822    1912.8467    -3272.725    2.1524404    8.1918488   0.14161167 
   15400   -943.86187    54.809065    -889.0528     1963.062    4901.1867    2.1816609    7.1668083   0.13094145 
   15500   -939.95455    45.657025   -894.29752     1635.269   -4681.4306    2.1516529    6.6901887   0.15273119 
   15600   -938.51511     52.52838   -885.98673    1881.3761    -7545.068    2.1370637    7.6200297   0.12644252 
   15700    -938.5436    53.863094    -884.6805    1929.1807    14009.141    2.1890292    5.8663607   0.13510098 
   15800   -941.52674    50.657612   -890.86913     1814.372   -7744.3363    2.1462938    6.2463181   0.13294747 
   15900   -938.49391    46.484033   -892.00988    1664.8895   -9976.1316    2.1308069    5.6746514   0.13632469 
   16000   -939.04473    54.115294   -884.92944    1938.2136    18323.295     2.203152    6.8434731   0.15875196 
   16100   -937.45553    53.283586   -884.17194    1908.4248   -3090.3526    2.1502866    6.0073266   0.13778253 
   16200   -938.76662    45.466265   -893.30036    1628.4367   -9804.9673    2.1325512    6.9778266   0.13452902 
   16300    -936.7205    47.037608   -889.68289    1684.7165    7417.5229    2.1733534    5.9664895   0.13955402 
   16400    -935.1431    48.949243   -886.19385    1753.1844    4765.2418    2.1623843    5.4874772   0.12945809 
   16500   -933.62762    55.081298   -878.54632    1972.8123   -7947.3553    2.1242823    6.7554747   0.14465155 
   16600   -940.67427    49.911137   -890.76313    1787.6359     5560.349    2.1752592    6.9150066   0.15447095 
   16700   -937.71785    48.685659   -889.03219    1743.7438    3177.2006    2.1634469    6.7566703   0.16361907 
   16800   -941.23259     52.49024   -888.74235      1880.01   -7126.5767    2.1405496    6.3848063   0.16367795 
   16900    -950.6072    51.741252   -898.86595     1853.184    2003.7845    2.1851836    6.0066717   0.15750539 
   17000   -946.70187    54.425164   -892.27671     1949.312    -2330.081     2.164396    6.9608933   0.14806946 
   17100   -940.06078    52.143673    -887.9171    1867.5973   -2624.9739    2.1471733    7.9610249    0.1504344 
   17200   -945.31312    54.814296   -890.49882    1963.2493   -5429.4512    2.1542555    6.9070555   0.13495408 
   17300   -945.38092    48.580197   -896.80072    1739.9665    4741.6652    2.1816595    7.0927502    0.1504824 
   17400   -939.37908    53.782316   -885.59676    1926.2875   -6419.8956    2.1380516    7.9488083   0.16102576 
   17500   -940.62542    51.688232   -888.93719     1851.285    -925.2287    2.1546451    7.7677308   0.16160044 
   17600    -941.5468    49.548632   -891.99817    1774.6523    8747.9817    2.1878801    8.0803058   0.15323296 
   17700   -937.43437    53.299392   -884.13497    1908.9909   -3963.8622     2.140235    5.0363304   0.16754219 
   17800   -936.30032    51.854011   -884.44631    1857.2226   -5850.0245    2.1286572      5.11778   0.16915366 
   17900   -938.34851    48.667916   -889.68059    1743.1082     7571.252    2.1781708    6.9911757   0.16532503 
   18000   -943.53246    52.889594   -890.64287    1894.3135     1984.754    2.1704965    9.3426695   0.16189783 
   18100   -934.75739    53.725617   -881.03177    1924.2568   -13656.988     2.112922    6.8127144    0.1688567 
   18200    -938.6032    49.070675   -889.53253    1757.5336    6003.2181    2.1708892    5.2697082   0.16476569 
   18300   -940.01273    49.989469   -890.02326    1790.4415    7749.7924    2.1766996    5.2662832   0.17270363 
   18400   -939.65587    50.764013   -888.89185    1818.1829   -7475.0542    2.1370107    2.6176041   0.15553558 
   18500   -933.07032     52.80915   -880.26117    1891.4322   -240.89893    2.1417865    6.9922228   0.17238364 
   18600   -943.85051    53.582671   -890.26783     1919.137    12428.365    2.1935918    7.5545495   0.16188862 
   18700   -939.62465    48.666494   -890.95815    1743.0573   -10343.842    2.1331105    5.2460992   0.16796118 
   18800   -933.66628    45.083168   -888.58311    1614.7156   -1236.1568    2.1482438    6.0738546   0.20450362 
   18900   -943.15572    51.581889   -891.57383    1847.4762    10382.952     2.191551    3.4386185   0.14513689 
   19000   -944.46178    46.905742   -897.55604    1679.9936     -151.499     2.173584    6.1693377   0.16327252 
   19100    -943.0627    52.883874   -890.17882    1894.1086   -8901.4045    2.1462437    4.4974048   0.15390245 
   19200   -939.75244    52.888178   -886.86427    1894.2627    2294.8324    2.1641195    8.8722929   0.17524742 
   19300   -944.43915    49.985987   -894.45316    1790.3168   -1393.8002    2.1680394    3.8190088   0.17280629 
   19400   -942.22113    48.221148   -893.99998    1727.1066   -2692.1442    2.1617477    8.3137338   0.15832945 
   19500   -941.80358    54.968564   -886.83502    1968.7746   -1859.8541    2.1548388   0.67539995   0.14459068 
   19600   -938.26835    47.818109   -890.45024    1712.6713   -275.15999    2.1561306    2.9949037   0.17007042 
   19700   -943.62747    45.813829   -897.81364    1640.8852   -1377.1586    2.1687014    4.5910896   0.15620809 
   19800   -943.43417    56.627135   -886.80703    2028.1786   -5433.4488    2.1453607    6.6908806   0.15499419 
   19900   -938.81275     50.97358   -887.83917    1825.6888    6880.7634    2.1712471    6.0903172   0.15170275 
   20000   -939.66761    46.472426   -893.19518    1664.4738    -2815.268    2.1579035    5.2124243   0.16017019 
   20100    -937.3475    54.022321   -883.32518    1934.8836   -7175.5487    2.1356268    5.9568114   0.16337136 
   20200   -939.15698    54.387386   -884.76959    1947.9589    4990.6953    2.1692447    6.2600588   0.16667808 
   20300   -941.59075    51.068023   -890.52273    1829.0714   -4328.4623    2.1488231    5.9519408   0.14852432 
   20400   -935.19664    45.392439    -889.8042    1625.7926   -4263.8877     2.137872    5.3589944   0.16043121 
   20500   -933.95136    54.692699   -879.25866    1958.8942     9849.011    2.1690323    3.6964286   0.17097566 
   20600   -937.99162    50.604013   -887.38761    1812.4522    4624.9504    2.1676353    5.7652312   0.15047509 
   20700   -940.63538    48.282316   -892.35307    1729.2975    -17052.48    2.1162593    5.6799735   0.14696907 
   20800   -934.58136    48.833316   -885.74805    1749.0323    6610.2328    2.1619917    4.2181504   0.14283993 
   20900   -938.49566     49.19858   -889.29708    1762.1147    7377.3533    2.1764126    7.1862494   0.15664069 
   21000   -945.77742    50.750947   -895.02647    1817.7149   -8999.4582    2.1485213    10.305412    0.1413355 
   21100   -939.65404    50.902306   -888.75173     1823.136   -2780.1636    2.1490305    6.9466339   0.13702323 
   21200   -936.84019    50.932276   -885.90791    1824.2094     6136.062    2.1625947    5.5334977   0.15947927 
   21300   -942.63905     46.82304   -895.81601    1677.0315     374.6608    2.1612697    7.7211796   0.14895921 
   21400   -938.97165    47.507297   -891.46436    1701.5391   -3239.1462    2.1432474    4.6935579    0.1643796 
   21500   -940.40843     54.58621   -885.82222    1955.0801    445.55977     2.157317    5.4825578   0.15627654 
   21600   -942.94475     49.57877   -893.36598    1775.7317     1175.387    2.1674511    8.8416061    0.1486232 
   21700   -940.52073    47.924686   -892.59605    1716.4885   -3328.8485    2.1519497     4.796922   0.15620018 
   21800   -939.03503    53.649824    -885.3852    1921.5421    312.66966    2.1470402    4.0633537   0.16016394 
   21900   -941.95109    50.377211   -891.57388     1804.329    5580.9353     2.170981    5.0164329   0.15875184 
   22000   -942.44334    48.491359   -893.95198    1736.7846   -5807.1319     2.154801    4.8355435   0.15894052 
   22100   -933.32232    48.988626   -884.33369    1754.5949   -8197.9913    2.1261604    6.9817585   0.16708558 
   22200   -940.59003    50.446431    -890.1436    1806.8082    10736.824    2.1887914    4.7298689   0.16696624 
   22300   -938.56096    46.223531   -892.33743    1655.5593    2821.8152    2.1653601    4.9174181   0.17442132 
   22400   -931.18061    43.896672   -887.28393    1572.2196   -15599.166    2.1079003    11.288185   0.17909972 
   22500   -935.12743    53.072503   -882.05493    1900.8646    9239.5296    2.1729228   0.52447239   0.18311596 
   22600   -945.06259     53.63597   -891.42662    1921.0459    8297.9526     2.187645   0.47603272   0.13565363 
   22700   -938.67599    48.963851   -889.71214    1753.7076   -13186.835    2.1226565   0.36574391   0.14124336 
   22800   -937.53746    53.743749   -883.79371    1924.9062   -1643.5325    2.1433686   0.20307104   0.16232426 
   22900   -938.89317    47.932365    -890.9608    1716.7635    11254.034    2.1870147    1.0371748   0.16177359 
   23000   -938.39644    45.870368   -892.52608    1642.9102   -3523.4379    2.1547211   0.46314924   0.18259786 
   23100   -935.12258    50.458361   -884.66422    1807.2355   -6840.0663     2.131569    1.3272895   0.17948091 
   23200   -938.49749    48.082684   -890.41481    1722.1474    11536.682    2.1823217   0.81555267   0.16347587 
   23300    -941.3564    48.546317   -892.81009     1738.753    4309.8782    2.1725238   0.94549258   0.14400515 
   23400     -936.307    52.257482   -884.04952    1871.6735   -8589.3185    2.1334946    0.4215996   0.15266778 
   23500   -937.91174    48.190745     -889.721    1726.0177    793.78916    2.1634515    1.8551985   0.16334307 
   23600   -942.69327    51.118125   -891.57515    1830.8659    6626.1576    2.1865047  0.086273084   0.17034709 
   23700   -931.41669    48.418353   -882.99834    1734.1698   -3649.3733    2.1370363     1.394826   0.17572374 
   23800   -937.55242    48.616281   -888.93614    1741.2589   -1075.7832    2.1479654   0.92119625     0.152551 
   23900   -942.14538    51.513479   -890.63191     1845.026    11088.129    2.1896359   0.35282635   0.14788989 
   24000   -940.43286    54.218931   -886.21393    1941.9255   -2186.4417    2.1543906   0.18313493   0.14986691 
   24100   -935.44681    50.379239   -885.06757    1804.4017   -11901.913    2.1236331  0.071366393   0.15009148 
   24200   -942.04204    48.796381   -893.24566    1747.7094    10452.413    2.1966559   0.21832343   0.14917081 
   24300   -937.83116    49.671851   -888.15931    1779.0656    7841.6355      2.17952   0.09220918   0.12750163 
   24400   -936.71012    48.738176   -887.97195    1745.6247   -10417.446     2.128391  0.034627453   0.12982378 
   24500   -945.03453    47.864091   -897.17044    1714.3182    807.79997    2.1767486   0.11866704   0.14069993 
   24600   -939.27391    49.775186   -889.49872    1782.7667    5336.7479    2.1719156   0.17101326   0.14853352 
   24700   -936.61589    48.585463   -888.03043    1740.1551   -1470.4322    2.1536178    0.2742294   0.15485702 
   24800   -940.11733    44.492246   -895.62508    1593.5509   -294.69485    2.1621751   0.29889985    0.1368198 
   24900   -937.45811    46.078146   -891.37996    1650.3521    9026.6352    2.1801122   0.12936413   0.13801421 
   25000   -934.41886    48.203287   -886.21558    1726.4669    2477.3519    2.1585589   0.20227011   0.15056895 
   25100   -943.02179    48.712125   -894.30967    1744.6917   -7994.8423    2.1485285   0.25326588   0.14105339 
   25200   -943.19725    52.706208   -890.49105    1887.7452    3672.7634    2.1757559   0.31939772   0.14210904 
   25300   -932.15439    48.853866   -883.30052    1749.7683    8182.3414     2.164062   0.26414151   0.14130365 
   25400   -937.09471    44.331311    -892.7634    1587.7868   -3003.0407    2.1497764   0.17582165   0.14096147 
   25500   -942.77486    51.673664    -891.1012    1850.7632   -2175.4429    2.1617002   0.25330275   0.12853038 
   25600   -937.35095    55.170798   -882.18016    1976.0179    5983.3635    2.1665854   0.10375192   0.13405852 
   25700   -942.84273     51.21348   -891.62925    1834.2811   -2353.1254    2.1597712   0.19483715   0.14514873 
   25800   -940.58466    48.065766    -892.5189    1721.5414   -7260.9038    2.1460074  0.022953861   0.13019536 
   25900   -937.03855     52.88391   -884.15464    1894.1099    6797.7427    2.1747401    0.1601359   0.14507582 
   26000   -944.85987    52.755571    -892.1043    1889.5132     2739.741    2.1737258   0.14258023   0.12822635 
   26100   -943.73566    48.561516   -895.17414    1739.2974   -11943.381    2.1350943   0.15219366   0.12524281 
   26200   -938.65353    51.712844   -886.94068    1852.1666    3727.6793    2.1668453   0.31997116    0.1348015 
   26300    -939.4373    49.585555   -889.85174    1775.9747    12430.628    2.1942687   0.26563116   0.14916066 
   26400   -942.85949    45.471059   -897.38843    1628.6084    -11037.39    2.1416867    0.4589864   0.12674886 
   26500   -939.57642    50.444881   -889.13154    1806.7527   -4794.0748    2.1447842   0.01357323   0.12918087 
   26600   -935.54661    49.575216   -885.97139    1775.6044    16785.835    2.1908788   0.21957487   0.13554706 
   26700   -940.36685    44.860596   -895.50625    1606.7438   -1804.6629    2.1605132    0.2073834   0.13965994 
   26800   -940.63889    51.183979   -889.45491    1833.2245   -6949.6298    2.1435438   0.11609339   0.13042654 
   26900   -934.11014     49.43894    -884.6712    1770.7235     6910.436    2.1622491   0.29926515   0.13925992 
   27000   -940.77326    46.855954   -893.91731    1678.2103    5786.0865    2.1730475    0.1703218   0.13342967 
   27100   -941.32836    51.865065    -889.4633    1857.6185   -5341.4332    2.1482301   0.12848694   0.13207466 
   27200    -939.0534    54.008088   -885.04532    1934.3738   -2055.4742    2.1500298   0.24221558   0.12338715 
   27300   -944.38772     50.48304   -893.90468    1808.1194    3359.0876    2.1789271   0.18494588   0.13526359 
   27400   -939.36127    49.722573    -889.6387    1780.8822   -368.56977    2.1547542  0.033717594   0.13505562 
   27500   -940.78888    54.858756   -885.93012    1964.8417   -8714.6531    2.1378058   0.33133385   0.14433035 
   27600   -943.89853    49.294976   -894.60355    1765.5673    7420.8554    2.1856283   0.29329514   0.13037911 
   27700   -942.77589     53.03158   -889.74431    1899.3989    1854.8327    2.1681734   0.50283074   0.12368865 
   27800   -933.04893    46.061588   -886.98735     1649.759   -6576.0291     2.131025   0.14430077   0.14054793 
   27900   -944.71166    48.626137   -896.08552    1741.6119    3365.5079    2.1762079  0.067681738   0.11969669 
   28000   -943.73624    52.666336   -891.06991    1886.3172    7882.9404    2.1831627    0.1980788   0.13303588 
   28100   -937.99262    50.579253   -887.41336    1811.5654   -7158.5714    2.1356332   0.12320628    0.1532103 
   28200   -943.39924    48.729076   -894.67016    1745.2988   -5017.5464    2.1537265  0.096215996   0.12886185 
   28300   -939.69125     46.88718   -892.80407    1679.3288    14652.775    2.1997942   0.75668302   0.14706741 
   28400   -935.40262    50.111447   -885.29117    1794.8103   -75.728551    2.1533673   0.25218608   0.14493251 
   28500   -937.79201    46.116135   -891.67588    1651.7127   -11819.128    2.1282925   0.04394924     0.131259 
   28600   -942.55707    50.187069      -892.37    1797.5188    8774.2387    2.1907726  0.080907158   0.13918873 
   28700   -936.95421    54.494627   -882.45958    1951.7999    8594.7418    2.1695622    0.2051851   0.13779049 
   28800   -938.27699    49.394154   -888.88284    1769.1195   -9426.0184    2.1309205  0.062364828   0.13141569 
   28900   -943.00255    50.050748    -892.9518    1792.6363   -1581.9566    2.1620724   0.17599278   0.12271253 
   29000   -942.00279    54.844969   -887.15782    1964.3479    7619.6964    2.1776369   0.23731532   0.14369554 
   29100   -936.63639    50.867237   -885.76916      1821.88   -4836.6866    2.1388631   0.08177949   0.15156463 
   29200   -939.63767    45.160051   -894.47762    1617.4693    590.58968    2.1595524   0.47912313   0.13709032 
   29300   -938.88567    50.406047   -888.47962    1805.3618    5268.7585    2.1686915   0.24623273   0.13748992 
   29400   -939.58717    53.290846   -886.29632    1908.6848   -3265.5378     2.144408   0.60512727   0.11698056 
   29500   -944.40435    47.991294   -896.41306    1718.8741   -288.54827    2.1692564   0.23191975   0.11970425 
   29600   -943.14624    53.213783   -889.93246    1905.9247   -2173.9358     2.158738    0.1294213   0.12616499 
   29700   -936.96759    49.414904   -887.55269    1769.8627    1415.0667    2.1531496 0.0073095427   0.14289277 
   29800   -942.16637    45.249373     -896.917    1620.6685    1988.8904    2.1736539   0.20890157   0.12994222 
   29900   -944.00914    53.784615   -890.22453    1926.3699   -1838.9619    2.1577534   0.38789964   0.13778133 
   30000   -937.52986    50.015656   -887.51421    1791.3794    1777.2995    2.1560719   0.28640531   0.13222101 
   30100    -944.4977    48.887977   -895.60972      1750.99   -2134.7463    2.1650149   0.11273816   0.12288313 
   30200   -944.38009    54.141139   -890.23895    1939.1392   -3216.4535    2.1586347   0.17112973   0.13302444 
   30300   -940.62802    54.616309   -886.01171    1956.1581   -85.726477    2.1576541   0.13626843   0.11386773 
   30400   -941.96101     48.26392   -893.69709    1728.6386   -3080.3058    2.1527792   0.15397595   0.12166057 
   30500   -940.92003    51.426737    -889.4933    1841.9192    1189.8441    2.1619182   0.34841393   0.12494839 
   30600   -936.52917    52.807825   -883.72134    1891.3848    2387.6493    2.1540216   0.10458632   0.12386332 
   30700   -940.25613    47.175763   -893.08036    1689.6647   -2189.2373    2.1543633   0.27507981   0.14294641 
   30800    -942.6137    52.490716   -890.12299    1880.0271   -1159.4295    2.1567252   0.28713655    0.1352631 
   30900    -935.0608    52.668469   -882.39233    1886.3936    2796.2094    2.1530119   0.14866825   0.14734332 
   31000   -941.70856     48.78032   -892.92824    1747.1341    858.36908    2.1643565 0.0098932999   0.13720883 
   31100   -939.48913    47.719308   -891.76982    1709.1326    -3587.677    2.1498398   0.15696223   0.12651822 
   31200   -931.34959    46.952809   -884.39678    1681.6794    7933.3018    2.1618943  0.044693659   0.15165061 
   31300   -941.55196    47.529363    -894.0226    1702.3294    6857.2129    2.1787317   0.29348184   0.12353227 
   31400   -941.37694    48.331558   -893.04538    1731.0611   -10071.006     2.138327  0.055369118   0.14346243 
   31500   -937.85492    50.866877   -886.98805    1821.8671    1206.4346    2.1566822   0.57651961   0.14939361 
   31600   -941.93486    49.846611   -892.08825    1785.3248     9687.774    2.1883296   0.15768625   0.12917269 
   31700   -947.34002     50.16903   -897.17099    1796.8727   -8195.4552    2.1523329   0.13514525   0.12924752 
   31800   -940.81064    52.290024   -888.52062     1872.839   -8880.4795    2.1370611   0.17233338   0.13064426 
   31900   -939.60086    50.946428   -888.65443    1824.7163    12606.447    2.1865094   0.18239959   0.11695387 
   32000   -947.12229    50.633333   -896.48896    1813.5024   -1129.4527    2.1699187  0.073616713   0.12100593 
   32100   -938.72498    51.629236   -887.09575     1849.172   -13534.893    2.1229374  0.086914298   0.13431451 
   32200   -940.52566    53.099991   -887.42567    1901.8491    6884.5545    2.1758577   0.14287712   0.13358764 
   32300    -945.5919    52.457277   -893.13463    1878.8294     3871.073    2.1795071   0.30464027   0.13598109 
   32400   -936.21363    50.256157   -885.95747    1799.9933   -5205.8611    2.1353381   0.51294797   0.14591709 
   32500   -939.88572    54.426321    -885.4594    1949.3534   -1278.7294    2.1532387   0.42299097   0.13378815 
   32600   -940.68466    48.431711   -892.25295    1734.6483    1980.4098    2.1687269   0.29120738   0.13203073 
   32700   -939.38838    49.545588   -889.84279    1774.5433   -661.19676    2.1566398   0.23021067   0.13799822 
   32800   -935.11504    52.936082   -882.17895    1895.9785   -3142.5067    2.1379773   0.13510588   0.13022937 
   32900   -945.80582    53.015463   -892.79036    1898.8216    1266.4192    2.1742149   0.14482941   0.13538838 
   33000    -941.3676     50.73989   -890.62771    1817.3189    910.35563    2.1595606  0.057459245   0.13505404 
   33100   -934.34046     49.79602   -884.54444    1783.5128   -3092.5049    2.1405859   0.25403378   0.15121801 
   33200   -939.87729    45.671383    -894.2059    1635.7833    3257.0255    2.1723877   0.04776416   0.14803883 
   33300   -943.03097    49.851805   -893.17917    1785.5109   -3453.0798    2.1593382    0.6724656   0.15065539 
   33400   -937.87379    50.153258   -887.72053    1796.3078   -1460.7764    2.1570593    0.3588806   0.14498944 
   33500   -939.13341    47.739663   -891.39374    1709.8616    3656.0455    2.1695158   0.49821545   0.15354595 
   33600   -944.09746    47.403368   -896.69409    1697.8167   -1379.0907    2.1697039   0.25034571   0.12630967 
   33700    -938.1269    49.454699    -888.6722     1771.288    1570.7489    2.1576478  0.032071396   0.13813057 
   33800   -941.42771    51.803743   -889.62397    1855.4222     1900.365    2.1621358   0.13957673   0.13644513 
   33900   -946.56849     48.52281   -898.04568    1737.9111    1740.2002    2.1774983   0.09130975   0.12779211 
   34000   -935.74815    47.178972   -888.56918    1689.7797   -1647.4117    2.1483481   0.49551634   0.16563534 
   34100    -937.7486    49.189178   -888.55942     1761.778    4363.4278    2.1659652   0.20524343   0.14954211 
   34200   -946.40354    51.626877   -894.77666    1849.0875    848.20979    2.1744593   0.13907486   0.12803869 
   34300   -942.18203    52.969315   -889.21272    1897.1688   -6264.1455    2.1507432  0.056656167   0.13816749 
   34400   -938.63373     52.35832   -886.27541    1875.2852   -991.77741     2.156942  0.067300156   0.12726728 
   34500   -940.29251    48.652528   -891.63998    1742.5571     3318.658    2.1680275   0.47587213   0.14236872 
   34600   -939.85634    46.326069   -893.53027    1659.2318   -2541.3217    2.1627017   0.41629818   0.14740812 
   34700   -936.16511    53.240168   -882.92494    1906.8698   -6811.8888    2.1361777   0.76901186   0.16234178 
   34800   -941.84606    51.653434   -890.19262    1850.0387     5774.824    2.1792923   0.33496724   0.14553422 
   34900   -940.64284    48.074979   -892.56786    1721.8714   -561.58239    2.1659328   0.27229955   0.13742758 
   35000   -935.32967    50.855419   -884.47425    1821.4567   -7323.9724    2.1262626   0.27165143   0.14338015 
   35100    -939.7465    53.737981   -886.00852    1924.6996    5415.9649    2.1690814   0.14644855   0.12403013 
   35200   -946.22578    54.409173   -891.81661    1948.7392    1379.5778    2.1763516  0.061105923   0.12484689 
   35300    -943.7852     53.21858   -890.56662    1906.0966   -10970.633    2.1337042   0.19231617   0.13567794 
   35400   -936.92275    53.434874   -883.48787    1913.8434    838.22587    2.1490541   0.49415323   0.14364238 
   35500   -941.97134    47.903269   -894.06807    1715.7214    14153.457    2.1986736   0.37663071   0.13279402 
   35600   -942.51292     49.62921   -892.88371    1777.5383   -11287.667    2.1330269   0.16203517   0.11901843 
   35700   -940.94837    52.118063    -888.8303      1866.68   -7371.5743    2.1436049  0.022463496   0.13113214 
   35800   -941.68123    51.198923   -890.48231    1833.7598    11572.657    2.1900867   0.13791235   0.13591417 
   35900   -944.96004    46.087662   -898.87237    1650.6929    -2705.973    2.1695194  0.090353564   0.13254171 
   36000   -939.41682    48.597883   -890.81893    1740.5999    -5209.482    2.1439212   0.85298845   0.13127761 
   36100   -940.51748     52.81962   -887.69786    1891.8072    3327.7574    2.1674107  0.062544459   0.12650224 
   36200   -944.69816    48.530661    -896.1675    1738.1923    3008.2308    2.1752825   0.20473961   0.13978443 
   36300   -942.02758    50.827229   -891.20035     1820.447   -4439.0035    2.1527832   0.13950866   0.13936442 
   36400   -936.03698    48.731836   -887.30514    1745.3977    559.39733    2.1568889   0.09706436   0.13541789 
   36500   -942.63386    49.668557   -892.96531    1778.9476     506.5847    2.1706941   0.13993826    0.1218649 
   36600   -944.21796    49.195101   -895.02286    1761.9901   -2948.1696    2.1642854  0.060466376   0.12453696 
   36700   -939.05742     53.82626   -885.23116    1927.8614   -5580.3041    2.1411615  0.086559063   0.12197364 
   36800   -942.71674    51.823658   -890.89308    1856.1355    3310.7086    2.1723993   0.27694589   0.13452101 
   36900   -943.42366     50.05034   -893.37332    1792.6217    3280.6372    2.1717064   0.60461538   0.14037429 
   37000   -936.23675    53.031346   -883.20541    1899.3905   -8846.1589    2.1261963   0.37785274    0.1375016 
   37100    -938.6076    47.635415   -890.97218    1706.1278    7051.5365    2.1739694   0.24204812   0.14040136 
   37200   -943.85754    51.840112   -892.01743    1856.7248    2747.1321    2.1730263  0.025159526   0.11270445 
   37300   -936.88573    50.030616   -886.85511    1791.9152   -8086.5512    2.1279151   0.21451037   0.12255402 
   37400   -937.59922      54.1503   -883.44892    1939.4674   -153.42275     2.146696    0.2443119   0.13941238 
   37500   -942.85346    50.908613   -891.94484    1823.3619    17349.256    2.2056377  0.083783723    0.1461478 
   37600   -939.30775    49.196575   -890.11118    1762.0429   -7634.5594    2.1381246   0.38943871     0.139223 
   37700   -933.90351    47.366598   -886.53691    1696.4998   -7952.9307    2.1263611   0.34585724     0.135228 
   37800   -944.04018    48.604799   -895.43538    1740.8476    13673.208    2.2020038  0.059973667   0.13776356 
   37900   -941.01081    49.288878   -891.72193    1765.3489     1731.465    2.1660207   0.02575495   0.12749352 
   38000   -938.38924    50.651076   -887.73816    1814.1379   -11188.969     2.128498   0.32435168   0.14804439 
   38100   -939.05421    50.347039   -888.70717    1803.2484    1676.8671    2.1645561   0.24730682   0.14785339 
   38200   -945.51545    48.285738   -897.22971      1729.42    8708.2125    2.1929737    0.1345723   0.11970302 
   38300   -938.96624    51.109068   -887.85717    1830.5415   -7131.9558    2.1370506   0.26477889   0.15225062 
   38400   -940.88512    51.908737   -888.97639    1859.1827   -1376.4992    2.1566918  0.057117508   0.12267918 
   38500   -941.69464    47.990191   -893.70445    1718.8346    7766.1852    2.1783538   0.22399665   0.12566993 
   38600   -937.87221    53.517736   -884.35447    1916.8112   -4540.5353    2.1411898   0.41171991   0.14504954 
   38700   -938.70061    51.666997   -887.03362    1850.5245   -1804.1835    2.1509386  0.041927766   0.11840989 
   38800   -944.73126    52.315295   -892.41597    1873.7441     299.8423    2.1705658  0.065456629   0.11862866 
   38900   -942.60934     52.93081   -889.67853    1895.7897   -375.96328    2.1592431   0.14118833   0.11628341 
   39000   -934.64371    51.607056   -883.03665    1848.3776   -6906.0187     2.126764   0.17628879   0.12881173 
   39100   -944.65264    51.652894   -892.99975    1850.0193    3841.1576    2.1787745  0.086449759    0.1457608 
   39200   -943.71959    53.464749   -890.25484    1914.9134    5783.3364    2.1780059   0.25229918   0.13569001 
   39300   -934.98392    49.154123    -885.8298    1760.5224   -13472.664    2.1132298   0.40956044   0.14819851 
   39400   -943.81745    48.269019   -895.54843    1728.8212    1401.2586    2.1707398   0.14190282   0.12637867 
   39500   -941.69473    48.445875   -893.24885    1735.1555    13983.775    2.2008039  0.046290821   0.14324117 
   39600   -937.56904    48.462112   -889.10692    1735.7371   -8450.6367    2.1316775   0.10960669   0.15017914 
   39700   -938.92161     50.58826   -888.33335     1811.888   -7812.1619    2.1344746   0.24076877   0.14612405 
   39800   -941.79274    46.016269   -895.77647    1648.1359    15950.791    2.2044283   0.30963695   0.15137201 
   39900   -937.87128    49.590755   -888.28053     1776.161   -116.67855    2.1543288    0.4729255   0.14937617 
   40000   -938.24752    49.985179   -888.26234    1790.2878   -8097.3808    2.1390599   0.32989189   0.15767102 
   40100   -942.36115    49.934495   -892.42666    1788.4725    2639.5771    2.1728964  0.098906681   0.15958513 
   40200   -945.34335    49.608681   -895.73467     1776.803    1048.8922    2.1777294   0.12572599   0.14759349 
   40300   -934.78633    49.924928    -884.8614    1788.1299   -7332.6901     2.133614   0.11374024   0.14399039 
   40400    -939.7386    49.304132   -890.43447    1765.8952    3084.0811    2.1697943   0.58947399   0.15505034 
   40500   -941.50542    50.898056   -890.60736    1822.9838    4338.0927    2.1739889    2.3058063   0.17585166 
   40600   -936.33192    53.893444   -882.43848    1930.2677   -8362.5494    2.1302071    4.9364287   0.17376976 
   40700   -942.04748    50.204584    -891.8429    1798.1461    2895.9482    2.1686868    5.6396818   0.15625984 
   40800   -939.69761    49.080637   -890.61698    1757.8904    1879.9745    2.1674105    5.6769958   0.15979514 
   40900   -935.13677    50.677993   -884.45878    1815.1019   -3876.0615    2.1419734     4.788844   0.16280088 
   41000   -943.11655    50.461647    -892.6549    1807.3532   -3119.1488    2.1613366    7.2201834   0.15453015 
   41100   -944.10788    51.108952   -892.99893    1830.5373    1666.5174    2.1709295    6.6624808   0.12798803 
   41200   -938.23574     51.82367   -886.41207    1856.1359    2273.3958    2.1583735    7.6622664   0.14311436 
   41300   -937.28409    47.313983   -889.97011    1694.6153   -5347.2686     2.142249    8.3379674   0.15046769 
   41400   -945.36623     49.21785   -896.14838    1762.8049    1262.8129    2.1773102    7.7874826   0.14732414 
   41500   -937.52033    50.806652   -886.71368      1819.71    8540.3677    2.1746223    6.7591475    0.1559164 
   41600   -939.95653    50.003935   -889.95259    1790.9596   -11258.562    2.1323065    7.1913667   0.13205416 
   41700   -947.30245    49.553076   -897.74937    1774.8115   -6377.6059    2.1580101    6.5309707   0.14138145 
   41800   -936.55883    46.064102   -890.49472    1649.8491    26567.831    2.2206578    5.4266681   0.15290989 
   41900   -939.67804     51.72522   -887.95282    1852.6098   -5635.7587    2.1381483    7.5510784   0.13676663 
   42000   -943.39393    51.641375   -891.75256    1849.6068   -15908.765    2.1252873    6.9217293   0.12939845 
   42100   -947.49652    53.919738   -893.57679    1931.2095    9329.6403    2.1987325    5.9821477   0.13065991 
   42200   -938.87298    55.794393   -883.07859    1998.3528   -1962.2709    2.1504554    6.9542531   0.12328545 
   42300   -940.98719     51.07845   -889.90874    1829.4448   -11126.878    2.1368257     6.244243   0.14446335 
   42400   -941.74144    49.450871   -892.29057    1771.1509    3634.8417    2.1756348    8.0064019   0.14551849 
   42500   -939.72555    53.759158   -885.96639    1925.4581    5762.5151    2.1686429    5.9126501   0.14569212 
   42600   -937.50109    51.981138   -885.51995    1861.7759   -10429.925    2.1289257    7.1136175   0.15262183 
   42700   -942.21375    48.634751     -893.579    1741.9204   -4469.4742    2.1587724    6.7323333   0.12586216 
   42800   -943.18458    54.478011   -888.70656    1951.2048    8703.4799    2.1852363     6.999903   0.12846726 
   42900   -939.07059    53.878602   -885.19198    1929.7361   -6635.7535    2.1366181    7.6721876   0.14052603 
   43000   -942.93542    46.959823    -895.9756    1681.9306   -2785.2939    2.1572999    9.1934479   0.12158396 
   43100   -940.64516    49.490235   -891.15493    1772.5607    7842.5861    2.1762426    6.1260612   0.14243107 
   43200   -936.88469    50.238181   -886.64651    1799.3495    206.82858    2.1544966    9.2638334   0.13236664 
   43300   -943.50141    51.275612    -892.2258    1836.5065   -10567.155    2.1400672    6.4626698   0.13273694 
   43400   -943.37201    48.675375   -894.69663    1743.3754    6594.0966    2.1805275    5.4235001   0.12217039 
   43500   -939.02945    52.765809   -886.26364    1889.8799    7499.1976    2.1727613    6.6765906   0.13383914 
   43600   -936.51879    45.277485    -891.2413    1621.6753   -7247.0654    2.1319896    6.5799687   0.13483405 
   43700   -944.08284    47.845862   -896.23698    1713.6653   -67.334874    2.1671295    6.5732601    0.1206194 
   43800   -941.56688    55.446268   -886.12062    1985.8843    10910.431     2.185132    8.7738382   0.13060379 
   43900   -938.30605    50.281101   -888.02495    1800.8867    -5267.092    2.1395322    6.5481015   0.11920074 
   44000   -940.35764    46.350831    -894.0068    1660.1187   -9807.9275    2.1333132    6.4693119   0.12836235 
   44100    -938.5256    49.263571   -889.26203    1764.4425    21036.653    2.2055074    7.2936986   0.17093907 
   44200   -934.27656    52.827494   -881.44907    1892.0893    3094.4572    2.1541663    11.117948    0.1698075 
   44300   -935.34382    46.398976   -888.94484     1661.843   -20901.595    2.0934961    8.7358312   0.15068806 
   44400   -940.85657    51.125347   -889.73122    1831.1245    6993.9787    2.1748099    9.1907367   0.13665859 
   44500   -939.13983    49.341648   -889.79818    1767.2389    11502.628    2.1821859    7.1265665   0.12700593 
   44600   -935.51868    57.205321   -878.31336    2048.8871   -9673.9706    2.1207916    7.1910636     0.149478 
   44700   -939.49968    51.608709   -887.89097    1848.4368    884.27489    2.1634504      7.74898   0.14622828 
   44800   -940.13593    49.868294   -890.26764    1786.1014    2684.5305    2.1706253    6.9240372   0.14859112 
   44900   -942.40652    52.042447   -890.36408    1863.9717   -3794.4397    2.1538357    7.5667324   0.14760431 
   45000   -935.70157    56.032322   -879.66925    2006.8746   -3895.8038      2.14028    5.4138281   0.16121855 
   45100   -941.09186    53.438482   -887.65338    1913.9726    5766.7642    2.1787538    5.2827144   0.15618652 
   45200   -940.45324    49.310799   -891.14244     1766.134   -3910.0292     2.148568    5.8069845   0.14382058 
   45300   -941.24188    51.543136   -889.69875    1846.0882   -3676.6721    2.1530229    5.9576141    0.1456222 
   45400   -935.04243    55.071617   -879.97082    1972.4656    11309.127    2.1718175    5.9958582   0.16903732 
   45500   -938.10286    53.055004   -885.04785    1900.2378   -1834.6611    2.1498814   0.87185926   0.15301798 
   45600   -941.96199    50.357696   -891.60429    1803.6301   -7911.6091    2.1438153    1.2989571   0.17021858 
   45700   -941.88451    56.021382   -885.86313    2006.4827    9070.7087    2.1870695   0.32959382   0.16266328 
   45800   -938.61688    53.367749   -885.24913    1911.4392   -1198.0475    2.1581818    10.162077   0.17704526 
   45900   -945.83405    50.440082   -895.39396    1806.5808   -7941.6389     2.154662     4.167066   0.16167226 
   46000   -939.56058    49.601685   -889.95889    1776.5525    2848.8909    2.1724105    3.3406667   0.15507954 
   46100   -935.46779    49.612146   -885.85565    1776.9272    2801.7222    2.1631366    4.2871747   0.17657311 
   46200   -938.52539    47.875966   -890.64942    1714.7435   -9769.8509    2.1378598    6.7315471    0.1672223 
   46300   -941.86343    47.755417   -894.10801    1710.4259    6185.6944    2.1772048    8.1287433   0.18382309 
   46400   -935.45178    49.742399   -885.70938    1781.5923    8412.6531    2.1663405    6.6674539   0.16056906 
   46500   -937.17387    46.735778   -890.43809    1673.9061   -4249.9957    2.1412036    5.8119877   0.16551721 
   46600   -944.10489    48.532751   -895.57214    1738.2671   -274.10656    2.1642307    2.4040088   0.16683507 
   46700   -940.56219    55.422482   -885.13971    1985.0323    588.06889    2.1572073    4.0275981   0.14862846 
   46800   -941.40557    53.349419   -888.05615    1910.7827   -1150.8994    2.1538351    4.8559156   0.15162147 
   46900   -939.87418    46.668692   -893.20549    1671.5033    436.11433    2.1611982     7.593948   0.15279602 
   47000    -938.1372    53.144677   -884.99252    1903.4496   -919.33796    2.1529538    5.9484406   0.15833134 
   47100   -936.89823    51.478372   -885.41985    1843.7686    1186.1584    2.1505234    6.7175358   0.15873975 
   47200   -939.58804    47.313612   -892.27442     1694.602   -1084.9572    2.1583636    6.1976245    0.1427561 
   47300   -939.62494    52.243263   -887.38168    1871.1642    3595.1267    2.1647896    4.9393855     0.157729 
   47400   -933.87848    51.579414   -882.29907    1847.3876    2312.9844    2.1489687    6.1952733   0.18722123 
   47500   -940.98121    48.346536   -892.63468    1731.5976    382.21549    2.1609115    3.8294027   0.16536565 
   47600   -942.91419    54.850653   -888.06354    1964.5515    11.788233    2.1638837    8.6644366   0.15919417 
   47700   -936.53366    51.431361    -885.1023    1842.0848     877.7351    2.1547434    6.4315447   0.17103292 
   47800   -942.25552    46.035227   -896.22029    1648.8149   -54.460334     2.169444     6.006332   0.14631875 
   47900   -938.11608    46.617325   -891.49875    1669.6635    -991.6803    2.1573418    4.8734072   0.14489317 
   48000    -938.4542    51.477812   -886.97639    1843.7485    2413.5491    2.1656601    7.2714033    0.1653046 
   48100   -939.26641    47.874643   -891.39177    1714.6961   -903.76096    2.1608475    6.4018224   0.18139719 
   48200   -943.23049     47.00698   -896.22351    1683.6196   -2527.5712    2.1620005    6.0339292   0.17559739 
   48300   -937.96164    50.739656   -887.22199    1817.3105    4600.1532    2.1697849    7.3482461   0.16109912 
   48400   -936.51797     48.16544   -888.35253    1725.1114   -1113.5871    2.1522754    5.5010625    0.1684919 
   48500    -943.3091    47.138415   -896.17069    1688.3271   -2831.5365    2.1621702    6.6537618   0.16565884 
   48600   -940.54367    53.952375   -886.59129    1932.3784    2254.9541    2.1664138    3.3767719   0.13950631 
   48700    -942.9143    55.327415   -887.58689    1981.6274   -151.20516    2.1618148    7.6081043   0.15237253 
   48800   -942.20288    46.416087   -895.78679    1662.4559   -7972.5409    2.1498498    6.2260557   0.16535273 
   48900   -935.71048    48.392088   -887.31839    1733.2291    2060.4052    2.1577155    7.4505874   0.16786208 
   49000   -934.90653    49.645104   -885.26142    1778.1076    10633.256    2.1719971    12.032235   0.17177651 
   49100    -943.5683    49.329355   -894.23894    1766.7986    -8078.793    2.1494803    15.221472   0.14563719 
   49200   -941.77807    54.250295   -887.52778    1943.0488   -5916.8917     2.145396    15.835946   0.16310472 
   49300   -937.54661    55.162317   -882.38429    1975.7142    6171.2063    2.1726678     12.55227    0.1597103 
   49400   -935.13455    43.242637   -891.89191    1548.7944    570.83094    2.1580522    7.7023087   0.17242475 
   49500   -934.08706    46.925552   -887.16151    1680.7031   -7769.6097    2.1412616     14.66014   0.18495493 
   49600   -932.74241    50.388518   -882.35389     1804.734    5727.8238    2.1611891    10.379382   0.16865705 
   49700   -942.34055     51.89736   -890.44319    1858.7752    8006.3941    2.1770295    30.529875   0.13162816 
   49800    -942.3758    50.031761   -892.34404    1791.9562   -11558.111    2.1353262     41.68204   0.15017931 
   49900   -933.70663    51.048623   -882.65801    1828.3766    594.50683    2.1483413    39.361781   0.15488104 
   50000   -942.57769    52.176957   -890.40073    1868.7894     17500.72    2.2057847    37.986255   0.14223909 
   50100   -941.23935     48.19976   -893.03959    1726.3406   -11436.422    2.1326181    34.924484    0.1336037 
   50200   -938.46139    49.395303   -889.06608    1769.1606   -6573.4721    2.1409366    39.213831   0.13182915 
   50300   -939.92287    53.976146   -885.94672    1933.2298    14910.524    2.1943231     36.10723   0.14955816 
   50400    -932.6237    55.940573   -876.68313    2003.5884    -1499.191    2.1366041    38.807267   0.16456376 
   50500   -936.13403    53.880975   -882.25305    1929.8211   -6493.4672    2.1313899    34.109109   0.14734581 
   50600   -938.67858    51.200641   -887.47793    1833.8213    6434.9854    2.1683151    40.205356   0.13786387 
   50700    -939.4103    49.405114   -890.00519     1769.512    5976.0599    2.1746916    40.172488   0.14337554 
   50800   -944.64318    50.162888   -894.48029    1796.6527   -7581.7388    2.1526096    37.942375   0.13592131 
   50900    -945.2558    46.407683   -898.84812    1662.1549   -1348.7285    2.1713386    38.085789   0.14249916 
   51000   -939.15387    51.131168   -888.02271     1831.333    4918.4711    2.1664582    38.540149   0.13093946 
   51100   -942.24561    53.538295   -888.70732    1917.5476    2326.3573     2.163763    35.862285   0.13103763 
   51200   -938.47184    47.937402   -890.53444    1716.9439   -3008.0752    2.1475664    37.435172   0.13135376 
   51300     -940.933    50.494112   -890.43889     1808.516   -661.55935    2.1558065    42.522848   0.14201325 
   51400   -941.37238    61.501275   -879.87111    2202.7526    2907.3576    2.1601328    40.824534   0.14783632 
   51500   -938.24882    53.875011   -884.37381    1929.6075   -785.07411    2.1448602    41.182074   0.13396192 
   51600   -943.64612    52.906516   -890.73961    1894.9195   -12560.341    2.1270683    40.357763   0.12099466 
   51700   -940.63773    51.332364   -889.30537    1838.5391      11564.9    2.1886303    35.683555   0.13891703 
   51800   -944.46271    47.917472   -896.54524    1716.2301    4194.4833    2.1815441    37.250264   0.14079757 
   51900   -943.83706    43.170766   -900.66629    1546.2203   -13489.723    2.1363494    41.315167   0.14296143 
   52000   -940.92757    48.604245   -892.32333    1740.8278    3612.3483    2.1729014    41.158674   0.15489282 
   52100   -941.29333    51.724014   -889.56932    1852.5666    8415.1443    2.1790657    37.954531   0.14732981 
   52200   -939.03394     47.61959   -891.41435     1705.561   -6905.1423    2.1412669    40.084039   0.13837648 
   52300   -945.05658    44.127178    -900.9294    1580.4755   -3259.7336    2.1701056    39.629565   0.13602675 
   52400   -946.77422     51.76879   -895.00543    1854.1703    3679.7752    2.1814249    42.679032   0.13739704 
   52500   -942.87917    52.783405   -890.09577    1890.5101   -1595.6217    2.1595896    38.413907   0.12362317 
   52600   -941.04191    51.279877   -889.76203    1836.6592   -4529.2767    2.1474281    38.311939   0.14965682 
   52700    -944.8447    46.415209   -898.42949    1662.4245    3292.1549    2.1800233    37.196618   0.14281674 
   52800   -944.81448    49.990082    -894.8244    1790.4634    -77.27456    2.1703386    36.344652   0.14066923 
   52900   -938.31797     48.91395   -889.40402    1751.9203   -1500.2591    2.1555438     38.05933   0.16381036 
   53000   -943.43828    53.562578    -889.8757    1918.4173   -5514.0127    2.1568752    37.143308   0.14122812 
   53100   -946.54504    47.288692   -899.25634    1693.7094    1911.6528    2.1846854    39.434226    0.1426411 
   53200   -938.64038    46.776442   -891.86394    1675.3625     729.3877    2.1634551    37.849612   0.14807013 
   53300   -937.48089    48.422513   -889.05838    1734.3188    300.60119    2.1587127    36.603292   0.14722827 
   53400   -940.42703    48.551874   -891.87515     1738.952    1700.1628    2.1680132    36.949073    0.1509434 
   53500   -945.58215     45.52104   -900.06111    1630.3986   -1000.7129    2.1783186    38.447815   0.15816627 
   53600   -934.54698    44.836433   -889.71055    1605.8784   -4865.4989    2.1430071    35.955461   0.16650077 
   53700   -936.75688    47.743144   -889.01373    1709.9863    9234.8972     2.182017    38.321081   0.15851631 
   53800   -940.68933    48.243135   -892.44619    1727.8941    3315.6912    2.1724074     36.43634   0.13342492 
   53900   -935.49993    51.299306   -884.20062    1837.3551   -7680.4125    2.1332068    35.647382   0.15331397 
   54000   -937.02061    52.842613   -884.17799    1892.6308    4155.9258     2.164811    38.324492   0.15803794 
   54100   -940.53625    50.611127   -889.92513     1812.707     2936.314      2.16916    39.250247    0.1561222 
   54200    -943.3839    50.682947   -892.70095    1815.2793   -7503.2232    2.1488766    38.927149   0.12717182 
   54300   -936.43663    53.395729    -883.0409    1912.4414    2426.6116    2.1568008    42.368238   0.17003357 
   54400   -939.12715    52.562205   -886.56495    1882.5876    5794.9223    2.1755014    36.411532   0.15605711 
   54500   -939.92949    47.357024   -892.57247    1696.1568   -6966.7825    2.1446165    41.926987   0.16836293 
   54600   -939.50596    50.875911   -888.63004    1822.1906   -3357.4896    2.1535505    35.970842   0.15219529 
   54700   -931.13763    50.937616   -880.20001    1824.4007    12459.927    2.1745211    44.929472   0.16130884 
   54800    -940.5412    50.390735   -890.15046    1804.8134   -3309.5365    2.1527246    37.687155   0.13467962 
   54900   -940.87817    48.686465    -892.1917    1743.7726   -11250.012    2.1328279    37.918319   0.14040607 
   55000   -941.70866      55.8802   -885.82846    2001.4261    10262.366    2.1862885    37.705483   0.14516289 
   55100   -943.75356    50.813895   -892.93967    1819.9694    1727.4354    2.1724971    37.544277   0.15945912 
   55200   -942.87705    46.438214   -896.43884    1663.2484    -7157.831     2.150107    38.734426   0.13921024 
   55300   -940.94431     52.43021    -888.5141      1877.86    1479.1338    2.1652221    39.865512   0.14160676 
   55400   -938.79253    48.352851   -890.43968    1731.8238    4222.2523    2.1681865    37.871507   0.14093309 
   55500   -946.83785    47.759605   -899.07824    1710.5758    -4849.621    2.1655498    41.204902   0.12447406 
   55600   -939.77164    49.894162   -889.87748    1787.0279   -2586.9417    2.1550526    36.601082    0.1344027 
   55700   -938.29099    49.922697   -888.36829      1788.05    5990.9213    2.1741834    38.192891   0.14983335 
   55800    -942.6239    48.056357   -894.56755    1721.2044    -1568.167    2.1610666    39.209309    0.1265152 
   55900   -940.98615    49.339436   -891.64672    1767.1597   -3168.2666    2.1527041    35.319412    0.1290858 
   56000   -936.79106    51.169249   -885.62181    1832.6969    2449.4757    2.1661078    37.913157   0.15531988 
   56100   -939.92495    48.944605   -890.98035    1753.0183    -4150.934     2.154713    39.428373   0.13671254 
   56200   -945.22788    52.081641   -893.14624    1865.3755   -6126.0803    2.1558633    33.305939   0.13216202 
   56300   -938.55004    56.079434    -882.4706    2008.5619    5459.4063    2.1693364    41.075138   0.14577076 
   56400   -940.13914    53.606103   -886.53304    1919.9762    1291.0508    2.1644184    38.221564    0.1497613 
   56500    -943.2745    50.419462   -892.85504    1805.8423   -14513.275    2.1323171    40.967429   0.14897484 
   56600   -940.77857    52.708391   -888.07018    1887.8234    6653.0942    2.1737632     38.11635   0.13766954 
   56700   -939.87768    60.818909   -879.05877    2178.3128    10559.403    2.1793233    37.641159   0.12998128 
   56800   -938.10422    49.497829   -888.60639    1772.8327   -13022.422    2.1248463    38.278416   0.13495141 
   56900   -940.68425    49.248721   -891.43553    1763.9106   -2298.2644     2.155409    37.793345   0.14271867 
   57000   -941.88497    54.794433   -887.09054    1962.5379    12529.064    2.1913998    39.433468   0.14624365 
   57100   -936.78964    52.753601   -884.03604    1889.4427   -5714.8307    2.1380499    41.657369   0.15109824 
   57200   -943.25425    47.926547    -895.3277    1716.5551   -2253.1162    2.1654236    39.928932   0.13836905 
   57300   -942.94105    51.623439   -891.31762    1848.9644    3598.7521    2.1784991    38.331144   0.13954622 
   57400   -939.82836    52.398113   -887.43025    1876.7104   -2064.2653     2.155394    37.906365   0.14817486 
   57500   -936.57353    49.948789   -886.62474    1788.9845   -3857.8369    2.1458958    35.334998   0.14151263 
   57600   -941.16422     45.51537   -895.64885    1630.1955    8574.0508    2.1897846    37.783263   0.14510668 
   57700   -940.29639    50.467422   -889.82897    1807.5601   -516.04385    2.1627608    39.607512    0.1560141 
   57800   -939.74084    50.872457   -888.86839    1822.0669   -10287.751    2.1389871    37.907329   0.14511725 
   57900   -944.91089    46.659074   -898.25182    1671.1588    3775.5481    2.1862337    43.307466   0.14095129 
   58000   -944.08639    52.086571   -891.99982    1865.5521    3694.1279    2.1769969    35.916214   0.15363678 
   58100   -937.32702    48.375726   -888.95129    1732.6431   -6200.4876    2.1414122     37.94731   0.14471238 
   58200    -943.6282    51.702011   -891.92619    1851.7785   -3831.5659    2.1591596    38.201828   0.13788535 
   58300     -943.236    46.014525   -897.22148    1648.0734    13726.712    2.2031873    35.249544   0.14789171 
   58400    -939.1298    53.357227   -885.77257    1911.0624   -9757.4886    2.1258381    37.908353   0.15575924 
   58500   -940.51372    50.796053   -889.71767    1819.3304   -9861.7384      2.13795    39.103788   0.14360432 
   58600   -940.62176    50.614359    -890.0074    1812.8228    19572.522    2.2099774    42.815144   0.17697775 
   58700    -943.1551    45.195991   -897.95911    1618.7565   -4534.1448    2.1605532    38.446536   0.13791985 
   58800   -943.30874    46.274062   -897.03468    1657.3691   -9501.0816     2.142003    37.438741   0.14195049 
   58900   -940.02632    50.481479   -889.54484    1808.0635    6253.0611    2.1748447    37.183787   0.13236391 
   59000   -944.58551    54.736095   -889.84942    1960.4484    -1861.399     2.161348    37.027488   0.13296221 
   59100   -942.03139    50.491446   -891.53995    1808.4205   -6335.2461    2.1486628    42.046457   0.13626102 
   59200    -947.5659     46.32213   -901.24377    1659.0907     375.2091    2.1816859    38.249876   0.13346705 
   59300   -938.90493    45.615705   -893.28922    1633.7891    3742.7107    2.1663272     41.31119   0.15052342 
   59400   -939.57979    49.463358   -890.11643    1771.5981    370.83361    2.1564787    39.056264   0.13592695 
   59500   -943.99944    53.732057   -890.26738    1924.4874    -3254.257    2.1554043    39.798456   0.13320801 
   59600   -946.42521    47.628327   -898.79688     1705.874   -258.75635    2.1759874    39.357877   0.13380292 
   59700   -942.06417    45.911833   -896.15234    1644.3953    22.530286     2.165108    36.862628   0.14181356 
   59800   -937.71775    47.531903   -890.18585    1702.4204    5445.2654    2.1654017    38.651549    0.1462298 
   59900   -938.40852    48.388557   -890.01996    1733.1026   -984.64074    2.1507628    34.057639   0.14259917 
   60000   -938.66257    45.673638   -892.98894    1635.8641   -321.79641    2.1506513    36.496583   0.13804022 
   60100   -944.94631     46.41138   -898.53493    1662.2873    10064.722    2.1970027    37.984295   0.14664356 
   60200   -940.23945    50.242296   -889.99716    1799.4968   -995.99145    2.1541155    42.277219   0.14245517 
   60300   -940.21413    49.944255   -890.26987    1788.8221   -11915.086    2.1269749    43.343935   0.13923708 
   60400   -937.06535    49.252779   -887.81257    1764.0559    10302.857    2.1837206    40.425993   0.14737243 
   60500   -931.04139    55.518748   -875.52264    1988.4802    4956.4875    2.1509934    34.299725   0.16101796 
   60600   -934.69805    49.980556   -884.71749    1790.1223   -6882.2183    2.1300965    37.789934   0.16535061 
   60700   -941.92849    52.262192   -889.66629    1871.8422    846.81617     2.163636    35.517658   0.15672593 
   60800   -940.21044    49.807449   -890.40299    1783.9222     9576.088    2.1839525    38.777345     0.154654 
   60900   -936.89445    49.866802   -887.02765     1786.048   -4244.4926    2.1421415    33.531792   0.14713362 
   61000   -935.44555      53.8058   -881.63976    1927.1286   -8115.7375    2.1289298    41.610982   0.16521891 
   61100   -938.52031    48.827862   -889.69245     1748.837     9450.128    2.1850168    38.384885    0.1460775 
   61200   -938.88833    47.692778   -891.19556    1708.1823    2720.0531    2.1650438    33.143733   0.13733924 
   61300   -936.98755    53.098542     -883.889    1901.7972   -5073.3547    2.1393882    35.521218   0.13393985 
   61400   -935.26052    50.996462   -884.26405    1826.5083    2013.8767    2.1535506    36.649185   0.16237909 
   61500   -934.21789    43.554597   -890.66329    1559.9677    6280.1177    2.1651899    41.837706   0.15565807 
   61600   -939.44646    51.099474   -888.34699    1830.1979   -1767.4633     2.155475     41.42825   0.14734818 
   61700   -932.14228    50.119259   -882.02302    1795.0901    715.13783    2.1515072    48.179705   0.16341578 
   61800    -935.9892    44.847391   -891.14181    1606.2709   -150.06799    2.1554964    50.437728    0.1676277 
   61900   -939.56571    48.255706      -891.31    1728.3444   -932.68489    2.1545034    63.476966   0.15915327 
   62000   -934.89501    47.959217   -886.93579    1717.7252    8292.4735    2.1706194    59.121652   0.16048881 
   62100   -938.00282    49.988958   -888.01386    1790.4232    1430.1102    2.1553626    55.034734   0.15681209 
   62200   -944.07017     47.06478   -897.00539    1685.6897     1135.082    2.1745537    39.870531   0.13867968 
   62300   -937.46598    47.842289   -889.62369    1713.5373    2798.1402    2.1693454    37.213095   0.15546786 
   62400   -938.13552    49.919655   -888.21586     1787.941   -2312.4389    2.1539794    39.265773   0.17252288 
   62500   -940.72616    43.137066   -897.58909    1545.0133    415.65523    2.1746272    36.301405   0.15478537 
   62600   -942.84009    49.978673   -892.86141    1790.0548    3008.7482    2.1803971    36.110747   0.14588084 
   62700   -940.84189    52.954717   -887.88718    1896.6459   -3148.0091    2.1586489    37.430507   0.14210859 
   62800   -940.73913      47.1061   -893.63303    1687.1697   -7463.1869    2.1443087    39.029657    0.1407646 
   62900    -940.8537    46.811304    -894.0424    1676.6111    9498.3516    2.1874398    37.203111   0.13957883 
   63000   -935.64574    51.062882   -884.58286    1828.8872    3439.2344    2.1602538    44.838344   0.15060548 
   63100   -940.40677    48.897413   -891.50936     1751.328   -10410.261    2.1362933    41.075335   0.14642956 
   63200   -941.27577    49.442303   -891.83347     1770.844    4044.0184     2.173448    38.700671   0.13694431 
   63300    -937.2222    56.311645   -880.91056    2016.8789    6853.5606    2.1682314    38.203499   0.14863797 
   63400   -938.80261    50.848906   -887.95371    1821.2234   -2877.9188    2.1446723    42.291109   0.14604679 
   63500    -940.7145     47.63468   -893.07982    1706.1015   -4029.6129    2.1512888    37.613265   0.14633074 
   63600   -936.50464     49.92618   -886.57846    1788.1747    10402.322    2.1778809    35.166349   0.14382636 
   63700   -937.67891    52.543058   -885.13585    1881.9018   -1287.7314    2.1481315        39.08   0.14218664 
   63800   -941.54043    46.998335    -894.5421    1683.3099   -6100.1864    2.1494841    37.154237   0.12173005 
   63900   -936.99342    47.709728   -889.28369    1708.7894    9232.0026    2.1774287    40.068008   0.15189876 
   64000   -936.85986    51.670946   -885.18891    1850.6659    4973.0191    2.1634124    39.399717   0.16677945 
   64100   -942.48679    47.919381   -894.56741    1716.2985   -11395.225    2.1376905    40.911255   0.14415975 
   64200   -943.62021    50.110165   -893.51004    1794.7644   -1246.2036    2.1684845    38.435032   0.16219668 
   64300   -939.17596     53.29186    -885.8841    1908.7212     12951.39     2.187308    36.917898   0.15965477 
   64400     -940.544     48.63937   -891.90463    1742.0858   -8560.2155    2.1382783    37.672368   0.14130853 
   64500   -945.57225    48.478026   -897.09423    1736.3071   -5970.2507     2.156216    38.812232   0.14616498 
   64600   -937.08088    50.660568   -886.42031    1814.4778    10370.099    2.1754942    40.580078   0.14228636 
   64700   -939.26938    50.356705   -888.91268    1803.5946    714.50426     2.155679    39.125389    0.1541745 
   64800   -941.37628    47.036781    -894.3395    1684.6869   -3465.9072    2.1569608    36.103006   0.14837508 
   64900   -938.54781    44.866673   -893.68114    1606.9615    7082.1482    2.1736847    36.549509    0.1673472 
   65000   -936.46329    50.861867   -885.60142    1821.6876   -1298.5847    2.1467478     37.33021   0.16685517 
   65100   -945.45675    53.973965   -891.48278    1933.1517   -6476.8894     2.155072    36.884257    0.1288537 
   65200   -943.00119    50.854752   -892.14644    1821.4328     5560.876     2.178459    38.194006   0.13464271 
   65300   -933.93018     52.61282   -881.31736    1884.4004   -243.39101    2.1390557    43.072905    0.1509632 
   65400   -941.73023    51.789887   -889.94035    1854.9259   -1711.4463      2.15953    38.098125   0.13605379 
   65500   -944.16387    52.504749   -891.65912    1880.5297    1546.1704    2.1682599    40.193413   0.13856168 
   65600   -936.81203    51.580944   -885.23109    1847.4424     -151.159    2.1539643    37.330778    0.1457149 
   65700   -935.94141    50.867421   -885.07399    1821.8865   -2933.5146    2.1433143    40.554422   0.14586927 
   65800   -941.34741    48.837982   -892.50943    1749.1994    3848.8627    2.1710704    42.607432   0.15202553 
   65900   -939.86631    51.303301   -888.56301    1837.4982    4496.7794    2.1693411    36.759146   0.13425427 
   66000   -936.99373    52.675052   -884.31868    1886.6293   -7965.9552    2.1330453    34.649675   0.13666824 
   66100   -942.87807    47.014188   -895.86388    1683.8777    3320.0523    2.1756714    36.096438   0.12814601 
   66200   -941.28533    50.080763   -891.20457    1793.7113    5679.8409    2.1738839    37.487711   0.13501232 
   66300   -943.18513      54.8376   -888.34753     1964.084   -9858.9967    2.1371244    38.559631   0.14438153 
   66400   -938.46815    51.375506   -887.09264    1840.0843   -2055.8603    2.1498679     35.83261   0.15892271 
   66500   -942.74073     46.74453    -895.9962    1674.2195    17293.231    2.2102228    39.790469   0.14789772 
   66600    -935.3781    45.613258   -889.76484    1633.7015   -3183.1037    2.1406566     42.02988   0.13387248 
   66700   -936.02781    46.769392   -889.25841      1675.11   -7954.8661     2.133213    38.639907   0.13892196 
   66800   -939.84465    45.906473   -893.93818    1644.2034    14237.082     2.195544    38.220302   0.13597457 
   66900   -947.38721    48.125113    -899.2621     1723.667    1360.0779     2.176602    37.819509   0.13330906 
   67000   -938.84235    49.568612   -889.27374    1775.3679    -13254.72    2.1270491    37.583586   0.14523093 
   67100   -937.21604    47.802559   -889.41348    1712.1143     6920.652    2.1719077    38.469295   0.15162043 
   67200   -945.82611    50.942903   -894.88321      1824.59    3482.1887    2.1824829     35.51125   0.14965981 
   67300   -937.66369      46.6095   -891.05419    1669.3833   -2576.3635    2.1510109    36.316458   0.14624368 
   67400   -937.63149    51.280854   -886.35064    1836.6942   -2352.7958    2.1477743    38.543693    0.1425125 
   67500    -939.1707     49.05216   -890.11854    1756.8705    2845.0699    2.1670618    41.059164   0.14778674 
   67600   -940.00385     46.90606   -893.09779     1680.005    1037.2822    2.1658978    39.898788   0.12272203 
   67700   -934.59779    51.994657   -882.60313    1862.2601   -214.21251    2.1426332    34.964853   0.14177815 
   67800   -937.55535    51.561913   -885.99344    1846.7607    4255.8618    2.1623745     36.79155   0.14379607 
   67900   -939.11099     48.28728   -890.82371    1729.4752   -2338.8304    2.1538819    27.334197   0.15905345 
   68000   -937.76721     51.09465   -886.67256    1830.0251   -3097.7505    2.1497249    24.771871   0.16803486 
   68100   -934.27992    56.844339   -877.43558    2035.9581    5812.8269    2.1586559    30.960076   0.16162935 
   68200   -940.30477    52.143464    -888.1613    1867.5898   -1080.7658    2.1603469    51.339742   0.15945394 
   68300   -941.16297    51.109453   -890.05352    1830.5552   -15965.557    2.1247749    44.622247   0.15718623 
   68400   -940.41247    55.305478   -885.10699    1980.8416    5563.4662    2.1745073    37.967429   0.18036456 
   68500   -941.60605    47.047721   -894.55833    1685.0787    9906.7569    2.1882862     40.02035   0.16128622 
   68600   -939.77183    45.843249   -893.92859    1641.9389   -14637.045    2.1244651    40.780494   0.16329074 
   68700   -939.23463    50.315328    -888.9193    1802.1126    2878.2971    2.1631279    35.055355   0.14943818 
   68800   -935.78594    48.319953   -887.46599    1730.6455    12597.997    2.1823084    38.083524   0.16840301 
   68900   -942.76513     45.87413     -896.891     1643.045   -9713.0794    2.1414976    39.306014   0.16472644 
   69000   -941.84798    48.858549   -892.98943    1749.9361   -1597.5411    2.1566308    38.603659   0.16169927 
   69100   -940.60481    54.773524   -885.83128     1961.789    8247.9826    2.1745771    34.901098   0.16533793 
   69200   -940.80279    49.234386    -891.5684    1763.3971   -3389.6627     2.148686    43.317163   0.16490299 
   69300   -940.72675     44.26404   -896.46271    1585.3774   -2495.2574    2.1589627    37.906261   0.17190743 
   69400   -936.21196    50.189971   -886.02199    1797.6228    6553.6508    2.1667058    37.199296   0.17391365 
   69500   -939.47604    52.419608   -887.05643    1877.4803    2735.9115    2.1649005     36.41709   0.17328684 
   69600   -940.95964     48.48541   -892.47423    1736.5715   -8424.2429    2.1385824     38.88966   0.16546806 
   69700   -940.89535    53.613217   -887.28213     1920.231    2894.2851     2.168256    40.667678   0.19674042 
   69800   -931.24214    48.360715   -882.88142    1732.1054    8950.7817    2.1643624    40.391111   0.17937909 
   69900   -939.18876    47.926542   -891.26221    1716.5549   -5612.7099    2.1458703    36.901617   0.17264202 
   70000   -939.31961    50.739713    -888.5799    1817.3125    1804.7072    2.1585849    39.249854   0.16018525 
   70100   -934.83155    55.100104   -879.73145    1973.4859    4180.6477     2.158622    41.812493   0.19055892 
   70200   -936.81574    47.298382   -889.51736    1694.0565   -832.95527    2.1564173    35.701748   0.17255356 
   70300   -937.66059    46.010026   -891.65057    1647.9123   -5287.0478    2.1441324    38.906622   0.14164042 
   70400   -937.83274    51.130992   -886.70175    1831.3267    7027.6601    2.1711173    37.938212   0.14514581 
   70500   -939.25385    55.197766   -884.05609    1976.9838   -905.45582    2.1526622    42.802879   0.14106568 
   70600   -941.99643    46.860418   -895.13601    1678.3702   -732.46551    2.1650561    37.824647   0.14943672 
   70700   -944.53987    52.690634   -891.84923    1887.1874   -3998.4191    2.1594982    45.429801   0.13728798 
   70800   -939.02457      51.0452   -887.97937     1828.254    928.80444    2.1583189    36.311572   0.14153285 
   70900   -940.99431    50.672349   -890.32196    1814.8998   -1177.1565     2.156444    43.754592    0.1338417 
[...]
  186800   -941.12873    54.680925    -886.4478    1958.4724    418.24571    2.1615521    145.68436   0.19445687 
  186900   -938.81529    48.588517   -890.22677    1740.2645    7468.6024    2.1778079    138.18907   0.18943429 
  187000   -943.55711    47.028315    -896.5288    1684.3837   -5359.8715    2.1566863    139.08763   0.19277556 
  187100   -940.38586    51.881043   -888.50482    1858.1908   -5388.7033    2.1481873    143.68343   0.19786491 
  187200   -940.70054    52.880076   -887.82046    1893.9726    8011.0405    2.1814305    139.41025   0.20869616 
  187300   -946.83099    50.314519   -896.51647    1802.0836   -2067.2618    2.1706617    147.77365   0.19679859 
  187400   -936.09991    47.405929   -888.69398    1697.9085   -11184.096    2.1271619     151.7333   0.20643147 
  187500   -938.91244    52.790383   -886.12206    1890.7601    11488.574    2.1867388    147.41904   0.20534403 
  187600   -941.79924    49.262269   -892.53697    1764.3958    9194.4125    2.1866775    143.46328   0.18628557 
  187700   -935.09198    46.441443   -888.65054    1663.3641   -12860.268     2.117391    143.87162   0.19849183 
  187800    -935.9583    51.773016   -884.18528    1854.3217      393.394    2.1543682     140.5193    0.1956782 
  187900   -943.36206    53.346465    -890.0156    1910.6769    10765.625    2.1923653    142.88961   0.19230856 
  188000   -944.09275    50.346738   -893.74601    1803.2376   -8024.9741    2.1513287    152.14968   0.18763699 
  188100   -934.17591     50.60069   -883.57522    1812.3332   -4818.9938    2.1383651    149.51848   0.20268945 
  188200   -939.32515    49.407548    -889.9176    1769.5992    6970.0945    2.1780961    143.56177   0.21050361 
  188300   -942.40393    49.139168   -893.26476    1759.9868   -1976.2332    2.1634626    153.67267    0.1942916 
  188400   -930.92352    45.229122    -885.6944    1619.9431    832.16323    2.1446745    150.20407   0.19219509 
  188500   -939.96376    50.741866   -889.22189    1817.3896    3037.6269    2.1655553    141.26934   0.18125872 
  188600   -946.16989    51.785619   -894.38427    1854.7731   -211.65349    2.1710558    151.60853   0.17249148 
  188700   -937.33926    49.383698   -887.95556     1768.745    10.807446    2.1516253    149.09394   0.17450356 
  188800    -939.1606    51.433798    -887.7268    1842.1721   -267.52336    2.1553356      152.996    0.1953837 
  188900   -947.18799    50.874733   -896.31326    1822.1484    1057.3509     2.182041     140.3034   0.19387983 
  189000   -938.62995    50.394767   -888.23518    1804.9578   -3517.4943    2.1503974    147.81005   0.21132538 
  189100   -939.56472    50.641831   -888.92289    1813.8067   -4100.8503    2.1478534    143.25201   0.18493049 
  189200   -944.08708    48.512552   -895.57453    1737.5437    7075.1955    2.1899141     151.7605   0.19708126 
  189300   -935.70855    49.606068   -886.10248    1776.7095   -636.65465    2.1517411     151.6781   0.19786342 
  189400   -937.11436    48.929981   -888.18438    1752.4945   -5138.2901     2.135816    132.27434   0.20328698 
  189500    -938.5864    47.545388   -891.04101    1702.9034    9528.3166    2.1775314    131.01864   0.20352983 
  189600   -941.03958    44.700231   -896.33935    1601.0002    5162.2431    2.1763079    129.34092   0.20117283 
  189700   -949.00603    44.744867   -904.26116    1602.5989   -13412.734    2.1503541    146.96082   0.19177434 
  189800   -940.93669      46.8022   -894.13449    1676.2851     538.8948    2.1654684    147.86537    0.2173571 
  189900   -941.07564     50.17935   -890.89629    1797.2423    13906.595    2.1975293    144.98802     0.212688 
  190000   -940.62117    50.788315   -889.83286    1819.0532   -6063.7949    2.1377467    149.05111   0.20217571 
  190100   -933.57312     47.75081   -885.82231    1710.2608   -4539.9874    2.1354017    146.13729   0.20093078 
  190200   -944.64103     48.11129   -896.52974    1723.1719    10534.821     2.201322    145.20109   0.19621501 
  190300   -943.22001    52.065343   -891.15467    1864.7918   -4697.9109    2.1545596    143.69926   0.19721418 
  190400   -941.08487    52.550345   -888.53452    1882.1628   -6574.4194      2.14367    149.24442   0.20110815 
  190500   -944.84579    50.362555   -894.48324    1803.8041    3424.5201    2.1779369    147.76453   0.20573227 
  190600   -940.40194    44.735921   -895.66602    1602.2784    6029.0294    2.1785692    144.43903   0.22274383 
  190700   -938.07811    50.330269   -887.74784    1802.6477   -5026.4525    2.1425303    142.29036   0.23481729 
  190800   -939.82834    49.480817   -890.34753    1772.2234   -80.376867    2.1606263    152.09159   0.20348126 
  190900   -943.64181    48.149304   -895.49251    1724.5335    4399.9068     2.185208    150.04428   0.20979166 
  191000   -935.66398    51.085942   -884.57804    1829.7132   -4296.7432     2.142057    146.77144   0.21597139 
  191100   -939.58461    50.674901   -888.90971    1814.9912   -1633.0438    2.1556182    141.23898   0.21287832 
  191200   -945.16243    52.205178   -892.95725    1869.8002    3651.1117    2.1782646    136.11652   0.19127882 
  191300   -940.16525    54.882381   -885.28287    1965.6879   -3442.5498    2.1480716    141.48783   0.20293826 
  191400   -936.66808    50.638825   -886.02925    1813.6991   -93.441977    2.1501624    147.22439   0.22853108 
  191500   -943.92966    51.524398   -892.40526    1845.4171    2599.1743    2.1742347    141.15857   0.19954294 
  191600   -940.83043    51.294302   -889.53613    1837.1759    2377.7546    2.1658637    155.40676   0.20667132 
  191700   -934.53744    50.826081   -883.71136    1820.4059   -8790.0857    2.1224018    155.44507   0.21254293 
  191800    -941.9626    47.541554   -894.42104    1702.7661    6148.4881    2.1802135    141.90088   0.20053392 
  191900   -939.25298    48.985951   -890.26703    1754.4991      7635.05    2.1800631    139.07992   0.22229579 
  192000   -933.40767    45.913677   -887.49399    1644.4614   -6936.5885    2.1274702    133.90946   0.21744249 
  192100    -943.7593     46.91816   -896.84114    1680.4383   -312.45505    2.1661643    143.69368   0.18535057 
  192200   -942.58293    48.531064   -894.05186    1738.2067    8850.9346     2.186681    149.21078   0.19502908 
  192300   -941.02515    52.473051    -888.5521    1879.3944   -4045.5267     2.145091    154.99904   0.18692493 
  192400   -941.29525     51.22282   -890.07243    1834.6157   -7166.4711    2.1415304    146.82024   0.19458439 
  192500   -943.11991    46.564603   -896.55531    1667.7752    9861.2623    2.1953472    147.88072    0.1984896 
  192600   -937.77328    51.487641   -886.28563    1844.1006    -934.6899    2.1522932    145.53745   0.19360597 
  192700   -938.66331     49.12997   -889.53334    1759.6574   -6391.5062    2.1418183    141.12679   0.21126971 
  192800    -944.0467     50.86288   -893.18382    1821.7239    5915.5167    2.1786889    147.58365   0.18209671 
  192900   -946.64546     51.21598   -895.42948    1834.3707    2203.2993    2.1761885    148.31339    0.1767819 
  193000   -936.06232     51.28115   -884.78117    1836.7048   -12799.434    2.1137407     143.2381   0.21320186 
  193100   -943.26351    53.361444   -889.90206    1911.2134    4013.9595    2.1750338    149.41318    0.1783628 
  193200   -939.81091     49.27099   -890.53992    1764.7082    13251.253    2.1923092    164.09414     0.200998 
  193300   -936.62226    51.725074   -884.89719    1852.6046   -14579.734    2.1091634    146.50334   0.19034389 
  193400   -935.73356    52.793145   -882.94041     1890.859   -3399.4246    2.1399131    146.95424   0.19367574 
  193500   -939.96215    50.745274   -889.21688    1817.5117    14012.588    2.1945961    139.13689   0.19727107 
  193600   -940.38132    48.681307   -891.70001    1743.5879   -2331.8751    2.1517944    139.70154   0.17453813 
  193700   -935.68562    52.138631   -883.54698    1867.4167   -4405.4891    2.1383696    153.11952   0.18830403 
  193800    -934.3972    49.151782   -885.24542    1760.4386    3776.7211    2.1565353     150.5401   0.20391468 
  193900   -943.09571    51.507535   -891.58818    1844.8131   -1672.9678    2.1632614    147.68824   0.19485765 
  194000   -941.30959    51.589984    -889.7196    1847.7661   -1746.9623    2.1597398    154.31089   0.20139003 
  194100   -935.54521    53.246882   -882.29832    1907.1102   -147.12033    2.1499317    153.46882   0.19171593 
  194200   -939.04206    51.121865   -887.92019    1830.9998   -813.65005    2.1519779     148.9793   0.19858002 
  194300   -938.00211    46.265255   -891.73686    1657.0536   -1596.3086    2.1605327    147.31705   0.21074567 
  194400   -939.48255    50.164584   -889.31796    1796.7135    3995.7228    2.1744798     144.4941   0.20600722 
  194500   -938.04097    50.617885   -887.42309    1812.9491    101.22118    2.1586368    142.89519   0.20188369 
  194600   -934.75303    59.396065   -875.35697    2127.3516   -3771.7701    2.1323722    147.79744   0.18698559 
  194700   -936.56872    54.747654   -881.82106    1960.8624    7266.9834    2.1604573    133.84724    0.2053656 
  194800   -936.96864    50.045562   -886.92308    1792.4505   -1724.4047    2.1492603    134.47928   0.20036497 
  194900   -939.86347    49.272087   -890.59138    1764.7475   -4554.1058     2.144599    138.77648    0.2164799 
  195000   -943.66929    52.975464   -890.69383     1897.389    2870.8375     2.173865    131.41715   0.22164069 
  195100   -936.52816    57.496621   -879.03154    2059.3204    -5680.235    2.1322745    125.96064   0.22798178 
  195200   -938.07296    51.082611   -886.99035    1829.5939     -2382.19    2.1484602    127.24253   0.22561785 
  195300   -940.63619    51.000901   -889.63529    1826.6673    10235.293    2.1827604    123.16664   0.20687525 
  195400   -942.66719    49.531375   -893.13582    1774.0342   -6356.6289    2.1506468    146.03831   0.20101237 
  195500   -932.66087    51.025554   -881.63531    1827.5503   -10076.907    2.1143925    122.65302   0.21016906 
  195600   -942.59622    54.340711   -888.25551    1946.2872    13281.481    2.1930706    124.74577   0.20587847 
  195700   -939.85186    48.585782   -891.26608    1740.1665   -933.09973    2.1604766    119.33629   0.22180769 
  195800   -935.29104    47.308639    -887.9824    1694.4239   -8794.0307    2.1311571    141.08764   0.21857756 
  195900   -932.63046    53.054917   -879.57554    1900.2347    4402.7004    2.1593858    128.43966   0.22920587 
  196000   -940.17931    50.143935   -890.03538    1795.9739    5486.8601    2.1766119    124.97353   0.22188386 
  196100   -939.87709    48.465171   -891.41192    1735.8467   -9357.3708    2.1385586    132.80244   0.22010125 
  196200   -935.28569    49.613806   -885.67189    1776.9866    2049.6356     2.153827    128.26818   0.20790945 
  196300   -939.72399    50.087568   -889.63643     1793.955    2714.0941    2.1688208    150.32532   0.20387683 
  196400   -939.56039    44.463146   -895.09724    1592.5087    903.63628    2.1664349    151.44881   0.19054818 
  196500   -938.58152    50.050801   -888.53072    1792.6382    1204.3884    2.1571217    140.99562   0.18741384 
  196600   -940.69443    53.486808   -887.20763    1915.7035     1131.494    2.1606936    145.31039   0.18558195 
  196700   -944.26233    47.383451   -896.87888    1697.1034     2153.176    2.1722077     137.4012    0.1960465 
  196800   -940.49643    51.224217   -889.27221    1834.6657   -3655.5844    2.1522614    153.51846   0.18826673 
  196900   -940.33536    52.455613   -887.87975    1878.7698    1748.6702    2.1635601    147.29811   0.20217121 
  197000   -948.01037    51.318145   -896.69222    1838.0298    1847.0476    2.1836585    148.32094   0.18542492 
  197100   -940.74003     52.32248   -888.41755    1874.0015   -9722.1098    2.1349673    147.96421   0.18949495 
  197200   -941.58997    53.650405   -887.93957    1921.5629    673.90752     2.166055    149.47229   0.19279688 
  197300   -941.61655    49.664745   -891.95181    1778.8111    10426.693    2.1883134    144.74871   0.19736232 
  197400   -944.22116    48.454193   -895.76697    1735.4535   -13133.756    2.1349615    147.45908   0.19025326 
  197500   -935.55786    50.523889   -885.03397    1809.5825   -5237.5358    2.1362184     143.4162   0.20246417 
  197600   -939.42614    52.631738    -886.7944     1885.078    17139.467    2.2007151    146.76266   0.21166982 
  197700   -941.95501    49.004259   -892.95075    1755.1549   -8108.7882    2.1451081    140.39107   0.20182811 
  197800   -938.46355    50.817434   -887.64612    1820.0962   -8304.6844    2.1341654    154.31744   0.19517795 
  197900   -935.71903      55.3433   -880.37573    1982.1963    8574.9529    2.1671394    152.50964   0.19887949 
  198000   -939.84947    48.365272    -891.4842    1732.2686    3536.5843    2.1686036    147.84504   0.19524282 
  198100   -941.46871    50.112796   -891.35591    1794.8586   -8966.4896    2.1347275    144.78138   0.18140865 
  198200   -938.10816     53.02469   -885.08347    1899.1521    2917.5328    2.1588246    135.83191   0.20023767 
  198300   -942.65393    49.091257   -893.56267    1758.2708    4378.8911    2.1748545    138.87562   0.18577578 
  198400   -939.14853    44.927288   -894.22124    1609.1325    -4861.199     2.142108     145.9331   0.20149487 
  198500   -932.75356    44.695021   -888.05854    1600.8135    6475.5135    2.1609764    129.71434   0.21775481 
  198600   -939.44637    53.261875   -886.18449    1907.6472    3289.7165    2.1663465    145.57875     0.186763 
  198700   -943.17224    47.158377   -896.01386    1689.0421   -7770.5665     2.149873    147.15053   0.19338421 
  198800   -943.18039    49.168809   -894.01158    1761.0484   -4274.6835    2.1579166    148.60003   0.18047149 
  198900   -939.29701    51.633578   -887.66343    1849.3275    7251.6132    2.1782163    147.05189   0.19831786 
  199000    -938.7736    46.456267   -892.31734     1663.895   -1689.0247    2.1540297    149.01969   0.20302494 
  199100   -942.54856    43.668441   -898.88011    1564.0452   -2688.9955    2.1626467    148.14551   0.18720843 
  199200   -938.97768    50.295881   -888.68179    1801.4161    3336.7508    2.1657631    142.26962   0.17544491 
  199300   -942.31728    52.826898   -889.49038    1892.0679    482.11901    2.1627777     145.6802   0.19819805 
  199400   -945.23827    49.700679   -895.53759    1780.0981   -5752.2695    2.1563741     152.3704    0.1851134 
  199500    -942.0692    46.648802    -895.4204    1670.7909    3774.6054    2.1735371    146.65477   0.19377591 
  199600   -939.64632     52.16477   -887.48155    1868.3529   -1484.4868    2.1509945    143.69413    0.1833461 
  199700    -941.1893    50.237529   -890.95177    1799.3261   -2003.6074    2.1544137    146.38867   0.17951108 
  199800   -942.24435    48.639563   -893.60479    1742.0928    4518.5676    2.1721221    151.58719    0.1847286 
  199900   -936.02059    53.451577   -882.56901    1914.4416    2981.1356    2.1547717    140.34204   0.20143797 
  200000   -943.05922    56.701402   -886.35782    2030.8386   -1869.4951    2.1561299    145.84877    0.1848579 
  200100   -941.03022    49.465713   -891.56451    1771.6825   -1716.0662    2.1589713    141.44894   0.19509544 
  200200   -939.54192    48.239578   -891.30235    1727.7667    3203.6909    2.1667903    149.11166   0.20422873 
  200300   -933.11671    52.086106    -881.0306    1865.5354   -286.49257    2.1415241    149.67426   0.19536403 
  200400   -937.64638    46.896301   -890.75008    1679.6554    1167.5246    2.1647639    146.18985   0.20424328 
  200500   -938.02641     47.01046   -891.01595    1683.7442    3522.0479    2.1648641    139.84817    0.1960091 
  200600   -936.85483    52.459445   -884.39539    1878.9071   -5310.3376    2.1423363    146.63192   0.20969039 
  200700   -934.29828    49.116728   -885.18155    1759.1831    2367.3747    2.1506098    141.37734   0.20663404 
  200800   -938.46978    46.508201   -891.96158    1665.7551    6941.4546    2.1747242    147.68963   0.20435067 
  200900   -940.18725    50.592137   -889.59511    1812.0269    -1232.239    2.1601079    138.94235   0.20282031 
  201000   -935.10081    49.433853   -885.66696    1770.5413   -5313.8407    2.1394053    145.28704    0.2123891 
  201100   -944.37645    47.392574   -896.98388    1697.4301    5835.1482    2.1850615    147.26768    0.1978682 
  201200   -943.85582    50.476057   -893.37976    1807.8693   -1863.9478    2.1611046    149.09095   0.18731371 
  201300   -937.13121    47.925212     -889.206    1716.5073   -2576.3977      2.14808    140.99335   0.19846194 
  201400   -940.50323    53.502089   -887.00114    1916.2508    4177.0771     2.169733    151.21385   0.20883534 
  201500   -946.81638    49.371462   -897.44492    1768.3067    2590.3089    2.1863471    146.49727   0.20275085 
  201600   -941.01248     50.26038    -890.7521    1800.1445       -12208    2.1366055    152.31411   0.20379307 
  201700   -938.96366    50.911409   -888.05225     1823.462    4004.0513    2.1679769    138.90862   0.19998795 
  201800   -943.10682    49.049641   -894.05718    1756.7803    9028.3071    2.1963188     142.5876   0.20554805 
  201900   -937.97638    47.214973    -890.7614    1691.0691    -6417.056    2.1426678    145.59718   0.21492821 
  202000   -937.10578    50.485719   -886.62007    1808.2154   -3350.3361    2.1498165    142.39382   0.23363406 
  202100   -936.70992    48.117153   -888.59276    1723.3819    8179.0304    2.1832274     152.8314    0.2325156 
  202200   -943.37184     49.29114    -894.0807    1765.4299    -4083.804    2.1621143    146.25481   0.21846222 
  202300   -935.76424    52.434057   -883.33018    1877.9978   -9764.0507    2.1335954    136.99512   0.24951181 
  202400    -937.8411    53.491308    -884.3498    1915.8647    9546.5532    2.1821346    151.96231    0.2293547 
  202500   -942.70024    53.686481   -889.01376    1922.8551   -2886.2366    2.1632402    144.49669   0.20237899 
  202600   -936.87739    48.002116   -888.87527    1719.2617   -12151.749     2.124538    155.66927   0.22832619 
  202700   -945.80772    46.417121    -899.3906    1662.4929    13836.366    2.2149089     150.8661   0.21139222 
  202800   -943.53693    49.040696   -894.49623    1756.4599    3408.7108    2.1848931    155.68941   0.20192565 
  202900   -940.18431    49.545238   -890.63907    1774.5308    -18345.27    2.1189714    162.61993   0.20180408 
  203000   -939.32204    50.663617   -888.65842     1814.587    5732.8138    2.1771472    154.74491   0.19127224 
  203100   -942.60154    48.183319   -894.41822    1725.7517    13105.878    2.2029215    144.24275   0.19822884 
  203200   -943.38431     42.73595   -900.64836    1530.6467   -8133.7452    2.1549542    145.10804   0.21235978 
Loop time of 141.33 on 1 procs for 200000 steps with 217 atoms

Performance: 366.800 ns/day, 0.065 hours/ns, 1415.125 timesteps/s
100.0% CPU use with 1 MPI tasks x no OpenMP threads

MPI task timing breakdown:
Section |  min time  |  avg time  |  max time  |%varavg| %total
---------------------------------------------------------------
Pair    | 134.43     | 134.43     | 134.43     |   0.0 | 95.12
Neigh   | 3.6627     | 3.6627     | 3.6627     |   0.0 |  2.59
Comm    | 0.9597     | 0.9597     | 0.9597     |   0.0 |  0.68
Output  | 0.072015   | 0.072015   | 0.072015   |   0.0 |  0.05
Modify  | 1.8884     | 1.8884     | 1.8884     |   0.0 |  1.34
Other   |            | 0.319      |            |       |  0.23

Nlocal:    217 ave 217 max 217 min
Histogram: 1 0 0 0 0 0 0 0 0 0
Nghost:    945 ave 945 max 945 min
Histogram: 1 0 0 0 0 0 0 0 0 0
Neighs:    4100 ave 4100 max 4100 min
Histogram: 1 0 0 0 0 0 0 0 0 0
FullNghs:  8200 ave 8200 max 8200 min
Histogram: 1 0 0 0 0 0 0 0 0 0

Total # of neighbors = 8200
Ave neighs/atom = 37.788
Neighbor list builds = 6224
Dangerous builds = 99
Total wall time: 0:02:23
