LAMMPS (3 Mar 2020)

# ---------- 1. Initialize simulation ----------
units metal
atom_style atomic
dimension 3
boundary p p p
read_data /home/modeler/RemLabs/Project/test_equil_npt_nn_day2/n3_T1600_timestep3.000000e-03_eqsteps3200_time600/20201205-021854/lammps.data
  orthogonal box = (0 0 0) to (17.469 17.469 17.469)
  1 by 1 by 1 MPI processor grid
  reading atoms ...
  217 atoms
  read_data CPU = 0.00112813 secs

pair_style meam/c
pair_coeff * * library.meam Li Si LiSi.meam Li Si
Reading potential file library.meam with DATE: 2012-06-29
Reading potential file LiSi.meam with DATE: 2020-11-07

group Li type 1
1 atoms in group Li
group Si type 2
216 atoms in group Si

velocity all create 1600 3320 dist gaussian

# ---------- 2. Specify equilibration ensemble  ----------
fix 1 all npt temp 1600 1600 0.15 tchain 2 iso 1.0 1.0 1.0 pchain 2
# fix 1 all nvt temp 1600 1600 0.15

# ---------- 3. Run equilibration -------------
timestep 0.003
run 3200
Neighbor list info ...
  update every 1 steps, delay 10 steps, check yes
  max neighbors/atom: 2000, page size: 100000
  master list distance cutoff = 6
  ghost atom cutoff = 6
  binsize = 3, bins = 6 6 6
  2 neighbor lists, perpetual/occasional/extra = 2 0 0
  (1) pair meam/c, perpetual
      attributes: full, newton on
      pair build: full/bin/atomonly
      stencil: full/bin/3d
      bin: standard
  (2) pair meam/c, perpetual, half/full from (1)
      attributes: half, newton on
      pair build: halffull/newton
      stencil: none
      bin: none
Per MPI rank memory allocation (min/avg/max) = 8.895 | 8.895 | 8.895 Mbytes
Step Temp E_pair E_mol TotEng Press Volume 
       0         1600   -951.04357            0   -906.37126   -115280.58    5330.9442 
    3200    1551.4847   -944.03891            0   -900.72116    5776.1526    4608.3303 
Loop time of 2.44169 on 1 procs for 3200 steps with 217 atoms

Performance: 339.699 ns/day, 0.071 hours/ns, 1310.567 timesteps/s
100.0% CPU use with 1 MPI tasks x no OpenMP threads

MPI task timing breakdown:
Section |  min time  |  avg time  |  max time  |%varavg| %total
---------------------------------------------------------------
Pair    | 2.3574     | 2.3574     | 2.3574     |   0.0 | 96.55
Neigh   | 0.030932   | 0.030932   | 0.030932   |   0.0 |  1.27
Comm    | 0.015306   | 0.015306   | 0.015306   |   0.0 |  0.63
Output  | 3.2594e-05 | 3.2594e-05 | 3.2594e-05 |   0.0 |  0.00
Modify  | 0.032511   | 0.032511   | 0.032511   |   0.0 |  1.33
Other   |            | 0.005483   |            |       |  0.22

Nlocal:    217 ave 217 max 217 min
Histogram: 1 0 0 0 0 0 0 0 0 0
Nghost:    957 ave 957 max 957 min
Histogram: 1 0 0 0 0 0 0 0 0 0
Neighs:    4238 ave 4238 max 4238 min
Histogram: 1 0 0 0 0 0 0 0 0 0
FullNghs:  8476 ave 8476 max 8476 min
Histogram: 1 0 0 0 0 0 0 0 0 0

Total # of neighbors = 8476
Ave neighs/atom = 39.0599
Neighbor list builds = 49
Dangerous builds = 0

# ---------- 4. Describe computed properties----------
compute msdli Li msd
compute msdsi Si msd
thermo_style custom step pe ke etotal temp press density c_msdli[4] c_msdsi[4]
thermo 100

# ---------- 3. Run production -------------
timestep 0.003
run 200000
Per MPI rank memory allocation (min/avg/max) = 9.664 | 9.664 | 9.664 Mbytes
Step PotEng KinEng TotEng Temp Press Density c_msdli[4] c_msdsi[4] 
    3200   -944.03891    43.317749   -900.72116    1551.4847    5776.1526    2.1884951            0 1.1944332e-31 
    3300   -951.72422    44.592764   -907.13145    1597.1511    10209.336    2.2123837   0.22927115   0.10697968 
    3400   -949.48371    41.167139   -908.31657    1474.4576   -3479.6251    2.1786554  0.049290807   0.12183829 
    3500   -944.63585    42.762962   -901.87288    1531.6142   -8554.1882    2.1562734  0.065427037    0.1053942 
    3600   -947.79148    45.328009   -902.46347    1623.4849     3263.273    2.1909412   0.32128191   0.13498285 
    3700   -951.73544    43.236189   -908.49925    1548.5635    9432.3328    2.2179959   0.18267245  0.096285807 
    3800   -949.28178    43.648591   -905.63319    1563.3342   -3700.0193    2.1799894   0.24435082   0.12606905 
    3900   -943.60706    42.089137   -901.51792    1507.4803   -8138.7892    2.1555753  0.085362553    0.1314346 
    4000   -944.05143    41.132024    -902.9194    1473.1999    5686.1523    2.1895035  0.027436385   0.12080967 
    4100   -950.78126    45.366859    -905.4144    1624.8764    9340.5572    2.2078525  0.063834839   0.10479995 
    4200   -943.72578    47.939059   -895.78672    1717.0032   -4289.4608    2.1622057   0.23618739   0.10683932 
    4300   -945.50446    46.272747   -899.23171     1657.322   -4618.5649    2.1615431   0.07972844    0.1088019 
    4400   -948.05919    44.633454   -903.42574    1598.6084    5078.4422    2.1922528   0.15210327   0.12869597 
    4500   -948.51717    44.275838   -904.24133    1585.7999    5249.4576     2.194071   0.11952822   0.11547848 
    4600   -945.56056    50.632009   -894.92855     1813.455   -9200.7146    2.1489321   0.12283149   0.11873405 
    4700     -945.647    42.424849   -903.22215    1519.5042   -1655.7359    2.1726969   0.14808447   0.13704685 
    4800   -948.46598    44.567797   -903.89819    1596.2569    5599.2203    2.1940356   0.08274369   0.14043101 
    4900   -944.85674    45.726057   -899.13068    1637.7415    3517.9221    2.1796521  0.042642708   0.13384497 
    5000    -944.1098    45.963956   -898.14584    1646.2622   -9067.4181     2.149276  0.040304567   0.13803813 
    5100    -946.3594    40.502831   -905.85657    1450.6645    1674.7835    2.1812242  0.070948046   0.13028789 
    5200   -948.11942    47.158008   -900.96141    1689.0288    9665.2579    2.2032388   0.16000757   0.11086518 
    5300   -947.41236    46.388122   -901.02424    1661.4543   -2049.0992    2.1713037   0.63197166   0.12470746 
    5400    -952.1054    42.344082   -909.76131    1516.6115   -8782.5808    2.1688821   0.47697248   0.12306604 
    5500   -947.96233    44.213081   -903.74925    1583.5522    749.95874    2.1827938   0.21342238   0.12091633 
    5600   -947.83277    47.601088   -900.23168    1704.8983    5531.8892    2.1940107   0.38903567   0.14079621 
    5700   -948.82324    41.398446    -907.4248    1482.7422   -972.00242     2.181219   0.23687048   0.13437785 
    5800   -946.56289     40.14622   -906.41668     1437.892   -5723.0203    2.1661019   0.18574509   0.15657571 
    5900    -947.2261    46.496675   -900.72943    1665.3423    2700.3424    2.1851165  0.086874682   0.15158194 
    6000   -951.60613    47.869269   -903.73686    1714.5036    3995.1168    2.1962025   0.11078781   0.13774218 
    6100   -946.61087    36.658757   -909.95211    1312.9837    -1389.299    2.1806559  0.072929888   0.13485572 
    6200   -941.19943    40.664679   -900.53475    1456.4613   -5466.8964    2.1538388   0.36407973   0.14662957 
    6300    -951.5922    50.027672   -901.56453    1791.8098    4103.3057     2.196321   0.38051199   0.12681452 
    6400   -947.73167    42.681799   -905.04987    1528.7073    8863.4649     2.200804   0.15226694   0.12290645 
    6500   -946.46233    48.846505   -897.61582    1749.5047   -8512.2908    2.1537605   0.43761029   0.14018661 
    6600   -947.55444    48.621095   -898.93335    1741.4313   -7062.2494    2.1618853   0.19381028   0.13141686 
    6700   -947.96453    44.263522   -903.70101    1585.3588    6052.8853    2.1941984   0.13105251   0.13390252 
    6800   -949.20572    45.691836   -903.51388    1636.5159    3276.8643    2.1916997  0.060912698   0.14235019 
    6900   -942.07573    46.956912   -895.11882    1681.8263   -5603.3015     2.151575   0.14127769   0.13475788 
    7000   -950.19049     45.72121   -904.46928    1637.5679   -2020.0797    2.1786284  0.023807169    0.1201782 
    7100   -951.26548    47.548682    -903.7168    1703.0214    3843.1092    2.1954556   0.12974194   0.12633683 
    7200   -943.76027    45.144843   -898.61543    1616.9246    2658.1473    2.1773064  0.060213104   0.12890235 
    7300    -943.9005    44.354145   -899.54635    1588.6046   -10089.977    2.1458371   0.33754504    0.1314676 
    7400   -951.65713    45.507195   -906.14994    1629.9027   -2868.2339    2.1800339  0.042921197   0.12368383 
    7500   -948.29766    48.367787   -899.92988    1732.3587    19662.151    2.2281054  0.076232084   0.12486658 
    7600   -946.84474    43.776452   -903.06829    1567.9138    409.21949    2.1787454   0.24065939   0.11296101 
    7700   -950.93451    40.079933   -910.85457    1435.5179   -13757.692    2.1551886    0.1221458   0.13050089 
    7800   -949.58601    45.528339   -904.05767      1630.66   -226.72522    2.1827831   0.19364367   0.12738685 
    7900   -946.78247    46.599303   -900.18316     1669.018    9010.5702    2.2009431    0.1550166   0.14316044 
    8000   -951.39651     44.77813   -906.61838    1603.7902   -1745.3215    2.1814733   0.12275937   0.12767088 
    8100   -950.67424    42.684223   -907.99002    1528.7941   -6459.1028    2.1718144  0.072720158   0.11701836 
    8200   -946.46963    45.805902   -900.66373    1640.6013    392.20299    2.1786621   0.16447864   0.13484479 
    8300   -947.78106    44.592703   -903.18836    1597.1489    4324.3637    2.1906107   0.47555003   0.10983164 
    8400   -949.62461    40.943111    -908.6815    1466.4338   -711.23159    2.1854669  0.078183761   0.11482438 
    8500   -946.79992    47.405538   -899.39438    1697.8944   -4736.4228    2.1618306   0.11358889   0.11804339 
    8600   -946.69358    45.769985    -900.9236    1639.3149    6353.7331    2.1900392   0.02801034   0.11302161 
    8700   -945.85686    41.142423   -904.71444    1473.5724     6275.734    2.1925345  0.084117264   0.12978386 
    8800   -943.09482     42.54324   -900.55158    1523.7446   -5327.6373    2.1573893   0.41496278   0.13701156 
    8900   -939.66173    42.224241   -897.43749    1512.3192   -4105.1833    2.1530066   0.19884571   0.13860229 
    9000   -950.40062    46.821572   -903.57905    1676.9789    9082.7742    2.2053844  0.082275266   0.13045463 
    9100   -948.02405    44.280644    -903.7434    1585.9721    9209.7206    2.2003302    0.1352264   0.12177726 
    9200   -942.11707    45.695227   -896.42185    1636.6373   -15203.179    2.1312283   0.13546776   0.12285039 
    9300    -946.1068    43.419908   -902.68689    1555.1437   -5970.5626    2.1587261   0.14919004    0.1145002 
    9400   -949.69717    45.851049   -903.84612    1642.2183    11962.296    2.2117167  0.056917364   0.12501458 
    9500    -945.0455    43.676951   -901.36855      1564.35    6742.3379    2.1917282  0.081567792   0.12220178 
    9600   -943.58953    44.034433    -899.5551    1577.1537   -10048.744    2.1451136  0.038488542   0.13000861 
    9700   -953.06475    43.867303   -909.19744    1571.1677   -1780.7225    2.1901186  0.041004471   0.11596983 
    9800   -947.05659    43.893903   -903.16269    1572.1204    6657.7498    2.1953124   0.14912493   0.13420657 
    9900   -946.22635     45.18751   -901.03884    1618.4527   -619.83389    2.1730651   0.45964594   0.14290585 
   10000   -949.83921    41.938996   -907.90021    1502.1027   -4519.3484    2.1714879    0.0404305   0.11544846 
   10100   -952.89408    45.956378    -906.9377    1645.9908    -1752.891    2.1856498    0.1251028   0.11803203 
   10200    -945.2433     44.76122   -900.48208    1603.1846     5558.414      2.18771   0.26444427   0.10670474 
   10300   -948.30573    43.758105   -904.54763    1567.2566   -1085.1842    2.1773618  0.028446788   0.11918265 
   10400   -949.95273     39.82234   -910.13039    1426.2918   -3602.1483    2.1794367  0.076066698   0.12547962 
   10500   -945.67555    44.776377   -900.89917    1603.7274    837.01563    2.1784509  0.022111713   0.11697058 
   10600   -947.33357     45.37962   -901.95395    1625.3334    6388.5158    2.1926198   0.12120193   0.12072919 
   10700   -949.48402    42.028291   -907.45573     1505.301   -943.48746    2.1834931   0.13105458   0.12406129 
   10800   -944.03418    43.809909   -900.22427    1569.1121   -5455.8417    2.1598051   0.34446502   0.14133009 
   10900   -947.20283     47.42723    -899.7756    1698.6714    6324.3238    2.1937773   0.31342844   0.14080393 
   11000   -951.64847    48.425571    -903.2229    1734.4283    6911.0854    2.1988927   0.12526774   0.10880685 
   11100   -949.13148    43.665772   -905.46571    1563.9496   -11135.977    2.1548423   0.10780858   0.12176769 
   11200   -941.36139    45.720673   -895.64072    1637.5487   -10346.578    2.1370701   0.36237369   0.13295643 
   11300   -947.91999    46.225462   -901.69453    1655.6284    16261.347    2.2169732   0.19297532   0.11619216 
   11400   -951.94189    48.094073   -903.84782    1722.5553    4298.0571    2.1957507   0.16444371   0.12008194 
   11500   -948.16076    46.749496   -901.41127    1674.3974   -10893.017    2.1507252    0.1055727   0.11975673 
   11600   -939.07328    44.274576    -894.7987    1585.7548   -569.56109    2.1550928   0.81600531    0.1311677 
   11700   -946.56329    41.664162   -904.89913    1492.2592    11434.019    2.2118503  0.064349037   0.13535963 
   11800   -948.25213      44.9812   -903.27093    1611.0634   -1148.6671    2.1824242   0.30042748   0.14226462 
   11900   -944.47885    45.042446    -899.4364    1613.2571   -7030.7827    2.1534107   0.18448608   0.13241259 
   12000   -951.06221    42.456311    -908.6059    1520.6311    57.550176    2.1894462    0.1188913   0.10983204 
   12100   -952.53219    46.981287   -905.55091    1682.6993      2013.22    2.1961972   0.22882504   0.11527178 
   12200    -942.9667    41.963869   -901.00283    1502.9936    2119.3998    2.1768761  0.059404962   0.12308121 
   12300   -946.77964    43.250752   -903.52889    1549.0851   -5782.0107     2.164768   0.11755891   0.12760673 
   12400   -949.19598    40.102927   -909.09305    1436.3414    3967.8637    2.1916334    0.2786485   0.11488148 
   12500   -944.73519    43.989205   -900.74599    1575.5338    6026.8165    2.1893806   0.54509688   0.11857173 
   12600   -945.84825    43.228423   -902.61983    1548.2853   -930.49262    2.1734627   0.12899771   0.13283362 
   12700   -948.78222    39.226019    -909.5562    1404.9338   -6076.1441    2.1717206   0.22564716   0.12502161 
   12800   -950.42686    47.585369   -902.84149    1704.3353    725.53806    2.1840819    0.2684824   0.13151932 
   12900   -945.97308    45.950867   -900.02222    1645.7934    14283.418    2.2097886   0.18566222   0.13626725 
   13000   -951.46056    45.532447   -905.92812    1630.8071   -6427.0633    2.1713582   0.29278745   0.11582593 
   13100   -945.85709    45.756771   -900.10032    1638.8416   -14180.992     2.138492    0.1122668   0.12545409 
   13200   -943.18894    45.355884   -897.83306    1624.4833    7531.7859    2.1889788   0.25715841   0.12571151 
   13300   -948.09073    45.130994   -902.95973    1616.4285    10527.193    2.2081712    0.1294276   0.12638598 
   13400   -947.78157    42.536116   -905.24546    1523.4894   -6427.4155    2.1674996   0.29541716   0.12907538 
   13500   -945.59726    49.424362    -896.1729    1770.2014   -8768.8828    2.1523991   0.23822476   0.12959649 
   13600   -951.36236    48.013142   -903.34922    1719.6566    3566.0852    2.1977179   0.26523159   0.13361899 
   13700   -948.93721    44.166111    -904.7711    1581.8699    945.76029    2.1888088  0.093522242   0.12634732 
   13800    -945.1102    45.247942   -899.86225    1620.6172   -4369.0712    2.1642663   0.13021229   0.13237289 
   13900   -944.43875    46.167837   -898.27091    1653.5645   -971.06946    2.1684489   0.14418165   0.13175082 
   14000   -950.38166    44.080862    -906.3008    1578.8166    6885.8482    2.2023225   0.26129243   0.12199063 
   14100    -944.7964    42.891961   -901.90444    1536.2345    2970.9407    2.1823183   0.22492885   0.13153735 
   14200   -945.14124    44.763792   -900.37745    1603.2767   -7087.7692    2.1607231   0.10770427   0.11695267 
   14300   -951.01055     41.60547   -909.40509     1490.157    824.94733    2.1916854   0.12456903   0.11747485 
   14400   -947.24436    44.409006   -902.83535    1590.5696    3380.4787    2.1899844   0.36644568   0.12855238 
   14500   -945.96945     44.85622   -901.11323    1606.5871   -132.35421    2.1752618     0.273933   0.12820346 
   14600    -950.4317    41.531759   -908.89994     1487.517   -3238.2135    2.1759265    0.1895209   0.12352607 
   14700   -949.34361    45.063443   -904.28017    1614.0091   -349.70288    2.1824354   0.16136113   0.13376223 
   14800   -950.00462    50.233408   -899.77122    1799.1785    7938.8986    2.2019973  0.075195824   0.13438705 
   14900   -950.89042    45.046825    -905.8436    1613.4139   -2406.0179    2.1797484  0.082039538   0.11969322 
   15000   -948.98993    42.776513   -906.21342    1532.0996   -17238.773    2.1411715  0.076894435   0.12837975 
   15100    -946.2979    47.148781   -899.14912    1688.6983     330.7563     2.178449   0.11118332   0.13009666 
   15200   -947.46532    46.049869   -901.41546    1649.3393    15684.364     2.219292   0.11766019   0.12289638 
   15300   -950.88201    44.574236   -906.30778    1596.4875   -5341.5239    2.1755509   0.26414985   0.12136336 
   15400   -942.01856    44.162754    -897.8558    1581.7497   -10257.209     2.141582   0.23230096   0.13594245 
   15500   -942.29165    41.715759   -900.57589    1494.1072    6057.9066    2.1837912   0.19070911   0.12834099 
   15600   -949.84193    45.063887   -904.77804     1614.025    6515.4199     2.201666   0.07812866   0.14141971 
   15700   -944.87379    44.029381   -900.84441    1576.9727    -577.2406     2.172138  0.034993877   0.12425004 
   15800   -946.88783     49.45457   -897.43326    1771.2834   -8739.8485    2.1561752  0.012149764   0.14295079 
   15900   -951.15228    44.637955   -906.51433    1598.7697    3114.3876    2.1948005   0.20534863   0.12941262 
   16000   -946.75607     45.53331   -901.22276     1630.838         5120    2.1884362   0.30672114   0.14211709 
   16100   -944.59585    45.312708   -899.28315    1622.9369   -2942.6763    2.1632972    0.5760157   0.15992397 
   16200   -948.40846    40.350962    -908.0575    1445.2251   -2755.5574    2.1734892   0.92378201    0.1393263 
   16300   -943.52618    40.714582    -902.8116    1458.2487    4469.8301    2.1823633   0.56662862   0.13996895 
   16400   -940.67186    41.882294   -898.78956    1500.0719    7304.2175    2.1824856    0.3252329   0.14684067 
   16500   -946.57861    40.660842   -905.91777    1456.3239   -2672.5599    2.1747819  0.096571622   0.13715395 
   16600   -944.91595    41.183872   -903.73208    1475.0569   -6149.7146    2.1563872    5.9403472   0.16011329 
   16700   -943.20269    45.018534   -898.18416    1612.4006     5021.602     2.182764    5.9521964   0.16354295 
   16800   -947.04042    44.920367   -902.12005    1608.8846     11274.31    2.2079134    6.1459142    0.1580756 
   16900   -948.57559    42.093907   -906.48169    1507.6511   -7724.5557    2.1622899    2.8750423   0.14852324 
   17000   -941.85591    44.565264   -897.29064    1596.1661   -13438.909    2.1349882    3.9089574   0.15961508 
   17100   -946.56896    45.998581   -900.57038    1647.5024    6343.4195    2.1955517    4.3037961    0.1364879 
   17200   -950.49019    47.523807   -902.96638    1702.1304    7114.5112    2.2019832    4.9994789    0.1616483 
   17300   -945.47507    45.994737   -899.48034    1647.3647   -4929.0181    2.1588039    4.3274675      0.13185 
   17400   -939.65254     43.57739   -896.07514    1560.7841   -6328.3485    2.1445621    5.9009579   0.15224721 
   17500   -947.40357    42.732599   -904.67097    1530.5267     7647.473    2.1982626    4.1018396   0.16530697 
   17600   -940.80268    39.847411   -900.95527    1427.1897    10619.761    2.1923844    5.2521607   0.16449977 
   17700   -942.28894    43.477571   -898.81137    1557.2089   -3535.9623    2.1557214    4.9768008   0.17127043 
   17800   -951.26908    43.148588   -908.12049     1545.426   -1121.2408    2.1823588    5.6045253   0.15701535 
   17900   -951.11161    48.542384   -902.56922    1738.6122     2151.786    2.1860789    3.3111196   0.13730367 
   18000   -941.68168    42.152856   -899.52883    1509.7624    3543.6528     2.176227    6.6816824   0.15280516 
   18100   -948.26103    41.294623   -906.96641    1479.0236   -1102.5708    2.1784105    3.4277468   0.14809965 
   18200   -949.22931    45.359928   -903.86938    1624.6281   -685.75462    2.1766342    5.7051267   0.14570203 
   18300   -943.65225    45.300493   -898.35176    1622.4994    4536.2622    2.1820228    3.8038891   0.16626136 
   18400    -949.2221    43.505867   -905.71624    1558.2224    1091.3697    2.1854627    5.2734624   0.15100305 
   18500    -948.3781     44.14108   -904.23702    1580.9734   -8809.0761    2.1593404    4.9980993   0.14880149 
   18600    -941.8796    43.052407   -898.82719    1541.9811   -193.58195     2.166692    3.8205102   0.14542895 
   18700   -949.44036     45.87902   -903.56134    1643.2201    9847.9612    2.2081764    4.0616143   0.15384066 
   18800   -947.64544    41.669761   -905.97568    1492.4597    2298.0886    2.1877339    3.9921347   0.14299401 
   18900   -942.68597    45.629319   -897.05665    1634.2767   -15578.504    2.1229141    4.6084689   0.16595804 
   19000   -947.27468     43.23468      -904.04    1548.5095   -1597.8897    2.1756741     4.381545   0.14516069 
   19100   -945.14141    42.546583   -902.59482    1523.8643     15725.54    2.2191924    15.014578   0.14664171 
   19200   -942.48614    45.582457   -896.90368    1632.5983    2459.0942    2.1718583    13.781232   0.13625575 
   19300   -946.32948    44.313599   -902.01588    1587.1524   -10293.461    2.1522214     13.52545   0.14662706 
   19400   -949.25944    44.670562   -904.58888    1599.9375   -627.97165    2.1809873    17.321776     0.142253 
   19500   -943.00438    45.993532   -897.01085    1647.3215    8353.0305    2.1887916    14.336986   0.15849995 
   19600   -945.16077    44.074386   -901.08639    1578.5847    3938.2928    2.1793129     14.38997   0.15252666 
   19700   -947.26039    41.617949   -905.64244     1490.604   -4947.2221    2.1664422    15.031192    0.1442951 
   19800   -942.70147    44.507569    -898.1939    1594.0997   -2832.5068    2.1673459    16.968876   0.15641982 
   19900   -946.81941    45.552618   -901.26679    1631.5296    3580.8397    2.1850547    14.277807   0.12900235 
   20000   -950.12716    44.115602   -906.01155    1580.0609    2098.7957    2.1853432    16.157914    0.1370578 
   20100    -944.6343    46.204106   -898.43019    1654.8635   -7040.2184    2.1570678    16.501271   0.14015676 
   20200   -944.91307     43.31329   -901.59978     1551.325   -2374.2278    2.1676228     15.79609    0.1332644 
   20300   -947.24089    41.350457   -905.89043    1481.0234    6920.0754    2.1960482    14.404569   0.14724158 
   20400   -944.24724    47.222677   -897.02457     1691.345    2258.9185     2.172378     13.45618   0.15942822 
   20500   -948.71971    46.992867   -901.72684    1683.1141   -7769.3122    2.1591745    12.178291   0.14345896 
   20600   -948.72416    43.696528   -905.02764    1565.0512   -5298.2201     2.169093    15.303357   0.13982224 
   20700   -948.50366    52.225145   -896.27852    1870.5153    9539.3904    2.2050549    13.407693   0.15709758 
   20800   -947.71028    47.348375    -900.3619    1695.8471     4876.621    2.1888312    14.625388   0.13825664 
   20900   -949.89907    43.971668   -905.92741    1574.9057   -14770.921    2.1463702    14.023866    0.1474638 
   21000   -946.12831    46.292426   -899.83588    1658.0268   -4306.0288    2.1645043    14.682889   0.14672965 
   21100   -942.27752    43.905801   -898.37172    1572.5466    15380.436     2.199509    13.314995   0.15334716 
   21200   -949.91105    43.509801   -906.40125    1558.3633    5269.0425    2.1945211    12.478668   0.14493451 
   21300   -949.42205     48.11702   -901.30503    1723.3772    -12974.69    2.1505767    14.763175    0.1426514 
   21400   -943.98722    44.724509   -899.26271    1601.8697   -2727.7068     2.160095    12.538019   0.15227514 
   21500   -950.54651     44.03699   -906.50952    1577.2453    8332.7291    2.2053322    12.973814   0.14979867 
   21600   -943.55426    44.300021   -899.25424    1586.6661    6271.9353    2.1825772    14.549868   0.14460573 
   21700   -946.93244     47.11774    -899.8147    1687.5866   -5877.3411    2.1621381    12.533297   0.14788373 
   21800   -950.51025     44.11868   -906.39157    1580.1711   -5577.9469    2.1722985    12.000523   0.14470902 
   21900   -944.68358    45.179929   -899.50365    1618.1812    5894.3554    2.1818081     15.55193    0.1487592 
   22000    -944.4168    46.248172   -898.16862    1656.4418    1666.4215    2.1775657    17.734687   0.14249952 
   22100   -947.81431     42.82532   -904.98899    1533.8476   -4317.6763     2.166847    21.503961   0.12082135 
   22200   -947.83758    46.272834   -901.56475    1657.3251   -1058.4952    2.1733333    19.978334   0.13106977 
   22300   -939.84386    44.828916   -895.01494    1605.6092    5218.6997    2.1804013    19.710858   0.14253136 
   22400   -947.99566    43.354376   -904.64128    1552.7965    5996.0256    2.1965068    21.460905    0.1418637 
   22500   -950.19208    46.607178    -903.5849    1669.3001    -10867.78    2.1574864    22.070807   0.11825395 
   22600   -944.11916    44.605635   -899.51352    1597.6121   -7726.1853     2.152915     19.76977   0.14476311 
   22700   -953.36791    44.944989   -908.42292    1609.7665    17416.399    2.2347622    21.006107   0.14099992 
   22800   -950.67625    44.745622   -905.93062    1602.6259    4651.7899    2.1991368    18.960851   0.12783695 
   22900   -946.33465    43.974581   -902.36007      1575.01   -16198.414    2.1341186    21.547875   0.13852625 
   23000   -945.89378    45.137123   -900.75666     1616.648   -4262.1218    2.1672993    21.242953   0.12805289 
   23100   -953.93907    45.392537   -908.54654    1625.7961    11187.199    2.2209501    22.120765   0.10513147 
   23200   -948.35292    46.212686   -902.14023    1655.1708    465.90259    2.1818027    19.772342    0.1200492 
   23300   -945.44608    44.148857   -901.29723     1581.252   -5662.3577    2.1601129    22.913317   0.14507799 
   23400   -950.09366    44.274313   -905.81935    1585.7453   -2052.7592    2.1818787     17.55289   0.12283775 
   23500   -949.32364    42.258461   -907.06518    1513.5448    8113.5862    2.2027293    18.376701   0.12481421 
   23600   -945.67804    46.794528   -898.88351    1676.0103   -4202.9867    2.1680776    21.167773   0.15459459 
   23700   -946.64105    42.988806   -903.65224    1539.7031   -5539.8015    2.1638872      21.9319   0.14130818 
   23800   -949.05623     43.93467   -905.12156    1573.5805    904.85979    2.1880577    23.307044   0.13690821 
   23900   -945.27959    49.900861   -895.37873    1787.2679     2359.988    2.1795501    23.093146   0.14393486 
   24000   -947.47799    46.183872   -901.29412    1654.1388   -2221.4603    2.1750064    23.621504   0.11126397 
   24100   -951.07892    45.705392   -905.37353    1637.0014   -8304.6769    2.1663186    22.243668   0.10947855 
   24200   -946.96531    47.989273   -898.97604    1718.8017     1144.754      2.17769    20.693308   0.13837638 
   24300   -945.27046    47.376718   -897.89374    1696.8622    8720.2633     2.197286    19.979383   0.15387457 
   24400   -949.82968    45.039214   -904.79046    1613.1413   -5627.5208    2.1723651    20.975433   0.13928148 
   24500   -946.48178     43.57879   -902.90299    1560.8342   -12444.968    2.1527668    21.342135   0.14305473 
   24600   -942.93425    46.568278   -896.36597    1667.9068    6278.3849    2.1879381    21.242232    0.1461458 
   24700   -947.64927    42.465334   -905.18394    1520.9542    15794.698    2.2236514    23.972502   0.15930395 
   24800   -948.54386    43.608207   -904.93566    1561.8878   -10266.849     2.161259    24.876913   0.15886024 
   24900   -944.73871    44.059885   -900.67883    1578.0653   -10951.419    2.1487109     20.41356   0.14114084 
   25000   -949.87808    44.162803   -905.71528    1581.7515    6286.1638    2.2026822    19.608121   0.12880124 
   25100   -950.28112    42.781351   -907.49977    1532.2728    8476.1417    2.2066273    19.744309   0.11717139 
   25200   -945.83857    44.754179   -901.08439    1602.9324   -4096.5292    2.1653857    21.161969   0.14063749 
   25300   -946.63572    43.365355   -903.27036    1553.1897   -4685.2784    2.1695003    20.023866   0.15724733 
   25400   -953.16893    44.488874   -908.68005    1593.4301    3898.4953     2.201235    23.180118   0.13034213 
   25500    -947.0983    47.729272   -899.36903    1709.4894    1252.9022    2.1807197    20.376272   0.12798373 
   25600   -944.80255    42.329396   -902.47316    1516.0854   -1889.7519    2.1734616    22.410801   0.15243951 
   25700   -949.39446    41.800785   -907.59367    1497.1525   -1336.1732    2.1831393    22.969872   0.14556276 
   25800   -948.48559    48.239639   -900.24595    1727.7689    2132.9288    2.1866724    22.658202   0.14448253 
   25900   -945.56326    45.481283   -900.08198    1628.9746    4232.8072    2.1849671     19.53819   0.14657524 
   26000   -951.73356    45.692556   -906.04101    1636.5417   -8796.6618     2.166087    21.416813   0.11892982 
   26100   -946.02041    45.528613    -900.4918    1630.6698   -3102.2901     2.169117     19.78851   0.13210629 
   26200   -944.86663    47.769188   -897.09744    1710.9191    10560.742    2.2009509    21.734597   0.14083134 
   26300   -950.17239    45.938654   -904.23373     1645.356    897.94948    2.1865559    19.414655   0.12063941 
   26400   -946.78036    43.679916   -903.10044    1564.4562   -13844.361    2.1416654    22.442177   0.13755376 
   26500   -944.42894     47.50837   -896.92057    1701.5775    -3850.373    2.1642831    21.822094   0.14188229 
   26600   -949.48665    44.245641   -905.24101    1584.7184    19705.195    2.2292312    21.110262   0.13155397 
   26700   -946.61133    42.281217   -904.33012    1514.3599    2416.0488    2.1810663    25.835002   0.13484185 
   26800   -947.33503    47.011399   -900.32363    1683.7778   -12919.285    2.1427899    23.244298   0.14109391 
   26900   -948.70587    41.535695   -907.17017     1487.658    948.45078    2.1846073    22.009161   0.13195296 
   27000   -950.52308    44.505933   -906.01715    1594.0411    7953.5296    2.2018577    18.343987   0.13128519 
   27100   -945.12662    45.031378   -900.09524    1612.8606    2288.7267    2.1728224    18.859812   0.12652008 
   27200   -949.03738    44.033928   -905.00345    1577.1356   -6071.5432    2.1664576    20.858175   0.12613455 
   27300   -950.24969     43.05129    -907.1984    1541.9411    1232.1413    2.1860979    20.566291   0.12726913 
   27400   -946.48298    47.602292   -898.88069    1704.9415    3428.5604    2.1819826     21.22663   0.12375296 
   27500    -948.5625    44.648392    -903.9141    1599.1435   -1291.7761    2.1768658    22.871657   0.12588962 
   27600   -949.84073    42.447715   -907.39301    1520.3232   -2521.5437    2.1736896    19.641061   0.11881621 
   27700   -948.43685     50.17135    -898.2655    1796.9558   -498.41339    2.1737646    21.731853   0.13248231 
   27800   -948.41056    46.076128   -902.33443    1650.2798    6677.9322    2.1936578    19.977427   0.14146304 
   27900   -951.04906    44.398974   -906.65009    1590.2102   -3591.2967    2.1773543    21.016279    0.1405197 
   28000   -942.86673    44.883093   -897.98364    1607.5496   -8964.8777    2.1453024    21.031428   0.14728624 
   28100   -946.76812    45.197938   -901.57018    1618.8262    8597.2358    2.1970677    22.709007   0.12805272 
   28200   -949.21941    44.642811    -904.5766    1598.9436    11201.689     2.210609    19.670642   0.13859168 
   28300    -945.6857    44.877931   -900.80777    1607.3647   -8736.7673    2.1515779    22.862213   0.13494459 
   28400   -942.43857    43.883139   -898.55543    1571.7349   -9664.5066    2.1407834    21.018899   0.12406873 
   28500   -951.76924    45.490112   -906.27913    1629.2908    9496.1918    2.2123087    21.275593   0.12487847 
   28600   -947.62319    46.401007   -901.22218    1661.9158    9011.1827    2.2026565     18.97846   0.13525828 
   28700   -947.66028    46.957861   -900.70242    1681.8603   -10299.226    2.1538808    17.476527   0.13431649 
   28800    -949.0216     40.15267   -908.86893     1438.123   -3113.2823    2.1758383    21.777788   0.14865029 
   28900   -947.15158    44.282307   -902.86928    1586.0316    6324.9111      2.19462    22.251567   0.15462104 
   29000    -946.2372    46.341089   -899.89611    1659.7697    4087.6091    2.1846688    20.986479   0.13160476 
   29100   -950.99825    43.229223   -907.76903     1548.314   -5406.3339    2.1738305    20.780752   0.13929669 
   29200   -945.92052    42.451112   -903.46941    1520.4449   -2081.3509    2.1722978    20.025215   0.12902795 
   29300   -945.24737    45.800123   -899.44725    1640.3943    3884.2253    2.1831482     22.68755   0.12210213 
   29400   -947.10465    41.056008   -906.04864    1470.4773    5048.2924    2.1894565    20.666823   0.12800504 
   29500   -947.05261    43.990502   -903.06211    1575.5803   -3142.6464    2.1699209    18.499857   0.11466265 
   29600   -944.76274     46.18124    -898.5815    1654.0445   -2860.5296    2.1629972    19.234869   0.14424017 
   29700   -947.15332    41.812891   -905.34043    1497.5861    4666.3122    2.1905977    19.859102   0.13848634 
   29800   -946.55376    43.202727   -903.35103     1547.365    5063.6833    2.1896844    21.088226   0.14710431 
   29900   -946.95397    49.179816   -897.77415    1761.4427   -11283.979    2.1479109    22.038229   0.14609556 
   30000   -950.10567    43.317281   -906.78839    1551.4679   -6620.0098    2.1695111    25.535263   0.12875225 
   30100   -950.07781     46.86711    -903.2107    1678.6099     12240.54    2.2088661    21.225961   0.13269741 
   30200   -945.63859    47.707939   -897.93065    1708.7253     5084.953    2.1817923    20.590578   0.13181827 
   30300   -947.01745    43.230389   -903.78706    1548.3558   -15055.817    2.1395098     21.31149     0.129998 
   30400   -946.44232    40.517461   -905.92486    1451.1885    -2844.535    2.1689275    22.703788   0.12605842 
   30500   -945.34352    47.380624    -897.9629    1697.0021    14201.987     2.203234    19.941938   0.12579916 
   30600   -946.95508     43.43889   -903.51619    1555.8235    3935.6452    2.1853177    19.709319   0.12635659 
   30700   -949.41837    41.530567    -907.8878    1487.4743   -9584.9816    2.1624053    19.642098   0.13247124 
   30800   -947.54459     47.88967   -899.65492    1715.2343   -3888.7439     2.167888    23.286689   0.14209516 
   30900   -946.18425    43.085326   -903.09892    1543.1601    6850.2257    2.1969156    24.391495   0.14668739 
   31000   -953.30395    45.813198   -907.49076    1640.8626   -392.79685    2.1891103    20.589717   0.12900992 
   31100   -946.98265     47.99102   -898.99163    1718.8643    -7776.718    2.1554573    23.980805   0.13867972 
   31200   -951.01387    47.550967   -903.46291    1703.1032   -3774.6077    2.1784384    21.098376   0.13563106 
   31300    -948.0167    42.171128   -905.84557    1510.4169    7379.0833    2.1990202    21.173267   0.12286764 
   31400   -944.26345    46.594112   -897.66934    1668.8321   -1306.5312    2.1687285    22.955799   0.13042815 
   31500   -949.64756    46.188884   -903.45867    1654.3183   -5443.3645    2.1643772    22.874876   0.11930631 
   31600   -950.02114    44.205558   -905.81559    1583.2828   -1334.1882    2.1804772    21.904468   0.12542158 
   31700   -944.68973    47.242585   -897.44715    1692.0581    5664.1582    2.1851787    20.892135   0.13834772 
   31800   -947.42966    44.080462    -903.3492    1578.8023    3521.9062    2.1851654    22.391078   0.12531323 
   31900   -947.85558    41.202634   -906.65294    1475.7289   -11314.803    2.1533641    20.829126   0.12860488 
   32000   -944.47603    44.815231   -899.66079     1605.119   -2199.9148    2.1686836    23.998707   0.13681069 
   32100   -949.23617    46.501269    -902.7349    1665.5068    17722.508    2.2255647    21.226446   0.13305717 
   32200   -951.44543    44.139876   -907.30556    1580.9303   -1077.3383    2.1857058    21.304113   0.12961587 
   32300   -944.95487    43.221504   -901.73337    1548.0375   -13747.721    2.1392241    21.946483   0.13301162 
   32400   -946.71009    47.081296    -899.6288    1686.2813   -519.88707    2.1741575     19.83464   0.13095897 
   32500   -953.54643    45.943502   -907.60293    1645.5296    10184.534    2.2126228    20.746782   0.11776818 
   32600   -948.03826    46.932792   -901.10547    1680.9624   -3209.1335    2.1671734    23.921463   0.12247839 
   32700   -944.96043    44.033405   -900.92702    1577.1169   -3915.6264    2.1592751    21.531817   0.13300582 
   32800    -949.3923    42.400964   -906.99134    1518.6488    4788.5256    2.1890515    22.049079   0.12489465 
   32900   -948.30961    46.908948   -901.40066    1680.1084    4131.0721    2.1886131    21.252844   0.12983444 
   33000   -943.88213    44.278319   -899.60381    1585.8888   -1313.3865    2.1679764    20.573104   0.13175356 
   33100   -947.73302    41.136869   -906.59616    1473.3735   -3438.8746     2.169769    20.568273   0.13614165 
   33200   -949.33977    47.635599   -901.70418    1706.1344      1222.45    2.1812727    20.412132     0.135135 
   33300   -944.43079    46.480917   -897.94987    1664.7779     6215.892      2.18218    17.122808   0.12729869 
   33400   -951.27005    45.127671   -906.14238    1616.3095   -2641.4293    2.1787059    20.622466   0.11870618 
   33500   -947.85994    45.603011   -902.25693    1633.3345   -7824.9395    2.1573074    20.698888   0.11112465 
   33600   -943.68897    45.976243   -897.71273    1646.7023    1662.0822    2.1713102     21.00556   0.11746279 
   33700   -949.65217    43.956097   -905.69607     1574.348    11139.963    2.2104991    23.797771   0.13606387 
   33800   -945.15761    42.733497   -902.42412    1530.5589   -2409.3859    2.1660547    23.511409   0.14149632 
   33900   -937.83332    38.009909   -899.82341    1361.3771   -9599.0717    2.1302261    21.281706   0.13591374 
   34000   -949.87514     42.28135   -907.59379    1514.3646    7415.2891    2.2014524    19.586548   0.13274146 
   34100   -949.66729    45.932451   -903.73484    1645.1338    16072.471    2.2210972    19.399711   0.14059769 
   34200   -944.63437    44.143352   -900.49102    1581.0548   -4910.0155     2.162633    17.938551   0.15143284 
   34300   -945.73919    40.213985   -905.52521    1440.3191   -9937.7857    2.1558683    19.017042   0.13718059 
   34400   -951.20404    44.569669   -906.63437    1596.3239    2035.8602    2.1957482    15.850259   0.12784992 
   34500   -943.14629    44.789426   -898.35686    1604.1948    8714.5224      2.19103    21.150987   0.13623589 
   34600   -947.70936     43.41504   -904.29432    1554.9693   -2577.6367    2.1728266    21.435101   0.11966765 
   34700   -948.62826    41.756712   -906.87155     1495.574   -5486.4155    2.1719014    21.005168   0.13965386 
   34800   -948.86191    51.010684   -897.85123    1827.0177   -2133.3387    2.1730565    20.697079   0.13445631 
   34900    -947.5969    44.729798    -902.8671    1602.0592    7024.0223    2.1956802    20.565573   0.13067787 
   35000   -948.48352    42.229491   -906.25403    1512.5072   -1447.1673    2.1805508    20.136079   0.13732318 
   35100   -942.76641     45.05114   -897.71527    1613.5684   -6217.4282    2.1529073    18.384981   0.15445525 
   35200   -947.98061    44.657257   -903.32335     1599.461    1500.3558    2.1877175    20.338316   0.15020731 
   35300   -947.34316    42.349247   -904.99392    1516.7965    8127.3651    2.1989431    20.143552   0.13235715 
   35400   -946.67928    47.455299   -899.22398    1699.6767   -3210.6801    2.1669964    21.411452   0.13369922 
   35500   -944.21727    43.716864   -900.50041    1565.7795   -7058.6216    2.1568312    21.307175   0.12971857 
   35600   -952.51234    46.393344     -906.119    1661.6413    2602.1173    2.1943711    19.572233   0.12207286 
   35700   -947.18634    47.738694   -899.44765    1709.8269    12789.963    2.2089108    19.995237   0.14412681 
   35800    -946.8468     43.95286   -902.89394     1574.232   -8228.8146     2.158516    21.943643   0.14259401 
   35900   -950.09315    40.240671   -909.85248    1441.2749    -13804.28    2.1515338    19.952041   0.12093348 
   36000    -948.7048     46.22599   -902.47881    1655.6473    6787.5832    2.1952245    22.362428   0.11240372 
   36100    -948.9895    48.658391   -900.33111    1742.7671    9568.0509    2.2037086    18.737548   0.11395152 
   36200   -948.49891    40.561801   -907.93711    1452.7766   -6408.5068    2.1678458    19.265652   0.11757205 
   36300   -944.54387    40.401194   -904.14267    1447.0242   -4259.7062    2.1599012    24.382294   0.13382829 
   36400   -947.11553    47.579763   -899.53577    1704.1346    3286.7628    2.1829802    22.124692   0.12244025 
   36500   -950.34178     45.52342   -904.81836    1630.4838    3556.0891    2.1889419    21.826656   0.11814343 
   36600   -947.25229    40.330684    -906.9216    1444.4988   -1632.4871    2.1738833    24.541065   0.12874005 
   36700   -943.05795    45.732817   -897.32513    1637.9837   -6922.8863    2.1490598    31.498859   0.16095071 
   36800   -947.18398     45.65394   -901.53004    1635.1586    6815.1425    2.1892277    30.951373   0.16128327 
   36900   -949.06606      45.0983   -903.96775    1615.2576    6550.8882    2.1958424    28.531769   0.14949469 
   37000   -941.74935    46.439135   -895.31022    1663.2814   -4509.4291    2.1521957    28.049351   0.15731558 
   37100   -945.96502    45.205705   -900.75931    1619.1044    -5116.322    2.1606733    31.307706    0.1556797 
   37200   -949.57488    45.824716   -903.75017    1641.2751     258.3535    2.1885348    30.047427   0.15009074 
   37300   -945.34795    46.482062   -898.86589    1664.8189    4103.5094    2.1852754     29.57603   0.16295141 
   37400   -946.19605    47.749496   -898.44656    1710.2138   -11148.208    2.1486552     29.83787   0.14849559 
   37500   -949.88636    43.533404   -906.35296    1559.2087   -3007.3972    2.1771714     28.81931   0.14897994 
   37600   -947.27063    46.941258   -900.32938    1681.2656    12768.331    2.2060378    27.502661   0.14480082 
   37700   -948.96559    49.025431   -899.94016    1755.9131   -702.10606    2.1786172    39.614499   0.12655053 
   37800     -948.365    39.877654   -908.48734     1428.273   -16562.627    2.1428825    41.068117   0.13452585 
   37900   -947.38701    42.520085   -904.86692    1522.9152   -1888.2575    2.1745065    38.373432   0.12499271 
   38000   -949.24521     50.86267   -898.38254    1821.7164    20000.801    2.2263512    38.641857   0.13869664 
   38100   -949.56175    44.516607   -905.04514    1594.4234   -1221.2379     2.177622    41.036354   0.12538717 
   38200    -949.0836    41.088214   -907.99538    1471.6308   -10695.875    2.1547644    35.888891   0.11031379 
   38300   -947.18187    48.261083   -898.92079     1728.537    -2484.485    2.1688757    38.995148   0.13075907 
   38400   -946.83517    45.234035   -901.60114    1620.1191    10344.169    2.2005969    34.994438   0.12246727 
   38500    -949.8143       43.464    -906.3503    1556.7229    305.15808    2.1853828    36.658259   0.13147649 
   38600   -943.03515    45.563502   -897.47164    1631.9194    -5309.707    2.1505517    43.386291   0.12247354 
   38700   -948.29859    47.630884   -900.66771    1705.9655    989.40082    2.1787407    41.912729    0.1203917 
   38800   -946.21823    41.791682   -904.42654    1496.8265     8622.135    2.1976636     38.16553   0.13369304 
   38900   -947.68426    47.392157   -900.29211    1697.4152   -3360.6967    2.1679412    39.857041   0.12943564 
   39000   -944.24803    46.451691   -897.79634    1663.7311   -7189.8229      2.15296    38.819169    0.1378124 
   39100   -949.44104    43.665392   -905.77564     1563.936    5539.0288    2.1958205    37.860731   0.11517299 
   39200   -946.41853    45.194213   -901.22431    1618.6928    8029.8393     2.198227    38.441122   0.13603546 
   39300   -948.15131    48.142367   -900.00895     1724.285   -5544.0361    2.1634636    39.849668   0.13136984 
   39400   -950.93517    41.910373   -909.02479    1501.0776   -6453.1681    2.1759708    36.681392   0.13282119 
   39500   -947.10896    43.972783   -903.13617    1574.9456    3581.9926    2.1917836    39.921145   0.13181771 
   39600   -947.85693    47.825133    -900.0318    1712.9228    5495.0163    2.1938137    38.759754   0.13106854 
   39700   -948.45393    40.184045   -908.26988    1439.2467   -3593.2571    2.1757821    40.031285    0.1232326 
   39800   -946.12276    41.753373   -904.36939    1495.4544   -10081.912    2.1561379    40.672308   0.13389461 
   39900   -945.37696    45.534148   -899.84281     1630.868    6579.1225    2.1948029    38.803638    0.1431772 
   40000   -949.25805    44.653042   -904.60501      1599.31    11856.978    2.2126629    39.003595   0.12711768 
   40100   -948.73152    39.991314   -908.74021    1432.3438    -8882.383     2.158021    41.525852   0.12442917 
   40200   -941.21074    41.578149   -899.63259    1489.1785   -11737.928    2.1355382    40.474881   0.12818229 
   40300   -948.56124    46.532189   -902.02905    1666.6143     10343.51    2.2084018    39.835784   0.14325668 
   40400    -947.6546     41.69369   -905.96091    1493.3168    8350.5616    2.2040998    34.967982   0.12825572 
   40500   -942.77567    44.546198   -898.22947    1595.4833   -5731.0381    2.1548574    38.504802   0.14077543 
   40600    -947.9824    45.798471   -902.18393    1640.3351   -4764.5547    2.1695353     40.05606    0.1345355 
   40700   -949.70389    44.393117   -905.31078    1590.0005    4013.7034    2.1963068    41.708809   0.12868018 
   40800   -946.18718    47.351116   -898.83606    1695.9453    2859.1459    2.1815213     39.30626   0.14698049 
   40900   -947.70871    46.414988   -901.29372    1662.4165   -6970.1075    2.1634981    43.644884   0.13695933 
   41000   -949.10878    42.526673   -906.58211    1523.1512   -421.16456    2.1808821    40.882578   0.12866644 
   41100   -949.31715    49.700534   -899.61662    1780.0929    3674.0301    2.1927573    40.870128   0.11721364 
   41200   -947.60934    44.771851   -902.83748    1603.5654     1010.861    2.1835367    40.397179   0.12776589 
   41300   -950.01812    41.772085   -908.24603    1496.1246   -6918.4439    2.1721684    38.498286   0.12438213 
   41400   -946.28646    45.353131   -900.93333    1624.3847   -1263.4752     2.173569     39.46343   0.12823831 
   41500    -946.7126    45.211731   -901.50087    1619.3202     8734.001    2.1967157     34.52145    0.1287104 
   41600   -950.91807    42.268874   -908.64919    1513.9178    2079.2889    2.1927571    36.737972   0.12192095 
   41700   -945.76186    45.024648   -900.73722    1612.6196   -10095.294    2.1490827    39.848664   0.12897387 
   41800   -946.84134    45.178859   -901.66248    1618.1429   -862.34064    2.1764828     39.81776    0.1384195 
   41900    -952.1106    45.961252   -906.14935    1646.1654     12700.11    2.2200657    39.747736   0.13548673 
   42000   -945.85696    47.702078   -898.15488    1708.5154   -1252.4056    2.1737074    39.141094   0.12260146 
   42100   -945.91967    45.129117   -900.79056    1616.3613   -11828.043    2.1449111    38.708557   0.13417596 
   42200   -948.62684    42.805476   -905.82136    1533.1369    167.02799    2.1851485    40.619619   0.12514765 
   42300   -950.44091    48.903503   -901.53741    1751.5461    10116.747     2.212316    34.873404   0.14052774 
   42400   -942.00168    43.731757   -898.26992    1566.3129   -1289.8932    2.1661512    35.246995   0.13392697 
   42500   -949.75771    43.008402   -906.74931     1540.405    -10709.81    2.1590184    42.101893   0.13338903 
   42600   -951.20704    48.494703   -902.71234    1736.9044   -214.82448    2.1863203    38.981257   0.13806956 
   42700   -946.42237    48.829592   -897.59278    1748.8989    3129.1475     2.185975    38.384099   0.14240404 
   42800   -945.90898     39.37342   -906.53556    1410.2131    3014.0249    2.1841655     40.29474   0.14248591 
   42900   -948.10333    43.600733    -904.5026    1561.6201   -3952.8428    2.1690158    40.788122   0.12875235 
   43000   -949.32678    50.205809   -899.12097      1798.19   -1193.1102    2.1783098    38.136644   0.13303779 
   43100    -946.8817    39.701482   -907.18021    1421.9631    7376.1917    2.1979658    39.426468   0.12034963 
   43200   -947.78082     42.38788   -905.39294    1518.1801   -2379.1447    2.1775321    37.317979   0.13138805 
   43300   -950.13078    49.729519   -900.40127     1781.131   -5123.6136     2.168254    39.549087   0.12423037 
   43400   -950.61536    44.477229   -906.13813     1593.013    514.80907      2.18888    39.014206   0.13513581 
   43500   -948.33456    41.780617   -906.55395    1496.4302    3865.1173    2.1994201    40.232504   0.14259375 
   43600   -942.66207    43.112579   -899.54949    1544.1362    -3217.338    2.1652753    37.981382   0.14878652 
   43700    -946.1615     41.18025   -904.98125    1474.9272    -6047.857    2.1647771    38.931967   0.12294196 
   43800   -950.30291    44.949008    -905.3539    1609.9104    5919.0158    2.1999928    39.177483   0.12947755 
   43900   -943.74153    47.033296   -896.70824    1684.5621    7504.1899    2.1886866     42.12713   0.14059289 
   44000   -946.82826    43.286359    -903.5419    1550.3604   -6910.8749    2.1617104    37.398322    0.1258275 
   44100   -948.77389    43.616866   -905.15702     1562.198   -8787.4487    2.1623998     36.17234   0.13455249 
   44200   -942.02808    45.788574   -896.23951    1639.9807    10141.565    2.1956402    36.375987    0.1380242 
   44300   -946.26769    44.745928   -901.52176    1602.6369    9638.1355     2.201899    40.417145   0.13671355 
   44400   -949.43601    43.096185   -906.33982    1543.5491   -10615.138    2.1566759     41.39953   0.13644419 
   44500   -944.17957    43.934194   -900.24537    1573.5635   -5441.2276    2.1611152    42.329954   0.13810578 
   44600   -945.18879    45.272808   -899.91598    1621.5078    9218.3035    2.2010431     33.03926   0.13222712 
   44700   -950.41854    43.126299   -907.29224    1544.6276    5007.1514    2.2001188    35.766484   0.12715485 
   44800   -945.88826    43.822492   -902.06577    1569.5627   -5064.4471     2.165394    36.926276   0.13939843 
   44900    -945.9482    45.608939   -900.33926    1633.5468   -2160.5403    2.1718029    40.766073   0.13768272 
   45000   -946.97095    38.471408   -908.49955    1377.9063    7547.1189    2.2026315    37.132542   0.14463766 
   45100   -946.62616     45.01267   -901.61349    1612.1906    693.10382    2.1774697      38.5124   0.11860051 
   45200   -943.67654    42.456744    -901.2198    1520.6466   -1006.9676     2.167976    36.343738   0.13698252 
   45300   -948.92378    40.807243   -908.11654    1461.5675    1507.8811    2.1905199    40.131294    0.1372659 
   45400   -946.47036    45.047759    -901.4226    1613.4474    5016.4651    2.1886969    39.784001   0.13816871 
   45500   -947.57894     47.26874    -900.3102    1692.9949    260.12968    2.1788404    40.605366   0.12950156 
   45600   -951.11155    44.163037   -906.94851    1581.7598   -8171.5313    2.1723395    37.730156    0.1270556 
   45700   -946.94752    45.881601   -901.06592    1643.3125    65.780499    2.1798129    38.218593   0.14453314 
   45800   -944.38079    46.035695   -898.34509    1648.8316    11713.179    2.2026031    38.969573   0.14450245 
   45900   -945.31832    40.047816    -905.2705    1434.3675    588.56783    2.1810221    41.684073   0.15196199 
   46000   -943.00391    41.019922   -901.98399    1469.1848   -10063.889    2.1466574    39.910015   0.13392362 
   46100   -944.04659    47.173647   -896.87295    1689.5889    2321.9372     2.180895    37.961217   0.13596064 
   46200   -950.99309    47.183794   -903.80929    1689.9524    13332.591    2.2242672      38.0605   0.13878219 
   46300   -948.49031     43.64785   -904.84246    1563.3077    -5895.777    2.1720998    36.892774   0.14393649 
   46400   -943.33345    45.233004   -898.10044    1620.0822   -12373.585     2.140447    40.012095   0.14984126 
   46500   -951.47799    44.908758   -906.56923    1608.4689    4606.6434    2.2000071    36.363354    0.1436683 
   46600   -950.48289    45.980707   -904.50218    1646.8622    6617.0522    2.2020718    40.452005   0.11020674 
   46700   -946.41888    46.823798   -899.59509    1677.0586   -3586.0221    2.1671863    37.012798   0.12170019 
   46800   -948.74263    43.267433    -905.4752    1549.6825   -4571.3098    2.1709441    36.454106   0.13931978 
   46900   -951.42408    44.957364   -906.46671    1610.2097    276.48832     2.190472    41.959173   0.12802542 
   47000   -946.64274     47.36252   -899.28022    1696.3537    3222.3909    2.1872795    38.227383   0.14402723 
   47100   -950.39186    45.843545   -904.54831    1641.9495   -3865.5085    2.1777039    38.461853   0.12939523 
   47200   -950.46061     42.97174   -907.48887    1539.0919   -5326.9935    2.1768176    38.210647   0.11407559 
   47300   -946.20535    46.928275   -899.27708    1680.8006   -565.18216    2.1755966    32.445022   0.12976414 
   47400   -949.83604    46.114191   -903.72185    1651.6431    2429.9442    2.1924232    35.386805   0.13910187 
   47500   -949.70256    42.220663   -907.48189     1512.191   -307.44225    2.1860443    38.336457   0.13005785 
   47600   -949.43448     50.91484   -898.51964    1823.5849   -11657.803    2.1519766    42.504422   0.12310191 
   47700    -947.8958    44.551601    -903.3442    1595.6768    3564.8228     2.188072    40.389252   0.12384093 
   47800   -947.85975    43.005682   -904.85407    1540.3076    11656.914    2.2104831    37.004742   0.13335632 
   47900   -943.74585    46.665848      -897.08    1671.4015   -5781.0579    2.1532689    38.827337   0.15376029 
   48000   -942.78588    40.372663   -902.41322    1446.0024   -9863.2919    2.1472818    43.305559   0.12141973 
   48100   -953.40273     48.80984   -904.59289    1748.1915    4349.3939    2.1987884    38.362367   0.10975442 
   48200   -948.64801    50.339282   -898.30872    1802.9705    12982.454    2.2093878    39.479987   0.11107981 
   48300   -943.93166    42.901275   -901.03038    1536.5681    -6533.458    2.1543748    37.847268   0.12807994 
   48400   -949.26969    41.372879   -907.89682    1481.8265   -8544.1006    2.1616989    36.828214     0.138614 
   48500   -949.10817     48.27037    -900.8378    1728.8696    4087.7526     2.191826    38.372789   0.12512269 
   48600   -949.18174    47.796838    -901.3849    1711.9094    5596.3819    2.1932275    38.638884   0.11468962 
   48700   -950.80568    41.659682     -909.146    1492.0987   -2123.0485    2.1811584    41.264033   0.10648164 
   48800   -951.29453     49.39209   -901.90244    1769.0455    -9377.856    2.1623718    39.175182   0.11802282 
   48900   -945.37841    44.378766   -900.99964    1589.4865    2152.0045    2.1835149    39.365536   0.13430602 
   49000   -949.76292    41.604978   -908.15794    1490.1394    5282.8438     2.200072    35.878427   0.12856154 
   49100   -948.43061    48.199598   -900.23102    1726.3348   -4482.1615    2.1662956    38.142553    0.1022152 
   49200   -949.78669    48.514649   -901.27204    1737.6188   -6695.8089    2.1673421    34.897672   0.12189803 
   49300   -952.11041    45.571201   -906.53921    1632.1952      2983.95    2.1943653    41.889303   0.11905448 
   49400   -947.79061    47.331538   -900.45907     1695.244    4617.5442    2.1904411    35.057104   0.13203354 
   49500   -945.70948    46.035451   -899.67403    1648.8229   -5648.3362    2.1629679    40.895077    0.1469068 
   49600    -946.6674    40.225314   -906.44209    1440.7249   -4224.7463    2.1666298    39.442426   0.11702777 
   49700   -946.90869    45.387722   -901.52096    1625.6236    7639.2306    2.1971475    37.968246   0.12003903 
   49800   -945.87271    48.869825   -897.00288    1750.3399    12194.229    2.1983531    41.654288   0.12833318 
   49900   -949.12696    43.426807   -905.70015    1555.3908    -11197.01     2.158318    38.835421   0.13786385 
   50000   -947.79232    44.186224    -903.6061    1582.5903   -12281.477    2.1494728    38.112674   0.13727191 
   50100    -948.6408    51.842014   -896.79878    1856.7929    8588.7726    2.1957508    36.539824   0.12166617 
   50200    -951.8684     46.78882   -905.07958    1675.8058    7304.4101    2.2064829    41.599251   0.13025394 
   50300    -948.8663    43.652792   -905.21351    1563.4847   -8453.0583    2.1642031    42.029287   0.12490212 
   50400   -943.77831    44.774274   -899.00404    1603.6521   -5496.9596    2.1579797     37.02893   0.13870372 
   50500    -947.3158    41.400505   -905.91529    1482.8159    6781.7497    2.1991989    35.521793    0.1369236 
   50600   -947.26734    41.789046   -905.47829    1496.7321    6344.5855    2.1933077    38.427992   0.12291608 
   50700   -943.62824    44.218229   -899.41001    1583.7366   -3381.8928    2.1609173    40.107991    0.1315376 
   50800   -948.93902    42.631022     -906.308    1526.8886   -2424.8465    2.1768193    35.196062    0.1350465 
   50900   -951.02192    46.340302   -904.68162    1659.7416      3395.82    2.1917992    37.450295    0.1306283 
   51000   -949.16048    50.880156   -898.28033    1822.3427   -264.88972     2.172669    37.791721   0.13226115 
   51100   -948.58122    42.624345   -905.95688    1526.6495   -5431.1564    2.1697334    39.225763   0.11763787 
   51200    -948.6286    44.738562   -903.89004    1602.3731   -1839.3415    2.1779769    39.451414   0.12308231 
   51300   -949.08828    51.501724   -897.58655     1844.605    889.99156    2.1812229    38.790023   0.13147387 
   51400   -949.56493    43.932303   -905.63263    1573.4958    3208.6195    2.1872911     38.59334   0.12226803 
   51500   -945.06218    41.302415   -903.75976    1479.3027   -6159.2916    2.1618356    37.675671   0.13604517 
   51600    -946.9717    48.496933   -898.47477    1736.9842   -4104.8479    2.1637305    40.409657    0.1333951 
   51700   -952.91422    47.163113   -905.75111    1689.2117    9755.9281    2.2121749    36.522796   0.11023432 
   51800   -949.96205    45.919833   -904.04222    1644.6819    2434.9393    2.1884276    38.908261   0.12431191 
   51900   -945.73586    46.059584   -899.67627    1649.6872   -14323.967     2.135216    37.919536   0.14082237 
   52000   -950.21887     43.03341   -907.18546    1541.3007   -2803.6888    2.1758616    38.320306   0.12284628 
   52100   -949.52127     44.98496   -904.53631    1611.1981    13376.779    2.2140232    39.039169   0.12885558 
   52200   -946.36679    47.248637   -899.11815    1692.2748   -156.19844    2.1748855    37.249052   0.12010066 
   52300   -947.46294    42.404354   -905.05858    1518.7702   -10959.507    2.1498958    40.795637    0.1312795 
   52400     -949.637    44.095591   -905.54141    1579.3442   -302.37405    2.1810667    36.417028   0.12762678 
   52500   -942.37468    45.008862   -897.36582    1612.0542    8627.1246    2.1913794     35.18104   0.13017702 
   52600   -946.46203    42.446784   -904.01525    1520.2899   -828.59445    2.1788152    36.981315   0.13505627 
   52700   -946.34082    39.772542   -906.56828    1424.5082   -4797.8637    2.1667843    40.274557   0.12537146 
   52800   -944.20967     46.31011   -897.89956    1658.6602    363.11588    2.1697585    40.919079   0.13844043 
   52900   -947.98216    44.540239   -903.44192    1595.2698    6816.7465    2.1956663     40.80061   0.12301831 
   53000   -950.88479    44.880725   -906.00406    1607.4648   -1015.9572    2.1809418    36.559165   0.13044193 
   53100   -946.49809    48.501269   -897.99682    1737.1396   -8147.8624    2.1527534    38.814913    0.1260439 
   53200   -947.49425     43.09343   -904.40082    1543.4504    103.25165    2.1805448    42.731372   0.13703454 
   53300   -948.15912    42.878947   -905.28018    1535.7684    5603.9451    2.1928281    36.494825   0.13067628 
   53400   -943.17228    44.724565   -898.44771    1601.8717    204.42555    2.1694501    37.135925   0.14611576 
   53500    -948.5332     44.14318   -904.39002    1581.0486   -4670.4355    2.1700313     39.21216   0.13727022 
   53600   -950.01271    44.094802   -905.91791    1579.3159   -1381.8245    2.1812448    39.642948   0.11436084 
   53700    -944.7193     46.15404   -898.56526    1653.0703     5319.819    2.1844688    41.097028   0.14658406 
   53800    -950.3946    45.615775   -904.77883    1633.7916   -1161.9791      2.18332     42.52899    0.1339486 
   53900   -949.12659    42.204382   -906.92221    1511.6079   -9018.7534      2.16168    38.837889   0.13048216 
   54000   -946.89597    47.035211   -899.86076    1684.6307   -572.09873    2.1723573    37.838806   0.14054795 
   54100   -951.13525    47.952076   -903.18317    1717.4694    14299.758    2.2178367    36.784448   0.12585424 
   54200    -949.0201     40.85408   -908.16602     1463.245   -901.06236    2.1821998    39.282289   0.12369274 
   54300   -941.97887    41.354067    -900.6248    1481.1527   -14095.924    2.1368546    38.356736   0.14030011 
   54400   -946.48424    45.006798   -901.47744    1611.9803    3163.5645    2.1840204    37.494247   0.13381435 
   54500   -949.34857    43.220975    -906.1276    1548.0186    13249.646    2.2192368    37.197799   0.14499774 
   54600   -942.59674    44.164504   -898.43224    1581.8124   -2811.6553    2.1629474    36.364755   0.15194458 
   54700   -946.23392     44.66185   -901.57207    1599.6255   -7851.3177    2.1531311    39.363954   0.12043909 
   54800   -949.18167    43.344276   -905.83739    1552.4348    2675.3125    2.1891515    42.624237   0.12592801 
   54900   -945.39136    46.347429   -899.04393    1659.9968    10050.779    2.1963929    37.774421   0.11884253 
   55000   -944.86853    44.902393   -899.96614    1608.2409   -1353.9438    2.1676809    39.686957   0.12543252 
   55100   -953.76087    46.853731   -906.90714    1678.1307   -9446.7678    2.1664375    37.281258   0.13368116 
   55200   -945.73293    44.936999   -900.79593    1609.4804    4844.0724    2.1845486    39.431242   0.12927296 
   55300   -944.94288    46.108691   -898.83419    1651.4461    5787.3121    2.1898073    40.262108   0.14434257 
   55400   -947.22029    40.116964   -907.10333    1436.8442   -398.09984    2.1814748    41.122647   0.14371316 
   55500   -947.20633    44.954717   -902.25162    1610.1149   -6045.3376    2.1634925    37.614935   0.13018377 
   55600   -945.63195    46.912617   -898.71933    1680.2398    2503.0546    2.1770284    37.876617   0.12655531 
   55700   -949.95829    42.675442   -907.28285    1528.4796    8186.7898     2.206122    40.065908   0.13648347 
   55800   -944.40153    42.639346   -901.76219    1527.1867   -1266.6041    2.1671276    41.969435   0.12174867 
   55900   -944.21934    43.626923   -900.59241    1562.5582   -7868.4802    2.1544485    38.673947   0.14176023 
   56000   -952.68904    45.174472   -907.51457    1617.9858    4154.2937    2.1990456    34.327112   0.12365648 
   56100   -947.97581    45.524175   -902.45164    1630.5109    12597.227    2.2094925    34.076939   0.12314614 
   56200   -945.80428    45.818078    -899.9862    1641.0374   -11549.216    2.1460904    36.697494   0.14392526 
   56300   -946.48089    39.583322   -906.89757    1417.7311   -16987.683      2.13613     41.88177   0.12265075 
   56400   -949.06965    45.686683   -903.38296    1636.3313    11402.362    2.2095175    37.109268   0.12625478 
   56500   -945.83228    49.070905   -896.76138    1757.5418    14479.088    2.2055754    38.783564   0.13161052 
   56600    -948.5021    44.077931   -904.42417    1578.7117   -10262.123    2.1602871    37.226194   0.13333428 
   56700   -946.51425    40.815875   -905.69837    1461.8766    -8127.522    2.1611589    38.457465   0.13817613 
   56800   -946.08648    48.318203   -897.76827    1730.5828    4321.6757    2.1866066    39.796572   0.12220482 
   56900   -949.66149    45.765508   -903.89598    1639.1545    6103.3291      2.20173    39.075458   0.11847187 
   57000   -950.11214    43.326822   -906.78532    1551.8096   -6820.5213     2.169138    39.971256   0.11805094 
   57100   -949.19735    49.531529   -899.66582    1774.0397    -9214.906    2.1589841    40.273773   0.13000974 
   57200   -949.61026    45.477062   -904.13319    1628.8234    5026.5336    2.1992904    35.659227   0.12761219 
   57300   -950.67974    44.248141    -906.4316    1584.8079    7893.0687    2.2033109    33.479046   0.12346466 
   57400   -947.08052     47.55629   -899.52423    1703.2938   -7060.7439    2.1609136    37.182624   0.12081945 
   57500   -951.05305    46.755172   -904.29788    1674.6007   -6155.0126     2.168248    36.809875   0.12757442 
   57600   -950.55706    44.403983   -906.15308    1590.3897    6213.1174    2.2037402    38.158737   0.12601346 
   57700   -943.99766    46.178851   -897.81881     1653.959    5863.3517    2.1854328     38.27383   0.14536339 
   57800   -949.97342    46.100702   -903.87272    1651.1599   -8383.2655    2.1650811    44.139684   0.14460113 
   57900   -947.49321    41.090671   -906.40253    1471.7188    -5104.371    2.1730772     38.50618   0.11699226 
   58000   -945.22373    47.881902   -897.34182    1714.9561    5397.4467    2.1860265    40.643907   0.13463758 
   58100   -946.96532    44.493987   -902.47133    1593.6132    8327.1742    2.1988139     39.69667    0.1346316 
   58200   -946.16613    39.237823   -906.92831    1405.3565   -6981.1875    2.1623224     40.95892   0.14241972 
   58300   -945.50323    46.135654   -899.36757    1652.4118   -10326.532    2.1475669    37.703831   0.14521265 
   58400   -948.19794    47.026748    -901.1712    1684.3276    12456.293    2.2134402    36.656003   0.11806921 
   58500   -954.28356    48.650797   -905.63276    1742.4951    6303.3014     2.208114    40.579787   0.11571737 
   58600   -944.76014    43.287885   -901.47226    1550.4151   -13780.566    2.1343935     35.72001   0.13839357 
   58700   -941.84594    42.484802   -899.36114    1521.6515   -6509.8207    2.1518837     38.65085   0.12824941 
   58800    -949.4933    43.167177   -906.32612    1546.0917    14758.164    2.2184727    38.146873   0.13762225 
   58900   -948.74089    46.370549   -902.37034    1660.8249    3255.4903    2.1915639     38.99823   0.13055854 
   59000   -947.63253    47.775167   -899.85736    1711.1332   -8272.6249    2.1598755    40.739391   0.13112891 
   59100   -947.14761    40.343049   -906.80456    1444.9417     -2359.89    2.1795201    39.550211   0.14576116 
   59200   -946.26552    43.296977   -902.96854    1550.7407    6096.7239    2.1975126    37.246087   0.14564811 
   59300   -944.98432    46.561952   -898.42237    1667.6803    3793.2448    2.1824409    40.219608   0.13211458 
   59400   -948.29909     41.92856   -906.37053     1501.729   -5722.0303    2.1718977    40.732349    0.1252071 
   59500   -948.32751    45.923669   -902.40384    1644.8193   -3952.8532    2.1719437    38.881878     0.126229 
   59600   -945.16619    48.041895    -897.1243    1720.6864    6574.2976     2.189477    35.050674   0.13975866 
   59700   -949.11426    43.739239   -905.37502    1566.5809    3732.9482    2.1938631    38.929183   0.14482808 
   59800   -949.50917    46.880584   -902.62859    1679.0925   -8257.0363    2.1622705    41.030805   0.12470335 
   59900   -944.90333    46.987208   -897.91612    1682.9114   -4723.5027    2.1618663    38.860068   0.13089364 
   60000   -948.99237    42.750184   -906.24219    1531.1565    8452.1672    2.2068385    39.511098   0.12999348 
   60100   -945.87174    43.327944   -902.54379    1551.8498    5307.5798    2.1892606    37.211384   0.13159141 
   60200   -943.83109    44.361962   -899.46913    1588.8846   -9166.7737    2.1527404    38.604216   0.15239503 
   60300   -953.65027    45.357837   -908.29243    1624.5532   -3494.5518    2.1842147     40.57645   0.12269141 
   60400   -948.33137    45.151216   -903.18016    1617.1528    7366.8234    2.2043683    40.167804   0.13198288 
   60500   -946.59157    47.187519   -899.40405    1690.0858    2157.7582    2.1834373    37.213143   0.12758383 
   60600   -950.42014    43.134929   -907.28521    1544.9367   -13258.099    2.1580601    36.232341   0.12395642 
   60700   -948.06718    43.510774   -904.55641    1558.3981    -5168.421    2.1700374    39.469344   0.13730763 
   60800   -946.33693    48.692293   -897.64464    1743.9814     15910.91    2.2135317    39.233709   0.13683505 
   60900   -947.77016    43.564909   -904.20525    1560.3371    3707.8423    2.1891056    40.384494    0.1331904 
   61000   -948.57034    42.438805   -906.13153    1520.0041   -15862.944    2.1446841    36.695456   0.13365742 
   61100   -944.98617    47.729775    -897.2564    1709.5074   -2638.0148    2.1652734     41.54165   0.12760301 
   61200   -947.61004    45.561122   -902.04892    1631.8342    9749.9228    2.2044245    37.066918   0.13443686 
   61300   -952.44675    46.620773   -905.82598     1669.787   -1776.6245    2.1841147    34.990077   0.11913643 
   61400   -944.26899      45.9169   -898.35209    1644.5768   -5885.0867    2.1578742     41.27994   0.12034306 
   61500    -947.0031    44.770275   -902.23283    1603.5089    75.109174    2.1798459    37.823492   0.13300485 
   61600   -947.54335    42.072103   -905.47125    1506.8701    5162.3831    2.1967217    40.432739   0.11802368 
   61700   -947.73977    48.038399   -899.70137    1720.5612   -1410.1865    2.1774208     38.01953   0.14523178 
   61800   -946.41252    44.781871   -901.63064    1603.9242   -6096.2931    2.1659824    37.716571   0.14658206 
   61900   -949.68257    42.242363   -907.44021    1512.9682   -30.418994    2.1889824    38.515657   0.12875195 
   62000   -943.95867    43.928273    -900.0304    1573.3514    7426.1872    2.1910553    36.435415   0.14157059 
   62100   -947.92812    45.360256   -902.56786    1624.6399   -3104.9897    2.1761688     42.72063   0.13405167 
   62200   -948.74515    39.841421   -908.90373    1426.9752   -3878.9802    2.1771979    39.632596   0.12781209 
   62300    -947.8722    47.147667   -900.72453    1688.6585   -656.10396     2.181431    38.976953   0.13968596 
   62400   -946.34912    45.151143   -901.19798    1617.1502    7295.8568    2.1952787    40.178139   0.11918925 
   62500   -948.88706    40.575115   -908.31195    1453.2535   -1423.8751    2.1839477    37.948186   0.12341287 
   62600   -944.15181    43.961922   -900.18989    1574.5566   -9144.3669    2.1500496    39.835434   0.14245781 
   62700   -945.83621    45.146581   -900.68963    1616.9868    6187.6954     2.191553    31.896225   0.14123791 
   62800   -948.54184    43.153014   -905.38882    1545.5845    14011.817    2.2186155    38.147429   0.15065327 
   62900   -944.81957    45.846689   -898.97289    1642.0621   -6248.6407    2.1613483    37.096632   0.16046203 
   63000   -943.83293    44.050835   -899.78209    1577.7412   -11459.634    2.1450417     43.20349   0.14054673 
   63100   -951.01175    46.202332   -904.80942       1654.8    5208.3874    2.1985579    39.456487       0.1215 
   63200   -949.21945    45.205025   -904.01443    1619.0801    10603.335    2.2106141    38.302331   0.13240631 
   63300   -940.78266    43.319306   -897.46335    1551.5405   -4533.7683    2.1535811    39.228678    0.1341107 
   63400   -948.64887    42.671173    -905.9777    1528.3267   -3021.5398    2.1743177    35.261015   0.11680114 
   63500   -948.92832     45.34461   -903.58371    1624.0795    2586.0293    2.1887332    40.905827   0.13016264 
   63600   -942.81931    45.150693   -897.66862    1617.1341    3153.1515    2.1765995    38.199114   0.14048661 
   63700   -950.41498    44.249443   -906.16553    1584.8546   -3168.5091    2.1801848    38.731147   0.12391505 
   63800   -947.46628     42.52716   -904.93912    1523.1686   -2327.2021    2.1737869    36.777387   0.14060488 
   63900   -946.32461     47.04021    -899.2844    1684.8097   -26.205668    2.1775619    37.930224   0.12928374 
   64000   -949.82875    43.279685   -906.54907    1550.1214     2932.254    2.1927794    37.380149   0.12951417 
   64100   -948.93567     42.67688   -906.25879    1528.5311   -1926.8814       2.1795    42.642641   0.13902401 
   64200    -943.7603    43.733007   -900.02729    1566.3577    45.051295    2.1703276    36.403114   0.12551778 
   64300   -949.23884     44.08136   -905.15748    1578.8344    2237.3935    2.1898149    33.376976   0.11804104 
   64400   -952.00749    44.195162   -907.81233    1582.9104    1416.1986    2.1945311    41.817792   0.12093731 
   64500   -945.05705    45.479857   -899.57719    1628.9236   -3745.0812    2.1662643    41.079191   0.12296461 
   64600   -944.99915    40.849375   -904.14978    1463.0765   -3115.8404    2.1712471    38.255053   0.13963865 
   64700   -950.60973     44.50167   -906.10806    1593.8884    5908.9592    2.2030018     41.43821   0.12516961 
   64800   -941.65042    45.048217    -896.6022    1613.4638    3435.9635    2.1760997    33.163505    0.1423934 
   64900   -945.97715    43.349889   -902.62727    1552.6358    -5187.312    2.1647116    37.252098   0.14522725 
   65000   -947.79183    42.273303   -905.51853    1514.0764    -1957.512    2.1748632    39.120862   0.12219877 
   65100   -946.50093    48.758492   -897.74244    1746.3524    7446.8855    2.1927772    37.362453   0.13505346 
   65200   -946.91689    46.954598    -899.9623    1681.7434    3850.4074    2.1876008    42.927035   0.12919594 
   65300   -947.63937    41.705825   -905.93354    1493.7514   -9300.5648    2.1581247    40.875848   0.12085638 
   65400   -946.77898    45.838623   -900.94036    1641.7732   -2750.6657    2.1696704    37.810482   0.11706476 
   65500   -942.27114     45.48641   -896.78473    1629.1583    10001.041    2.1935207    40.243155   0.13820998 
   65600   -948.41227    42.110065    -906.3022    1508.2298    5268.8965    2.1976609    38.137873   0.12229748 
   65700   -950.45858    47.061778   -903.39681    1685.5822   -12054.844    2.1568345    39.303855     0.125527 
   65800   -943.70055     44.36499   -899.33556     1588.993   -2340.1139    2.1652579    40.094717   0.13871519 
   65900   -952.00796    43.772395   -908.23556    1567.7684    7415.9868    2.2115292    35.383257   0.11224023 
   66000   -947.48974    43.838642    -903.6511    1570.1412    2461.8134    2.1865119    37.408223   0.13039353 
   66100   -946.95783    45.946234    -901.0116    1645.6275   -7204.2335    2.1622232    41.346685    0.1324142 
   66200   -949.85298    43.078584    -906.7744    1542.9187    -993.6914    2.1838724    40.079517   0.12723505 
   66300   -950.24338    43.671582    -906.5718    1564.1577    4746.7503    2.1972359    38.383238   0.12683073 
   66400   -947.23819    47.204016   -900.03418    1690.6767   -864.99575    2.1737602    39.610915   0.11725252 
   66500   -949.59269    44.664436   -904.92825    1599.7181   -4824.5959    2.1706685    38.458298   0.11929992 
   66600   -952.58741     45.47508   -907.11233    1628.7524   -1105.3694    2.1870718    38.382843   0.12618607 
   66700   -942.80174    44.857101   -897.94464    1606.6187    2376.4868    2.1724488     41.00272   0.14187948 
   66800    -948.2152    45.075692   -903.13951    1614.4478   -501.96353    2.1778463    36.307635   0.12636995 
   66900   -949.91894    44.110137    -905.8088    1579.8651   -1619.4858    2.1801641    37.135013   0.13565394 
   67000   -944.27012     47.75584   -896.51428     1710.441   -857.36645    2.1662332    35.669931   0.12362528 
   67100   -945.60572    43.170918    -902.4348    1546.2257    4151.8793    2.1875104    38.197605   0.13450878 
   67200    -947.2005    41.913028   -905.28747    1501.1727   -533.29793    2.1823557      39.7637   0.13852366 
   67300   -942.94451     45.09239   -897.85212    1615.0459   -4573.4143    2.1600604    39.399237   0.13785174 
   67400   -945.61958    44.109258   -901.51032    1579.8337    2705.7323     2.182614     40.04449   0.12877956 
   67500   -948.51808    43.452423   -905.06565    1556.3082    6390.9267    2.1986723    38.826572   0.13032773 
   67600   -944.76741     44.36367   -900.40374    1588.9458    147.45207    2.1708575     35.00559   0.14035441 
   67700   -946.80216    47.313923   -899.48823    1694.6131   -10315.153    2.1559596    37.958784   0.13956555 
   67800   -947.79414    40.657213   -907.13693    1456.1939    7468.2553    2.2032804    36.337324   0.14669398 
   67900   -946.31706    45.744095   -900.57296    1638.3876    8822.0063    2.1978152    39.860306   0.14792653 
   68000   -946.29634    44.375954   -901.92038    1589.3858   -7156.3028    2.1602188    36.424192   0.14059026 
   68100   -949.01527    39.136876   -909.87839     1401.741   -5896.5472    2.1731964    38.126087    0.1440374 
   68200   -946.18797    43.843048   -902.34492     1570.299    5466.0222    2.1936197    38.280875   0.14493098 
   68300   -946.01629    45.448195    -900.5681    1627.7895     7296.206    2.1929078    34.227548   0.13755607 
   68400   -949.56613    41.338425   -908.22771    1480.5925   -5077.5857    2.1734331    36.252676   0.13862656 
   68500   -945.97685    42.806089   -903.17076    1533.1589    -5103.193    2.1650551    39.850448   0.13230318 
   68600   -945.45594    45.613132    -899.8428     1633.697    5581.2164    2.1931774    37.734003   0.14320852 
   68700    -949.7297    44.431695     -905.298    1591.3822    3792.2826    2.1971486    36.314408   0.13629531 
   68800   -945.87316    41.106441   -904.76672    1472.2836   -3742.8553    2.1674312    39.850134     0.135152 
   68900   -942.16507    44.199163   -897.96591    1583.0537   -5440.1233    2.1563111    40.339972   0.16784018 
   69000   -946.43746    42.696472   -903.74099    1529.2328    8297.9897    2.1984435    41.804851   0.14438288 
   69100   -947.38554    43.113633   -904.27191     1544.174    10644.443    2.2077249    36.683184    0.1459389 
   69200   -943.22095      47.4294   -895.79155    1698.7491   -12065.026    2.1414907    41.597133   0.13822137 
   69300   -947.28679    44.136513   -903.15028    1580.8098   -10354.112    2.1512115    39.408742   0.13615237 
   69400   -948.65556    45.460247   -903.19532    1628.2212    16504.002    2.2230054    36.764983   0.12987406 
   69500   -950.13326    49.687715   -900.44555    1779.6338    10402.829    2.2102138    37.221731    0.1476894 
   69600    -943.8896    44.028909   -899.86069    1576.9558   -16974.837    2.1337871    41.609124   0.14589275 
   69700   -953.16058    44.303086   -908.85749    1586.7759   -6023.6885    2.1756007     36.73728   0.12067119 
   69800   -949.74419    47.580883    -902.1633    1704.1747    6659.7871    2.2013713    38.429228   0.14728096 
   69900   -945.09711    44.136412    -900.9607    1580.8062    3924.6661    2.1857272    40.392895   0.13415935 
   70000   -950.25923    40.929212   -909.33001    1465.9359   -6387.4941    2.1715936     41.62417   0.12204463 
   70100   -951.26768    46.888342   -904.37934    1679.3704   -7551.9889       2.1714    42.994402   0.13047788 
   70200   -946.22209    45.993309   -900.22878    1647.3135    7072.3307    2.1946118    40.212718    0.1306355 
   70300   -953.22218     47.04814   -906.17404    1685.0938    24.881562    2.1912367      38.3736   0.13118532 
[...]
  186800   -951.79849    41.089054   -910.70943    1471.6609    -3479.726    2.1807269     99.18374   0.12487256 
  186900    -947.7362    43.080947   -904.65525    1543.0033   -9057.3451    2.1576705    98.927531   0.13817523 
  187000   -946.63221    43.692225   -902.93998     1564.897    4005.6682    2.1861595    104.30327   0.13843479 
  187100   -947.88783    46.682877   -901.20495    1672.0113    7479.7913    2.1953608    104.73895   0.14263621 
  187200   -944.00571    52.692946   -891.31276    1887.2702   -6049.5303    2.1535205    105.09979   0.13515287 
  187300   -942.42329    41.904268   -900.51902    1500.8589   -92.624582    2.1720157    103.42885   0.14024611 
  187400   -948.77587    45.956314   -902.81955    1645.9885   -1093.4842    2.1801422    101.77791   0.13363983 
  187500   -949.08489    45.608182   -903.47671    1633.5197    1290.2415    2.1855768    100.82982   0.11581442 
  187600   -947.25721     47.31906   -899.93815    1694.7971   -472.76945     2.175113    102.16083   0.14194327 
  187700   -940.85475    45.512906   -895.34184    1630.1072   -4618.9851    2.1552039    101.79887   0.13998276 
  187800   -948.53357    45.756803   -902.77677    1638.8427   -3479.8373    2.1738943    99.691447   0.14270194 
  187900    -948.6308    45.075209   -903.55559    1614.4305    6529.2724    2.1995313    109.17469   0.12556106 
  188000   -944.15167    43.946506   -900.20516    1574.0045    3353.2171    2.1792302    101.08103   0.13329381 
  188100    -944.4585    48.146277   -896.31223     1724.425   -16797.952    2.1266953    104.90714   0.13780971 
  188200   -949.53579    44.466483    -905.0693    1592.6282   -2566.4304     2.178091     104.4783   0.13407037 
  188300   -947.69273    45.790358   -901.90237    1640.0446    16439.478    2.2204768    100.59843   0.13941452 
  188400   -945.00094    45.673326   -899.32761    1635.8529    693.74236    2.1703103    104.34231   0.13367933 
  188500   -941.25999    46.832431   -894.42755    1677.3678   -12374.335    2.1304183    105.88421   0.14812141 
  188600   -948.64727    43.485112   -905.16216     1557.479    6090.3618    2.1974489    99.877059   0.12897951 
  188700     -947.854    45.042373   -902.81163    1613.2544    8208.5935     2.197701    98.225102   0.13697201 
  188800   -944.10327    42.331237   -901.77203    1516.1514   -2629.4109    2.1643971    108.22904   0.13434671 
  188900   -947.63444    52.978626   -894.65582    1897.5022    -7136.541    2.1558965    107.23456   0.13927978 
  189000   -941.75294    46.036424   -895.71651    1648.8578    4777.7963    2.1791189    104.64648   0.13892839 
  189100   -947.56901    46.266053   -901.30295    1657.0822   -419.34333    2.1776238    98.728106   0.13201654 
  189200   -951.70901    48.242815    -903.4662    1727.8827   -5891.6725    2.1740405    105.89384   0.12277064 
  189300   -946.95222    42.907087   -904.04513    1536.7763   -1089.2618    2.1816359    101.72816   0.13357734 
  189400   -939.82626    46.177176   -893.64909     1653.899    1284.5737    2.1651923    95.876199   0.14940275 
  189500    -945.5958    46.033538   -899.56226    1648.7544    6714.5684    2.1899637    103.62055   0.15200162 
  189600   -949.76652     46.20378   -903.56274    1654.8518   -2666.2776     2.174309    104.47756   0.12620789 
  189700   -948.89004    44.926098   -903.96394    1609.0899    -9052.914    2.1603339     100.3989   0.13872969 
  189800   -940.91379    46.498109   -894.41568    1665.3936    4851.8516    2.1767873    101.56818   0.15340321 
  189900   -944.53418     44.09725   -900.43693    1579.4036    15075.156    2.2111526    101.65094   0.14643132 
  190000   -947.17647    43.076128   -904.10034    1542.8307   -6107.3958    2.1622116    98.569808   0.14112189 
  190100   -947.66012    46.108229   -901.55189    1651.4295   -11460.875    2.1482415     102.0625    0.1370644 
  190200   -941.26284    47.042677   -894.22017    1684.8981    11746.273    2.1898734    98.452476    0.1424934 
  190300   -946.54974    44.471533   -902.07821     1592.809    8181.5862    2.1972031    99.481628   0.13908178 
  190400   -949.68841    45.597401   -904.09101    1633.1335   -9957.8129    2.1575203    106.10847   0.13678358 
  190500    -947.9954    45.826429   -902.16898    1641.3365     -4108.97    2.1700816    104.03306   0.13514811 
  190600   -945.37034    45.038266   -900.33207    1613.1074    7491.1731    2.1946567    96.314615   0.13801021 
  190700   -941.19305    52.091213   -889.10184    1865.7184     999.6783    2.1610828    100.07922   0.14112272 
  190800   -947.42872    49.398455   -898.03027    1769.2735   -3338.3356    2.1680795    106.50863   0.13543827 
  190900   -946.75931    44.688467   -902.07085    1600.5788    392.64509    2.1777149    97.889556   0.14523624 
  191000   -948.57812    44.594655   -903.98347    1597.2188    2435.7392    2.1885115    99.245901   0.15258345 
  191100   -948.86937    43.289523   -905.57985    1550.4737    141.02745     2.186138    97.691589   0.14064196 
  191200   -943.34245    48.403053   -894.93939    1733.6218   -7470.5957    2.1502877    99.767529    0.1516653 
  191300   -943.87502    43.209458   -900.66556    1547.6061    4624.5303    2.1863406    93.747696   0.14657004 
  191400   -945.42464    42.157909   -903.26673    1509.9434    9155.4033    2.2018853    104.56089     0.147763 
  191500   -949.26906    44.269003   -905.00005    1585.5552   -4706.8202    2.1713888    100.39852   0.14029964 
  191600   -942.67367    48.218033   -894.45563    1726.9951   -13590.779    2.1360611     101.7114   0.15026182 
  191700   -947.64136    46.756237   -900.88513    1674.6388    11316.402    2.2062125    103.04393   0.13795619 
  191800   -947.79462    45.106756   -902.68787    1615.5604    11030.114    2.2070027    95.262262   0.13752131 
  191900   -945.12125    41.520784   -903.60046    1487.1239   -6952.8763    2.1541718     100.0006   0.16201775 
  192000    -940.9537    46.652353   -894.30134    1670.9181   -7858.5328    2.1475461    99.542358   0.16631981 
  192100    -947.4092     47.43773   -899.97147    1699.0475    7861.9522    2.2018718    104.70683   0.13986554 
  192200   -950.60001    47.297941   -903.30207    1694.0407    5.8838404    2.1846462    99.072251   0.12386471 
  192300   -947.60724    44.756204   -902.85103    1603.0049   -3982.8678    2.1697436    97.725897    0.1247538 
  192400   -941.08696    45.324008   -895.76295    1623.3416    981.97468    2.1719677     98.74268   0.15341679 
  192500   -942.36089    46.091558   -896.26933    1650.8325    2810.4328    2.1769649    99.965861   0.16355702 
  192600   -947.94859    45.703621   -902.24497    1636.9379   -3177.5054    2.1760999    106.97885   0.16012944 
  192700   -947.98029    46.320164   -901.66012    1659.0203   -3065.8612    2.1729227    108.34522   0.15113011 
  192800   -944.77823    50.285953   -894.49228    1801.0605    356.89922    2.1720505     99.96664   0.16276698 
  192900   -943.20145    42.182021   -901.01943     1510.807    3993.5815    2.1859862    100.34011   0.16778993 
  193000   -948.78915    45.124017   -903.66513    1616.1786   -6361.6344    2.1682225    104.88433   0.14856958 
  193100   -950.90847    48.133711   -902.77475     1723.975   -3383.3615    2.1780678    98.196329   0.13131158 
  193200   -946.81707     46.41335   -900.40372    1662.3579    8874.7913    2.2001338     98.48188   0.13803264 
  193300   -942.84141    50.778649   -892.06276    1818.7071   -4809.3132    2.1513618    109.58773   0.14694602 
  193400   -946.05464    44.840979   -901.21366    1606.0412     -7650.13    2.1537187    103.09414   0.13073823 
  193500   -948.67987    45.746064    -902.9338    1638.4581    5642.5765    2.1969302    100.06384   0.13648737 
  193600   -946.70204    43.936803   -902.76524     1573.657    11991.845    2.2096967    103.51477   0.14203582 
  193700   -940.29502     47.33434   -892.96068    1695.3444   -6708.0528    2.1421387    102.46198   0.16499818 
  193800   -944.03411     42.99735   -901.03676    1540.0092   -5286.4246    2.1566466    102.01286    0.1397533 
  193900   -945.03668    42.101184    -902.9355    1507.9117    8693.1133    2.1951551    98.727167   0.14961662 
  194000   -947.85765    45.086417   -902.77123    1614.8319    6845.0233    2.1959557    99.452383   0.13207915 
  194100   -940.63329    47.204363   -893.42892    1690.6891   -4760.7751    2.1497551    101.87573   0.14368042 
  194200   -947.05026    46.216327   -900.83393    1655.3012   -3556.1376     2.169511    102.73477   0.14634473 
  194300   -952.73315    49.413299   -903.31985    1769.8052   -672.11818    2.1863327    94.472846    0.1329152 
  194400   -950.23043    47.428557   -902.80188    1698.7189   -682.38132    2.1840118      100.692   0.13400296 
  194500   -938.85912    45.422389   -893.43673    1626.8652    66.042919    2.1600154    101.17717   0.15542746 
  194600   -945.78178    45.167382    -900.6144    1617.7318    1300.9757    2.1768886    107.91254    0.1377851 
  194700    -950.0992    46.594243   -903.50496    1668.8368   -2828.7908    2.1751272    103.94093   0.12436058 
  194800   -948.75017    46.209593   -902.54058    1655.0601   -1331.0613    2.1781775    104.50863   0.13288841 
  194900   -940.65231    47.172673   -893.47964    1689.5541     1075.802    2.1663629    98.441935   0.15148296 
  195000   -946.90628    46.670435   -900.23585    1671.5657    253.42691    2.1779086    101.20582   0.13912853 
  195100   -948.03552    44.456435   -903.57909    1592.2683   -4130.2426    2.1712068    99.223259   0.13240807 
  195200   -946.03975    43.247855   -902.79189    1548.9813    594.27538    2.1814018    102.16725    0.1387458 
  195300   -942.76242     47.92901   -894.83341    1716.6433     5485.782    2.1805128    96.842589   0.15009771 
  195400    -944.2425    45.917728   -898.32477    1644.6065   -1913.7558    2.1671224    110.73963   0.13692989 
  195500   -945.50264    42.062739    -903.4399    1506.5348   -6637.9351    2.1577405    104.67979    0.1279838 
  195600    -949.1979     46.26471   -902.93319    1657.0341    1957.1719    2.1862136    107.06283   0.13224836 
  195700   -942.36701    45.885123   -896.48188    1643.4387    16810.946    2.2086708    106.74783   0.13576393 
  195800   -944.48861    46.718777   -897.76984    1673.2972   -9300.5434    2.1451602     102.6258   0.13487028 
  195900   -946.01854     40.99693   -905.02161    1468.3614   -12340.764    2.1429505    101.67627    0.1543858 
  196000   -951.10019    49.209721   -901.89047    1762.5137    5843.1816    2.1976951    100.52778   0.12824898 
  196100   -946.95684    47.478877   -899.47796    1700.5212    8830.7591    2.1957251    95.557664   0.13535838 
  196200   -938.53356     48.47618   -890.05738     1736.241   -6021.8718    2.1393092    105.15236   0.15745854 
  196300   -948.84362    47.649728   -901.19389    1706.6404   -2164.6852      2.17283    105.70962   0.12838328 
  196400     -946.009    43.747377   -902.26163    1566.8724    5009.5785    2.1870841    105.89229   0.13891311 
  196500   -949.01014     45.86945   -903.14069    1642.8774   -1166.4911    2.1775713    102.73335   0.13031059 
  196600   -948.23672    46.318036   -901.91868    1658.9441    -6981.711    2.1636056    102.29365   0.12912188 
  196700   -946.22318    53.186081    -893.0371    1904.9326   -5841.7649    2.1551278    100.49473   0.13575549 
  196800   -949.48448    49.086248   -900.39823    1758.0914    4141.4359    2.1946954    97.157643   0.13721342 
  196900   -949.70874    46.190477   -903.51826    1654.3754    818.71155    2.1821057    97.706107   0.14954082 
  197000   -947.76005    42.884379   -904.87567    1535.9629   -7867.4804    2.1587193    100.36101   0.13818967 
  197100   -943.77947    47.553471     -896.226    1703.1929    896.85178    2.1693397    105.40376   0.13717861 
  197200   -949.13781    51.424066   -897.71374    1841.8236    9961.4364    2.2007854     101.7104   0.13178794 
  197300   -949.81078    46.861907   -902.94887    1678.4236   -7735.1797    2.1630475    107.46167   0.13392522 
  197400   -947.99287    43.079552   -904.91331    1542.9533   -13888.168    2.1480915    101.45026   0.14181425 
  197500   -947.16779    46.042682   -901.12511    1649.0819    9254.0664    2.1970071    100.14947   0.14332952 
  197600   -945.19056    49.011959    -896.1786    1755.4306    8258.2397    2.1926578    98.929222   0.15071507 
  197700   -946.51485    43.323348    -903.1915    1551.6852   -7293.7375    2.1611814    99.464484   0.13791056 
  197800   -948.41208    44.699384    -903.7127    1600.9698   -2870.6599    2.1709786    97.772528   0.14237836 
  197900   -946.42042    49.110606   -897.30981    1758.9638    4894.8442    2.1860917    104.33015   0.15854121 
  198000   -944.46588    46.615301   -897.85058     1669.591    918.50833    2.1750124    103.01977   0.15430301 
  198100   -948.77029    44.891187    -903.8791    1607.8395   -5279.6796    2.1668608    106.28766    0.1333296 
  198200   -944.83839    42.212517   -902.62587    1511.8993    1940.4881    2.1823359    103.60515   0.15428747 
  198300   -943.37179    48.330101   -895.04169    1731.0089    7222.7846    2.1842528    104.12744   0.13206665 
  198400   -947.48941    47.390316   -900.09909    1697.3493   -3993.8951    2.1686978    98.275155   0.12916784 
  198500   -947.25009    42.858377   -904.39171    1535.0316   -10185.498    2.1558366    97.949244   0.14439317 
  198600   -946.10384    44.817336   -901.28651    1605.1944    4526.3872      2.18495    98.847176   0.13735504 
  198700   -945.41938    46.986497   -898.43288    1682.8859    7963.6031    2.1960615    97.353516     0.147798 
  198800   -944.78404    57.396604   -887.38744    2055.7382   -10312.125    2.1440388    102.04602   0.16751669 
  198900   -944.22764    47.158103   -897.06954    1689.0322   -3793.5477    2.1626497    104.07337   0.14113238 
  199000   -944.10131    43.597956   -900.50335    1561.5207    5769.8043    2.1830826    102.59097    0.1362314 
  199100   -949.65775    46.399888   -903.25786    1661.8757    1988.9469    2.1867719    104.19865   0.13691073 
  199200   -949.80393    43.888204   -905.91573    1571.9163   -5183.2596    2.1755477    109.17656   0.11397171 
  199300   -944.11349    46.488271   -897.62522    1665.0413    238.06257    2.1672627     102.0245   0.14280858 
  199400   -943.95254    45.679881   -898.27266    1636.0877    10909.199    2.2009102    102.13823   0.13161466 
  199500   -945.01728    42.383912   -902.63337     1518.038   -2529.9041    2.1696823    99.125956   0.14711934 
  199600   -945.77132    40.381009   -905.39031    1446.3013   -14501.602    2.1431819    105.88851   0.13647294 
  199700   -942.45984     41.06446   -901.39538      1470.78    10390.694     2.198151    103.59042   0.15500949 
  199800    -943.3517    46.789468   -896.56223     1675.829     12528.23    2.1996495    102.25178   0.13929558 
  199900   -945.65832    42.404292   -903.25403    1518.7679   -6156.6807     2.158724    99.837114   0.13800158 
  200000   -946.29958    42.082069   -904.21751    1507.2271   -6591.5256    2.1618841    108.06806   0.12180394 
  200100   -944.79175    47.513821   -897.27793    1701.7728    9731.0066    2.1909106    99.852839   0.12687316 
  200200   -946.04019    47.921219   -898.11897    1716.3643    5007.3981     2.183908    102.95521    0.1268926 
  200300   -951.29412    46.828505   -904.46561    1677.2272   -9204.1826     2.161476    103.40671   0.11354553 
  200400   -947.84392    45.422414   -902.42151    1626.8661   -3816.2444    2.1682247     102.4492    0.1297735 
  200500   -943.39412    49.607634   -893.78648    1776.7656    4181.4527    2.1801164     97.45441   0.13309484 
  200600    -948.4099    47.084897     -901.325    1686.4103    501.53695     2.180833    100.97814   0.16135396 
  200700   -945.80271    42.767431   -903.03528    1531.7743   -3659.6069    2.1659435    84.079775   0.15897179 
  200800   -944.44987     46.21478    -898.2351    1655.2458   -1289.7525     2.172325    98.373872   0.15462849 
  200900   -947.69371    44.746979   -902.94673    1602.6745     3559.362    2.1879113    99.295729   0.15947261 
  201000   -946.82988    40.649886   -906.17999    1455.9315   -1798.5414    2.1792161    97.328757    0.1616558 
  201100   -946.23635    44.416954    -901.8194    1590.8542   -3781.1708    2.1649178    93.628447   0.15749832 
  201200   -943.74038    45.522111   -898.21827    1630.4369    4472.6894    2.1836442    108.98726   0.16572491 
  201300   -949.96352    43.135862   -906.82766    1544.9701    7756.7413    2.2058585    102.61469   0.14768331 
  201400   -944.95956    44.135472   -900.82409    1580.7725   -9589.5683    2.1519286    84.999311   0.17895951 
  201500   -945.73364    46.063843    -899.6698    1649.8398   -10552.928    2.1469802     109.5503   0.16889356 
  201600   -951.01613    46.312132     -904.704    1658.7326    12953.884    2.2137568     98.24081   0.14352848 
  201700   -951.99756      47.0866   -904.91096    1686.4712    10441.859    2.2109485    96.762858   0.16107038 
  201800   -943.06938    44.659056   -898.41032    1599.5254   -13215.473    2.1354414    95.630325   0.16418515 
  201900   -949.58522    44.983671   -904.60155     1611.152   -9929.0322    2.1623859    101.05146   0.16898553 
  202000   -949.54172    45.708696   -903.83302    1637.1197    6200.2183    2.2004517    101.93602   0.15986514 
  202100    -944.0692     48.78449   -895.28471    1747.2835    4075.1005    2.1784918    97.411386   0.15173001 
  202200   -946.61815    43.868724   -902.74943    1571.2186   -4003.6551    2.1653188    97.411955   0.14890214 
  202300   -948.72455    44.913934   -903.81062    1608.6543    -6414.392    2.1690795    104.61546   0.16027473 
  202400   -944.30653    48.033181   -896.27335    1720.3744    5393.9087    2.1776915    92.729851   0.15552879 
  202500   -949.54228    47.705117   -901.83716    1708.6243    1424.0893     2.183859    106.21832     0.158185 
  202600   -951.41462    46.956145   -904.45847    1681.7988   -9928.2694    2.1638239    119.37911   0.13974754 
  202700   -947.36429    48.146432   -899.21786    1724.4306   -5532.7498    2.1630112      96.3622   0.14789536 
  202800   -944.10258    43.903309   -900.19927    1572.4573    6840.3928    2.1865895    99.709561   0.14757415 
  202900   -947.98179    41.564136   -906.41766    1488.6766    7560.7829    2.1986567    102.79185   0.13363022 
  203000     -945.005    44.695412   -900.30958    1600.8276   -5909.8075    2.1558137    107.42011   0.16177332 
  203100   -945.04013    44.954905   -900.08522    1610.1216   -7053.1244    2.1580585    102.96735    0.1422806 
  203200   -948.44839     42.00517   -906.44322    1504.4729      8327.51    2.1979817    82.041822   0.13250425 
Loop time of 154.443 on 1 procs for 200000 steps with 217 atoms

Performance: 335.658 ns/day, 0.072 hours/ns, 1294.977 timesteps/s
100.0% CPU use with 1 MPI tasks x no OpenMP threads

MPI task timing breakdown:
Section |  min time  |  avg time  |  max time  |%varavg| %total
---------------------------------------------------------------
Pair    | 149.25     | 149.25     | 149.25     |   0.0 | 96.64
Neigh   | 1.6752     | 1.6752     | 1.6752     |   0.0 |  1.08
Comm    | 0.97065    | 0.97065    | 0.97065    |   0.0 |  0.63
Output  | 0.077257   | 0.077257   | 0.077257   |   0.0 |  0.05
Modify  | 2.1106     | 2.1106     | 2.1106     |   0.0 |  1.37
Other   |            | 0.3598     |            |       |  0.23

Nlocal:    217 ave 217 max 217 min
Histogram: 1 0 0 0 0 0 0 0 0 0
Nghost:    957 ave 957 max 957 min
Histogram: 1 0 0 0 0 0 0 0 0 0
Neighs:    4249 ave 4249 max 4249 min
Histogram: 1 0 0 0 0 0 0 0 0 0
FullNghs:  8498 ave 8498 max 8498 min
Histogram: 1 0 0 0 0 0 0 0 0 0

Total # of neighbors = 8498
Ave neighs/atom = 39.1613
Neighbor list builds = 2628
Dangerous builds = 12
Total wall time: 0:02:36
