LAMMPS (3 Mar 2020)
Reading data file ...
  orthogonal box = (0 0 0) to (17.469 17.469 17.469)
  1 by 1 by 1 MPI processor grid
  reading atoms ...
  217 atoms
  read_data CPU = 0.001009 secs
Reading potential file library.meam with DATE: 2012-06-29
Reading potential file LiSi.meam with DATE: 2020-11-07
1 atoms in group Li
Neighbor list info ...
  update every 1 steps, delay 10 steps, check yes
  max neighbors/atom: 2000, page size: 100000
  master list distance cutoff = 6
  ghost atom cutoff = 6
  binsize = 3, bins = 6 6 6
  2 neighbor lists, perpetual/occasional/extra = 2 0 0
  (1) pair meam/c, perpetual
      attributes: full, newton on
      pair build: full/bin/atomonly
      stencil: full/bin/3d
      bin: standard
  (2) pair meam/c, perpetual, half/full from (1)
      attributes: half, newton on
      pair build: halffull/newton
      stencil: none
      bin: none
Setting up Verlet run ...
  Unit style    : metal
  Current step  : 0
  Time step     : 0.0005
Per MPI rank memory allocation (min/avg/max) = 9.27 | 9.27 | 9.27 Mbytes
Step PotEng KinEng TotEng Temp Press Density c_msdli[4] 
       0   -951.04357    50.256344   -900.78722         1800   -114161.75    1.8918427            0 
     100   -921.49836     20.71802   -900.78034    742.04435    -90057.26    1.8918427   0.12973967 
     200   -929.53126    28.749815   -900.78144    1029.7141   -92889.029    1.8918427   0.19891772 
     300   -924.39041    23.610747   -900.77966    845.65135   -90251.476    1.8918427  0.074822847 
     400   -928.83258    28.051377    -900.7812    1004.6986    -94773.89    1.8918427   0.14095767 
     500   -924.43383    23.653377   -900.78045    847.17817   -91202.847    1.8918427   0.13569487 
     600   -929.57255    28.790922   -900.78162    1031.1864   -93534.427    1.8918427  0.050155372 
     700   -923.72973    22.949458   -900.78027    821.96636   -89769.192    1.8918427   0.10779103 
     800   -929.76658    28.985358   -900.78122    1038.1504   -93808.553    1.8918427  0.018271878 
     900   -924.70072    23.920869   -900.77985    856.75877   -91008.096    1.8918427  0.086055704 
    1000   -928.28942    27.508159   -900.78126    985.24251   -92984.767    1.8918427  0.088945934 
    1100   -926.85305    26.072721   -900.78033    933.83032   -92201.394    1.8918427  0.071322672 
    1200   -928.07489    27.293743   -900.78114    977.56288   -94138.616    1.8918427  0.057837982 
    1300   -926.66946    25.888523   -900.78093    927.23299    -92065.62    1.8918427  0.064968942 
    1400    -927.5931    26.812624   -900.78048    960.33097   -91476.475    1.8918427  0.075535575 
    1500    -924.8188     24.03774   -900.78106    860.94466   -91270.948    1.8918427  0.029723796 
    1600   -925.41164    24.631597   -900.78005    882.21449   -91557.779    1.8918427  0.020041716 
    1700   -928.69277    27.911486   -900.78128    999.68822   -93884.086    1.8918427 0.0012139566 
    1800    -923.9285    23.148113   -900.78038    829.08148   -91117.765    1.8918427   0.29650013 
    1900   -927.05853    26.278649   -900.77988    941.20589   -90742.712    1.8918427  0.064799384 
    2000   -925.73249    24.952138   -900.78035    893.69511   -92164.635    1.8918427  0.034427401 
    2100   -926.70689    25.925893   -900.78099    928.57146   -92845.345    1.8918427  0.036988833 
    2200   -928.03346    27.252505   -900.78095    976.08589    -94097.53    1.8918427  0.080137874 
    2300   -926.88917    26.108522   -900.78065    935.11259   -93433.814    1.8918427    0.1063182 
    2400   -923.95625    23.176598   -900.77965    830.10171   -89331.675    1.8918427  0.032430169 
    2500   -927.57394    26.792959   -900.78098    959.62664   -93434.958    1.8918427  0.028006415 
    2600   -924.29423    23.515124    -900.7791    842.22646   -89625.908    1.8918427  0.025039975 
    2700   -927.98805    27.206598   -900.78145    974.44168    -94870.33    1.8918427  0.015203882 
    2800   -927.80385    27.023097   -900.78075    967.86933   -93289.736    1.8918427   0.01412179 
    2900   -926.23528    25.454193   -900.78108    911.67687   -91649.377    1.8918427  0.073999203 
    3000   -927.15551    26.375481   -900.78003    944.67408   -91819.625    1.8918427  0.051785913 
    3100   -927.34064    26.559301   -900.78134    951.25783   -92657.048    1.8918427  0.026341887 
    3200   -925.60582    24.825238   -900.78058    889.14998   -91754.819    1.8918427  0.015219027 
    3300   -924.95789    24.178552   -900.77933    865.98806   -90839.809    1.8918427   0.11044219 
    3400    -927.4943    26.712986   -900.78131    956.76228   -93800.243    1.8918427   0.01144585 
    3500   -925.50391    24.723444   -900.78047     885.5041   -92055.277    1.8918427 0.0040268698 
    3600    -927.8853    27.104173   -900.78112     970.7732   -94820.845    1.8918427   0.03095909 
    3700    -926.7322    25.951462   -900.78074    929.48725   -92268.779    1.8918427   0.09450491 
    3800   -926.04315    25.262604   -900.78055    904.81485   -92368.272    1.8918427  0.066660885 
    3900    -928.8333     28.05205   -900.78125    1004.7227   -93840.212    1.8918427   0.10684366 
    4000   -925.95002    25.168782   -900.78124     901.4545   -92323.717    1.8918427   0.22836052 
    4100    -927.7523    26.971544   -900.78076    966.02291    -91723.07    1.8918427   0.11061568 
    4200   -925.36206    24.581393   -900.78066    880.41637   -91359.284    1.8918427  0.016882968 
    4300   -927.26071    26.479969   -900.78075    948.41645   -92162.081    1.8918427  0.030726025 
    4400   -925.99189    25.210571   -900.78132    902.95123   -91120.572    1.8918427  0.060196272 
    4500   -927.58136    26.799878   -900.78148    959.87445    -92123.39    1.8918427  0.047915467 
    4600   -925.12138    24.340893   -900.78048     871.8025   -90914.506    1.8918427  0.097905582 
    4700   -929.64033    28.859037   -900.78129     1033.626   -93703.277    1.8918427  0.029698583 
    4800   -924.59378    23.813097   -900.78068    852.89878   -91534.771    1.8918427  0.054510001 
    4900   -928.26088    27.480462   -900.78042     984.2505   -92800.099    1.8918427   0.02312628 
    5000   -926.87187    26.091638   -900.78023    934.50787   -93639.606    1.8918427   0.15110046 
    5100   -928.42032    27.639358   -900.78096    989.94156   -94436.313    1.8918427   0.10226946 
    5200   -926.41284    25.632208   -900.78063    918.05275   -91937.834    1.8918427  0.017497309 
    5300   -927.33603    26.555724   -900.78031    951.12973   -92567.429    1.8918427  0.075839529 
    5400   -928.00927    27.227995   -900.78128    975.20803   -93510.972    1.8918427  0.044319655 
    5500   -926.18127    25.400641   -900.78063    909.75885   -91460.598    1.8918427   0.11896319 
    5600   -925.77228    24.992034   -900.78025    895.12401    -91661.73    1.8918427  0.070264361 
    5700   -926.10642    25.325867   -900.78056     907.0807   -91745.491    1.8918427  0.059362387 
    5800   -926.11761    25.337144   -900.78047    907.48463   -92220.522    1.8918427  0.030703898 
    5900   -926.30973    25.529335   -900.78039     914.3682   -92985.111    1.8918427  0.080692061 
    6000   -928.92225    28.141384   -900.78086    1007.9223   -93963.817    1.8918427 0.0030309068 
    6100   -928.35308    27.571516   -900.78157    987.51171   -94176.324    1.8918427  0.053470241 
    6200   -925.60792    24.827454   -900.78047    889.22937    -91135.09    1.8918427   0.17758746 
    6300   -926.93006    26.149413   -900.78065    936.57713   -93039.994    1.8918427   0.11770324 
    6400   -925.80763    25.027117   -900.78051    896.38058   -91059.309    1.8918427  0.081833542 
    6500   -925.97053    25.190108   -900.78042    902.21833   -92602.797    1.8918427 0.0031869144 
    6600   -927.24247    26.462217   -900.78025    947.78064   -92541.062    1.8918427  0.053414968 
    6700   -927.87949    27.097996   -900.78149    970.55193   -94048.604    1.8918427  0.010512534 
    6800   -926.27486    25.494471   -900.78039     913.1195   -92290.458    1.8918427   0.11989062 
    6900   -927.59228    26.812011   -900.78027    960.30901   -92136.101    1.8918427  0.017665503 
    7000   -926.57951    25.798293   -900.78122    924.00131   -94135.217    1.8918427  0.012782443 
    7100   -927.07663     26.29596   -900.78067    941.82592   -92669.942    1.8918427  0.059354273 
    7200   -926.39381    25.612867   -900.78094    917.36003   -93091.286    1.8918427   0.01621389 
    7300   -927.19931    26.418167   -900.78115    946.20295   -92337.274    1.8918427  0.094023715 
    7400   -926.76579    25.985331   -900.78046     930.7003   -92857.294    1.8918427  0.031053103 
    7500   -926.91351    26.132998   -900.78051    935.98922   -93047.611    1.8918427  0.033287639 
    7600   -926.31729     25.53682   -900.78048    914.63628   -92742.834    1.8918427   0.02346016 
    7700   -927.84322    27.062884   -900.78033    969.29436   -93335.137    1.8918427  0.040771901 
    7800   -924.36516    23.584814   -900.78034     844.7225   -92128.677    1.8918427  0.026889854 
    7900   -927.35962    26.578571   -900.78105    951.94804   -92653.895    1.8918427  0.074534402 
    8000   -925.81796    25.037508   -900.78045    896.75273   -91729.595    1.8918427  0.060958242 
    8100   -926.46027    25.679791   -900.78048    919.75699   -92225.441    1.8918427  0.038182811 
    8200   -926.76591    25.985045   -900.78087    930.69008   -92490.337    1.8918427   0.09507074 
    8300   -928.39541    27.614382   -900.78102    989.04703   -94746.331    1.8918427  0.060181892 
    8400    -926.0005    25.220288   -900.78021    903.29924    -92083.85    1.8918427   0.17944597 
    8500   -926.65281    25.872349   -900.78046    926.65371    -91939.92    1.8918427  0.027329957 
    8600   -927.53677    26.755424   -900.78135    958.28224   -93728.631    1.8918427 0.0018602913 
    8700   -927.22585    26.445511   -900.78034    947.18229       -94420    1.8918427  0.063458564 
    8800   -928.39166    27.610882   -900.78078    988.92166   -93919.634    1.8918427  0.049687693 
    8900   -926.16414     25.38325   -900.78089    909.13595   -92648.579    1.8918427  0.050639499 
    9000   -925.14235    24.362611   -900.77974    872.58038   -90967.295    1.8918427  0.030964712 
    9100   -928.04879    27.268036   -900.78076    976.64217   -93358.028    1.8918427  0.043955147 
    9200    -924.7736    23.993562   -900.78003    859.36238   -90642.324    1.8918427  0.032247869 
    9300   -926.49152    25.710946   -900.78058    920.87285   -92305.631    1.8918427  0.049754955 
    9400    -926.9945    26.213707   -900.78079    938.87993   -92690.747    1.8918427  0.038090366 
    9500   -927.16009    26.378988    -900.7811    944.79968   -93023.047    1.8918427  0.023656218 
    9600   -927.73976    26.959042   -900.78072     965.5751   -92966.287    1.8918427  0.097284879 
    9700   -926.55679    25.776017   -900.78077    923.20344   -93797.603    1.8918427   0.21109151 
    9800    -927.0043    26.223483   -900.78082    939.23008   -93230.695    1.8918427  0.018859481 
    9900   -926.80747    26.026749   -900.78072    932.18376   -92837.393    1.8918427 0.0078896346 
   10000   -926.10909    25.328351   -900.78074    907.16969   -92020.294    1.8918427  0.054468816 
   10100   -926.31817    25.537626   -900.78055    914.66514   -92517.601    1.8918427  0.028007153 
   10200   -928.22863    27.447722   -900.78091    983.07786   -94669.213    1.8918427  0.061457763 
   10300   -928.07871    27.298379   -900.78033    977.72895   -93764.247    1.8918427  0.012086159 
   10400   -926.36502    25.584436   -900.78058     916.3417   -93069.364    1.8918427  0.056402505 
   10500   -929.62593    28.845151   -900.78078    1033.1287   -95150.235    1.8918427  0.012586264 
   10600   -926.32574    25.544972   -900.78077    914.92827   -92902.042    1.8918427  0.022213918 
   10700   -927.20524    26.425184   -900.78006    946.45427   -93122.428    1.8918427  0.060986631 
   10800   -925.57958    24.798836   -900.78074    888.20436   -92093.026    1.8918427   0.04025369 
   10900   -926.01384    25.233049   -900.78079    903.75631   -92824.976    1.8918427  0.086528944 
   11000   -926.97243     26.19239   -900.78004    938.11641   -92660.138    1.8918427  0.044196672 
   11100   -925.48436    24.704573   -900.77979     884.8282   -91191.723    1.8918427  0.030377423 
   11200   -925.79329     25.01227   -900.78102    895.84881   -93632.117    1.8918427  0.047554088 
   11300    -928.5136    27.732377   -900.78123    993.27317   -93401.482    1.8918427  0.076096246 
   11400   -925.95606    25.175832   -900.78022    901.70702     -92566.3    1.8918427  0.029739066 
   11500   -927.78099    27.000067   -900.78092    967.04448   -93513.298    1.8918427   0.19746717 
   11600   -927.34073    26.560158   -900.78057    951.28852   -92614.491    1.8918427  0.012135443 
   11700   -927.13754    26.356191   -900.78135    943.98319   -93783.489    1.8918427   0.05902927 
   11800   -926.90224    26.121691   -900.78055    935.58423   -92285.842    1.8918427 0.0036202602 
   11900   -926.96886    26.187207   -900.78166     937.9308   -94309.991    1.8918427  0.042885228 
   12000     -926.208    25.427649   -900.78035    910.72616    -92159.94    1.8918427   0.12186486 
   12100   -926.84241    26.062223   -900.78019    933.45432   -93288.106    1.8918427  0.030523272 
   12200   -926.97783    26.197465   -900.78037    938.29818   -92908.052    1.8918427  0.053921739 
   12300   -928.63561    27.854011    -900.7816    997.62966   -94489.279    1.8918427  0.002597538 
   12400   -925.06246    24.283039   -900.77942    869.73038   -90855.977    1.8918427 0.0096852854 
   12500     -927.949    27.167455   -900.78155    973.03971   -95755.592    1.8918427  0.041413532 
   12600   -926.77957     25.99989   -900.77968    931.22177   -92708.414    1.8918427   0.12638366 
   12700   -924.57406    23.794115   -900.77995    852.21892   -91694.491    1.8918427  0.051971367 
   12800   -926.00721    25.227197   -900.78001    903.54672   -92567.859    1.8918427   0.00884202 
   12900   -925.48206    24.701091   -900.78097     884.7035   -92119.109    1.8918427  0.042848265 
   13000   -926.18965    25.409383   -900.78027    910.07194   -92726.487    1.8918427  0.010020109 
   13100   -926.61911    25.838176   -900.78093    925.42978   -93510.515    1.8918427  0.032227696 
   13200   -927.35975    26.579095   -900.78065    951.96679   -94274.548    1.8918427  0.042834284 
   13300   -928.21296    27.430679   -900.78228    982.46743   -94573.508    1.8918427  0.014842126 
   13400   -927.22534    26.444442    -900.7809    947.14401   -93743.665    1.8918427  0.055456012 
   13500   -928.39806    27.616643   -900.78142    989.12801   -94604.281    1.8918427  0.029152109 
   13600   -926.94988    26.169244   -900.78064     937.2874   -92676.165    1.8918427  0.096184849 
   13700   -927.69233    26.911703   -900.78062     963.8796   -93840.445    1.8918427    0.0173541 
   13800   -926.65215    25.872067   -900.78008    926.64362   -93176.676    1.8918427   0.11645809 
   13900   -926.47723     25.69644   -900.78079     920.3533   -92849.169    1.8918427  0.088612789 
   14000   -927.92462    27.143607   -900.78102    972.18555   -93578.583    1.8918427   0.03427555 
   14100   -926.15048    25.370176    -900.7803    908.66769   -93336.271    1.8918427  0.053901362 
   14200   -927.25419    26.473445   -900.78075     948.1828   -93787.918    1.8918427  0.033305165 
   14300    -926.5572    25.776834   -900.78036    923.23272   -93894.507    1.8918427  0.019081343 
   14400   -928.02042    27.239593   -900.78083    975.62344   -94389.325    1.8918427 0.0078447103 
   14500    -926.1646    25.384885   -900.77972    909.19451   -92122.888    1.8918427  0.060258138 
   14600    -928.1681    27.386888   -900.78121    980.89902   -93611.104    1.8918427  0.021159667 
   14700   -926.29496    25.515125   -900.77984    913.85924   -93605.519    1.8918427  0.052217019 
   14800   -928.20385    27.423633   -900.78022    982.21509   -92532.436    1.8918427   0.26288703 
   14900   -924.72788     23.94779   -900.78009    857.72299   -91354.226    1.8918427   0.14176167 
   15000     -928.881    28.099755   -900.78125    1006.4313   -93416.883    1.8918427  0.069606029 
   15100   -925.97016    25.189154     -900.781    902.18414   -92476.241    1.8918427  0.011969174 
   15200   -926.90802    26.127644   -900.78037    935.79745   -91268.234    1.8918427  0.045184414 
   15300     -924.673    23.892416   -900.78058    855.73969   -90651.197    1.8918427   0.15761394 
   15400    -927.0086    26.228275   -900.78033    939.40171   -92318.852    1.8918427  0.042834428 
   15500   -926.21041    25.429586   -900.78082    910.79553   -92735.396    1.8918427  0.078572305 
   15600   -926.83978    26.059518   -900.78026    933.35743   -92069.079    1.8918427  0.081702291 
   15700   -924.99069    24.211185   -900.77951    867.15685   -91439.279    1.8918427  0.081322894 
   15800   -928.04207    27.261309   -900.78076    976.40121   -92732.903    1.8918427   0.18588776 
   15900   -924.95075    24.170449    -900.7803    865.69782   -89710.671    1.8918427  0.069338098 
   16000   -928.77027    27.988447   -900.78183    1002.4447   -93950.719    1.8918427   0.11216509 
   16100    -925.9988    25.217845   -900.78096    903.21174   -93161.898    1.8918427  0.085850033 
   16200   -925.97393    25.194085   -900.77984    902.36077   -91346.581    1.8918427  0.038863554 
   16300   -926.80558    26.024713   -900.78087    932.11085   -94013.045    1.8918427   0.03510306 
   16400   -927.90487    27.123546   -900.78132    971.46705   -95329.483    1.8918427  0.072715775 
   16500   -927.11464    26.334733   -900.77991    943.21462   -92136.918    1.8918427   0.07491419 
   16600   -925.66664    24.885468   -900.78117    891.30721       -93370    1.8918427  0.026715249 
   16700   -927.16511    26.384792   -900.78032    945.00757    -92337.04    1.8918427  0.043578461 
   16800   -925.75148    24.970747   -900.78074     894.3616    -92737.71    1.8918427   0.11873189 
   16900   -926.80248    26.022847   -900.77964      932.044   -91476.714    1.8918427  0.032741679 
   17000   -926.21483    25.433911   -900.78092    910.95045   -93121.363    1.8918427  0.056751564 
   17100    -927.8473    27.066403    -900.7809    969.42041   -91869.369    1.8918427    0.1292878 
   17200   -925.62657    24.845885   -900.78068    889.88951    -92408.34    1.8918427   0.13836184 
   17300   -927.47028    26.689191   -900.78109    955.91003   -92344.381    1.8918427   0.29082309 
   17400   -926.24126    25.460827   -900.78044     911.9145   -93180.985    1.8918427 0.0056451554 
   17500   -927.82354     27.04272   -900.78082    968.57217   -93592.674    1.8918427  0.072680711 
   17600   -926.37836    25.597168    -900.7812    916.79774    -94037.97    1.8918427  0.061464594 
   17700   -927.72135     26.94039   -900.78096    964.90707   -92170.381    1.8918427  0.034852516 
   17800   -924.71277    23.932461   -900.78031    857.17396   -90785.757    1.8918427   0.06520042 
   17900   -927.71817    26.937553   -900.78062    964.80546   -92904.721    1.8918427  0.068351584 
   18000   -926.34009    25.560211   -900.77988    915.47406    -91959.35    1.8918427  0.084256073 
   18100   -926.89475     26.11385    -900.7809    935.30339   -92883.889    1.8918427  0.061902307 
   18200   -927.78489    27.003911   -900.78098    967.18216   -94214.338    1.8918427   0.23033698 
   18300   -926.88544     26.10451   -900.78093    934.96888   -91843.861    1.8918427  0.098848563 
   18400   -926.33844    25.557738    -900.7807     915.3855   -91799.553    1.8918427   0.24264824 
   18500   -926.17378    25.392902   -900.78088    909.48165   -91419.085    1.8918427   0.37078408 
   18600   -929.21893    28.437116   -900.78181    1018.5144   -94664.382    1.8918427  0.038835946 
   18700   -924.49875    23.719008   -900.77974    849.52883   -90730.388    1.8918427   0.07392848 
   18800    -928.7436    27.962536   -900.78106    1001.5167   -94160.401    1.8918427   0.12357886 
   18900   -925.28359     24.50253   -900.78106    877.59178   -91548.071    1.8918427   0.25461986 
   19000    -928.9393    28.158121   -900.78118    1008.5218   -94710.308    1.8918427   0.10811727 
   19100   -928.26287    27.481652   -900.78122    984.29311   -92863.923    1.8918427  0.020333895 
   19200   -926.15966    25.378774   -900.78089    908.97566   -92061.323    1.8918427   0.05548542 
   19300   -927.69659    26.915246   -900.78134    964.00651   -92612.321    1.8918427  0.021904717 
   19400   -926.44499    25.664207   -900.78079    919.19883    -92361.93    1.8918427  0.020088206 
   19500   -929.71561    28.933415   -900.78219      1036.29   -95046.509    1.8918427  0.015488032 
   19600   -926.88392    26.102822    -900.7811    934.90841   -92342.483    1.8918427  0.023403212 
   19700   -927.61626    26.835608   -900.78065    961.15416    -92400.93    1.8918427   0.10885024 
   19800   -926.10743    25.326552   -900.78087    907.10525   -90923.087    1.8918427   0.11715112 
   19900   -927.52926    26.748625   -900.78063    958.03875   -91348.149    1.8918427  0.026036818 
   20000   -926.55047    25.769155   -900.78131    922.95768   -92360.944    1.8918427  0.021374441 
   20100   -927.41407    26.632838   -900.78123    953.89167   -91788.556    1.8918427  0.031363884 
   20200   -924.86303    24.083163   -900.77987    862.57156   -90882.583    1.8918427  0.017071084 
   20300    -928.4004    27.619776   -900.78062    989.24021   -93914.838    1.8918427  0.077879876 
   20400   -927.58223    26.801089   -900.78114    959.91781   -93333.764    1.8918427   0.10459876 
   20500   -927.48531    26.704214    -900.7811    956.44811   -93189.082    1.8918427  0.021641556 
   20600   -927.24599    26.464387    -900.7816    947.85838   -93662.727    1.8918427  0.033686739 
   20700   -928.12581     27.34467   -900.78114    979.38692   -93234.147    1.8918427  0.036379155 
   20800   -926.23611    25.455302   -900.78081    911.71659   -91246.158    1.8918427  0.062292539 
   20900   -925.83801    25.057642   -900.78036    897.47387   -90880.408    1.8918427  0.090568411 
   21000   -927.63082    26.850314    -900.7805    961.68087   -93576.819    1.8918427 0.0086955737 
   21100   -927.34529    26.564447   -900.78084    951.44215   -93144.874    1.8918427  0.074341868 
   21200   -926.78276    26.001727   -900.78103    931.28756   -92669.404    1.8918427  0.054931344 
   21300   -925.85553    25.075523   -900.78001    898.11429   -90893.017    1.8918427 0.0068132916 
   21400   -926.76978    25.989132   -900.78065    930.83645   -92185.784    1.8918427   0.16179139 
   21500   -927.02595    26.244883   -900.78106    939.99651   -93811.101    1.8918427   0.15397152 
   21600   -927.44682    26.666281   -900.78054    955.08949   -93853.282    1.8918427  0.096158353 
   21700   -926.15292    25.372575   -900.78035    908.75362    -93207.05    1.8918427  0.059809943 
   21800   -927.98609    27.205552   -900.78054     974.4042   -93670.877    1.8918427  0.055458763 
   21900   -927.02146    26.240687   -900.78078    939.84625   -93939.445    1.8918427  0.022634914 
   22000   -927.79247    27.011324   -900.78114    967.44765   -93402.832    1.8918427  0.030886869 
   22100   -926.40793     25.62691   -900.78102    917.86298   -92611.121    1.8918427   0.01978492 
   22200   -927.49246    26.711565   -900.78089     956.7114    -93515.07    1.8918427  0.044450492 
   22300   -927.31744    26.536241   -900.78119    950.43193   -94764.925    1.8918427  0.089495349 
   22400   -927.89227    27.111441   -900.78083    971.03348   -93573.472    1.8918427 0.0039066251 
   22500   -927.65604    26.875048     -900.781    962.56677   -94346.941    1.8918427  0.049461873 
   22600   -926.05537    25.275048   -900.78032    905.26056   -91945.117    1.8918427   0.01304487 
   22700   -927.68465    26.903662   -900.78099     963.5916   -93774.324    1.8918427  0.021220035 
   22800   -927.45556    26.674473   -900.78109    955.38289   -93108.617    1.8918427  0.038786447 
   22900   -927.03917    26.257636   -900.78154     940.4533   -94073.346    1.8918427   0.12033429 
   23000    -926.2476    25.467559   -900.78004    912.15559   -92061.751    1.8918427  0.094879747 
   23100   -927.20587    26.425212   -900.78066    946.45525   -93290.129    1.8918427  0.072625728 
   23200   -926.34155    25.561125   -900.78043    915.50681   -93220.935    1.8918427   0.18244402 
   23300   -927.88783     27.10671   -900.78112    970.86404   -94415.369    1.8918427  0.051415024 
   23400   -925.96138    25.181018   -900.78036    901.89276   -91825.607    1.8918427  0.072453956 
   23500   -927.11929    26.338709   -900.78058    943.35704   -93583.217    1.8918427  0.047634363 
   23600   -925.70671    24.926456   -900.78025    892.77527   -91682.243    1.8918427  0.080498155 
   23700   -926.99138    26.210921   -900.78046    938.78015   -93951.938    1.8918427  0.044759084 
   23800   -926.76284    25.982459   -900.78038    930.59746   -93071.553    1.8918427  0.073204844 
   23900   -926.01661    25.235961   -900.78065    903.86059    -92223.31    1.8918427  0.025463069 
   24000   -926.46015    25.679452    -900.7807    919.74486   -92374.032    1.8918427   0.10575742 
   24100   -925.59612    24.815893   -900.78023    888.81529   -91966.834    1.8918427  0.015428398 
   24200   -926.22562    25.444927   -900.78069    911.34502   -92863.808    1.8918427  0.028295114 
   24300   -925.11807    24.337516   -900.78055    871.68156   -92592.249    1.8918427  0.039076944 
   24400   -927.40546    26.624947   -900.78051    953.60906   -93231.965    1.8918427  0.034466235 
   24500   -926.16503    25.384817   -900.78021    909.19209   -93560.578    1.8918427  0.074517294 
   24600   -928.69184    27.910777   -900.78107     999.6628   -94336.574    1.8918427  0.010424008 
   24700   -926.10069    25.319844   -900.78085    906.86497   -91640.712    1.8918427   0.11139229 
   24800   -927.71121     26.93037   -900.78084    964.54817   -94263.666    1.8918427   0.13807547 
   24900   -927.52481    26.744294   -900.78052    957.88361   -93589.462    1.8918427  0.014137576 
   25000    -928.3457    27.564589   -900.78111    987.26362   -94089.792    1.8918427  0.028419684 
   25100   -924.82842    24.048112   -900.78031    861.31617   -92136.733    1.8918427   0.04164261 
   25200   -927.61282    26.831568   -900.78125    961.00945   -93644.473    1.8918427 0.0092155873 
   25300   -925.88097    25.100622   -900.78035    899.01325   -92125.792    1.8918427  0.021964086 
   25400   -927.81172    27.030601   -900.78112    968.13812   -93847.318    1.8918427  0.056086976 
   25500   -925.42947    24.648935   -900.78054    882.83547    -91230.87    1.8918427   0.11170969 
   25600   -926.61296    25.832232   -900.78073    925.21687   -91084.561    1.8918427  0.023446987 
   25700   -926.11497    25.334482   -900.78049    907.38927   -92763.433    1.8918427  0.073848684 
   25800   -927.53774    26.757202   -900.78053    958.34595   -93244.691    1.8918427  0.069836589 
   25900   -927.89043    27.108708   -900.78173    970.93559   -94947.347    1.8918427  0.031410154 
   26000   -927.71275    26.931556    -900.7812    964.59066   -93631.649    1.8918427   0.01507521 
   26100    -927.3001     26.51892   -900.78118    949.81155   -93239.381    1.8918427  0.089090878 
   26200    -926.1786     25.39785   -900.78075     909.6589    -92681.57    1.8918427  0.060719342 
   26300   -926.55201    25.771295   -900.78071    923.03433   -93252.341    1.8918427   0.10283579 
   26400   -927.12253    26.341615   -900.78092    943.46113   -93279.286    1.8918427  0.084543826 
   26500   -925.78473    25.004294   -900.78044    895.56314   -92790.891    1.8918427  0.057705658 
   26600    -927.9113    27.130487   -900.78081    971.71566   -93936.981    1.8918427  0.026353373 
   26700    -926.5024    25.721647   -900.78075     921.2561   -92819.557    1.8918427  0.064427099 
   26800   -927.29458    26.514067   -900.78051    949.63772   -93006.028    1.8918427    0.1053572 
   26900   -928.12817    27.346784   -900.78138    979.46265   -95361.851    1.8918427  0.020184184 
   27000   -927.30452    26.523552   -900.78097    949.97743   -92766.581    1.8918427  0.072188801 
   27100   -926.36604    25.585253   -900.78079    916.37099   -91662.982    1.8918427   0.15549296 
   27200   -928.25599    27.475381   -900.78061    984.06852   -95529.958    1.8918427  0.037601992 
   27300   -926.04777    25.267157   -900.78062    904.97793   -92319.566    1.8918427   0.10226964 
   27400   -928.10849    27.327374   -900.78111    978.76744   -95128.982    1.8918427   0.06136226 
   27500   -924.63784    23.858342    -900.7795    854.51929   -92240.595    1.8918427  0.097980338 
   27600   -927.34002    26.559098   -900.78092    951.25059   -95204.984    1.8918427  0.058311535 
   27700   -927.10498    26.324168   -900.78081    942.83622   -93810.049    1.8918427   0.10902013 
   27800   -926.70966    25.928641   -900.78101     928.6699   -94298.663    1.8918427   0.15219222 
   27900   -927.41797    26.636807   -900.78117    954.03382   -93439.082    1.8918427   0.37386205 
   28000   -927.41748    26.636232   -900.78125    954.01322   -94576.742    1.8918427   0.12869628 
   28100   -927.14022    26.359498   -900.78072    944.10164   -93278.019    1.8918427    0.1905211 
   28200    -927.3685    26.587555   -900.78094    952.26981   -93338.683    1.8918427   0.13966803 
   28300   -926.65567    25.874873   -900.78079    926.74412   -92973.821    1.8918427 0.0050168213 
   28400   -926.25026    25.469691   -900.78057    912.23198    -91859.57    1.8918427  0.033713789 
   28500   -927.83797    27.056623   -900.78135    969.07012   -93721.524    1.8918427  0.046568883 
   28600   -926.95902    26.178096   -900.78092    937.60446    -93186.67    1.8918427  0.043273748 
   28700   -926.97402    26.192476   -900.78155    938.11949   -93814.734    1.8918427   0.17537433 
   28800   -925.19234    24.411981   -900.78036    874.34861   -92027.959    1.8918427  0.076393298 
   28900   -927.58041    26.798804    -900.7816    959.83598   -94518.888    1.8918427 0.0051802115 
   29000   -926.49033    25.709542   -900.78079    920.82256   -91568.099    1.8918427  0.030676003 
   29100   -926.49078    25.710292   -900.78048    920.84942   -92244.604    1.8918427  0.040477831 
   29200   -928.06158     27.28011   -900.78147    977.07462   -93585.266    1.8918427  0.019581092 
   29300   -926.25058    25.469941   -900.78064    912.24092   -92094.784    1.8918427   0.17640736 
   29400   -927.86426    27.083138   -900.78112     970.0198   -93404.371    1.8918427   0.10169378 
   29500   -926.33581    25.555386   -900.78042    915.30124    -91557.92    1.8918427   0.12451999 
   29600   -927.90943    27.128045   -900.78139    971.62818   -93409.174    1.8918427   0.22862564 
   29700   -925.65638    24.876117   -900.78026    890.97231   -92352.794    1.8918427   0.22771089 
   29800   -926.93686    26.156435   -900.78043    936.82863   -92846.789    1.8918427    0.2482601 
   29900   -925.73219    24.952199   -900.77999    893.69726    -91657.98    1.8918427   0.01303615 
   30000   -926.74599    25.965821   -900.78017    930.00152   -93613.344    1.8918427  0.039204983 
   30001   -926.72886    25.948763    -900.7801    929.39058   -93645.483    1.8918427  0.043143831 
Loop time of 15.7896 on 1 procs for 30001 steps with 217 atoms

Performance: 82.082 ns/day, 0.292 hours/ns, 1900.044 timesteps/s
100.0% CPU use with 1 MPI tasks x no OpenMP threads

MPI task timing breakdown:
Section |  min time  |  avg time  |  max time  |%varavg| %total
---------------------------------------------------------------
Pair    | 15.549     | 15.549     | 15.549     |   0.0 | 98.47
Neigh   | 0          | 0          | 0          |   0.0 |  0.00
Comm    | 0.12512    | 0.12512    | 0.12512    |   0.0 |  0.79
Output  | 0.0084618  | 0.0084618  | 0.0084618  |   0.0 |  0.05
Modify  | 0.06518    | 0.06518    | 0.06518    |   0.0 |  0.41
Other   |            | 0.04203    |            |       |  0.27

Nlocal:    217 ave 217 max 217 min
Histogram: 1 0 0 0 0 0 0 0 0 0
Nghost:    957 ave 957 max 957 min
Histogram: 1 0 0 0 0 0 0 0 0 0
Neighs:    3702 ave 3702 max 3702 min
Histogram: 1 0 0 0 0 0 0 0 0 0
FullNghs:  7404 ave 7404 max 7404 min
Histogram: 1 0 0 0 0 0 0 0 0 0

Total # of neighbors = 7404
Ave neighs/atom = 34.1198
Neighbor list builds = 0
Dangerous builds = 0
Total wall time: 0:00:15
