LAMMPS (3 Mar 2020)

    # ---------- Initialize simulation ---------------------
    units metal
    atom_style atomic
    dimension  3
    boundary   p p p
    read_data /home/modeler/RemLabs/Lab4/Problem2A_v1_size_3/temp_2360/lammps.data
  orthogonal box = (0 0 0) to (12.27 12.27 12.27)
  1 by 1 by 1 MPI processor grid
  reading atoms ...
  108 atoms
  read_data CPU = 0.000922288 secs

    pair_style eam
    pair_coeff * * /usr/share/lammps-stable/potentials/Ag_u3.eam
Reading potential file /usr/share/lammps-stable/potentials/Ag_u3.eam with DATE: 2007-06-11

    velocity  all create 2360 87287 dist gaussian

    # ---------- Describe computed properties------------------
    compute msdall all msd
    thermo_style custom step pe ke etotal temp press density c_msdall[4]
    thermo 100

    # ---------- Specify ensemble  ---------------------
    #fix  1 all nve
    fix  1 all nvt temp 2360 2360 0.25

    # --------- Compute RDF ---------------
    compute rdfall all rdf 100 1 1
    fix 2 all ave/time 1 125000 125000 c_rdfall[*] file /home/modeler/RemLabs/Lab4/Problem2A_v1_size_3/temp_2360/lammps.rdf mode vector

    # --------- Run -------------
    timestep 0.005
    run 500000
Neighbor list info ...
  update every 1 steps, delay 10 steps, check yes
  max neighbors/atom: 2000, page size: 100000
  master list distance cutoff = 7.55
  ghost atom cutoff = 7.55
  binsize = 3.775, bins = 4 4 4
  2 neighbor lists, perpetual/occasional/extra = 1 1 0
  (1) pair eam, perpetual
      attributes: half, newton on
      pair build: half/bin/atomonly/newton
      stencil: half/bin/3d/newton
      bin: standard
  (2) compute rdf, occasional, copy from (1)
      attributes: half, newton on
      pair build: copy
      stencil: none
      bin: none
Per MPI rank memory allocation (min/avg/max) = 3.723 | 3.723 | 3.723 Mbytes
Step PotEng KinEng TotEng Temp Press Density c_msdall[4] 
       0       -307.8    32.640772   -275.15923         2360    18873.154    10.472245            0 
     100   -286.85166    23.796575   -263.05509     1720.545    85982.534    10.472245   0.11633979 
     200   -276.90866     32.19872   -244.70994    2328.0387    119949.51    10.472245   0.15486693 
     300   -269.97923    35.244009   -234.73522    2548.2198    141385.53    10.472245   0.23152789 
     400   -271.78253    29.789344   -241.99318    2153.8355    135364.37    10.472245   0.21367755 
     500   -276.77482    32.574476   -244.20034    2355.2067    121362.14    10.472245    0.1858872 
     600   -273.50326    36.361181   -237.14208    2628.9938    133694.37    10.472245   0.18360347 
     700   -277.84401    32.941232   -244.90278    2381.7239    117437.43    10.472245   0.15749348 
     800    -273.0861    29.230285   -243.85582    2113.4142    131820.04    10.472245   0.19263631 
     900   -275.83362    34.316365   -241.51725    2481.1491    125084.35    10.472245   0.22474493 
    1000   -268.66859    33.452649   -235.21594    2418.7005    150356.03    10.472245   0.28510585 
    1100   -273.53348    35.289957   -238.24353    2551.5419       131441    10.472245   0.25753284 
    1200   -276.14456    32.404626   -243.73993    2342.9261    123223.01    10.472245   0.17977312 
    1300    -274.4632    35.648972   -238.81423    2577.4995    129913.94    10.472245   0.21197568 
    1400   -271.08891    34.493772   -236.59514     2493.976    140288.93    10.472245   0.22315779 
    1500   -271.22165    29.226236   -241.99541    2113.1215    135423.66    10.472245    0.2250151 
    1600   -272.27894    32.599638   -239.67931    2357.0259    133092.29    10.472245   0.21062951 
    1700   -272.91021    35.106407   -237.80381    2538.2709    134101.46    10.472245   0.23278482 
    1800   -277.62667     32.46685   -245.15982    2347.4251    119043.79    10.472245    0.1697577 
    1900   -270.54696    32.681066   -237.86589    2362.9133    141014.46    10.472245    0.2380726 
    2000   -273.24825     34.26406   -238.98419    2477.3674    131540.59    10.472245   0.24356539 
    2100   -273.16378      30.9663   -242.19748     2238.932    131114.77    10.472245   0.21954553 
    2200   -271.29541    35.713929   -235.58148    2582.1961    136375.26    10.472245   0.27497531 
    2300   -268.98794    29.611085   -239.37686    2140.9469    143661.89    10.472245   0.23610732 
    2400   -276.51719    32.900393    -243.6168    2378.7712     122054.6    10.472245   0.18375526 
    2500   -267.34069    31.089109   -236.25158    2247.8113    148214.54    10.472245   0.29343062 
    2600   -275.90995    38.987757   -236.92219    2818.9011    128532.91    10.472245   0.20414226 
    2700   -274.50198    30.942105   -243.55988    2237.1826     127898.3    10.472245   0.20107549 
    2800   -272.25401    31.988766   -240.26524    2312.8586     133900.9    10.472245   0.21415619 
    2900   -273.49432     33.75038   -239.74394    2440.2271    133463.21    10.472245   0.20728881 
    3000   -277.51158    30.599878   -246.91171    2212.4389    118407.86    10.472245   0.20235956 
    3100   -272.01153    34.487568   -237.52397    2493.5275    137909.68    10.472245    0.2099014 
    3200   -267.30003    29.074124   -238.22591    2102.1235    148399.06    10.472245   0.34708381 
    3300   -276.59032    32.200563   -244.38976     2328.172    119970.97    10.472245   0.19250328 
    3400   -275.73397    29.796092   -245.93788    2154.3234    123211.19    10.472245   0.20255702 
    3500   -274.84792     33.59047   -241.25745    2428.6653     127103.8    10.472245   0.19826808 
    3600   -275.93987    35.686499   -240.25337    2580.2128    126343.36    10.472245    0.1506797 
    3700   -275.11795    32.483707   -242.63424    2348.6438    129740.43    10.472245   0.19913533 
    3800   -277.24667    27.802016   -249.44465    2010.1472       118063    10.472245   0.21292759 
    3900       -276.5    36.075188   -240.42482    2608.3159     125032.6    10.472245   0.20439687 
    4000   -271.14685    29.991009   -241.15584    2168.4163    135629.22    10.472245   0.26203708 
    4100   -279.05995    29.960992   -249.09896     2166.246    113696.91    10.472245   0.14568444 
    4200   -274.93533    32.112217   -242.82311    2321.7843    125708.88    10.472245    0.1865091 
    4300   -274.47157    33.474525   -240.99705    2420.2822    126470.82    10.472245    0.2307375 
    4400   -268.80892    35.835266   -232.97365     2590.969    149305.14    10.472245   0.23176666 
    4500   -274.55518    33.214187   -241.34099    2401.4592    127963.35    10.472245   0.23885119 
    4600   -276.98195    32.949062   -244.03289      2382.29    120088.06    10.472245   0.19658393 
    4700   -273.93098    34.256212   -239.67477    2476.7999    134034.41    10.472245   0.19863124 
    4800   -268.79901    33.911193   -234.88782    2451.8543    145797.04    10.472245   0.29831113 
    4900   -274.94408    29.437573   -245.50651    2128.4017    126667.69    10.472245   0.20399683 
    5000   -275.16931    33.694696   -241.47461     2436.201    125888.58    10.472245   0.20846927 
    5100   -270.54293    34.033548   -236.50938    2460.7008    141353.18    10.472245   0.24410559 
    5200     -275.499    28.542502   -246.95649     2063.686    120608.26    10.472245   0.16900698 
    5300   -276.75456    36.096299   -240.65826    2609.8423    123707.78    10.472245   0.21396281 
    5400   -273.70329    33.751578   -239.95171    2440.3137    132191.85    10.472245   0.18314951 
    5500   -276.93806     34.73183   -242.20623    2511.1881    122381.88    10.472245   0.21878918 
    5600   -272.54148    32.136081    -240.4054    2323.5097    134528.05    10.472245   0.20649123 
    5700   -272.68878    31.145005   -241.54378    2251.8527    134330.46    10.472245   0.23945659 
    5800   -278.56905    37.048298   -241.52075    2678.6739    117783.75    10.472245   0.18761769 
    5900    -271.8864    38.508751   -233.37765    2784.2679    134821.88    10.472245   0.28964337 
    6000   -272.60083     30.49509   -242.10574    2204.8624    131951.64    10.472245   0.29985597 
    6100   -272.89301    31.788084   -241.10492    2298.3488    132995.37    10.472245   0.25314645 
    6200   -269.48406     32.51147   -236.97259    2350.6512    141523.79    10.472245   0.27636722 
    6300    -274.4662    29.679906   -244.78629    2145.9228    128336.82    10.472245   0.22376489 
    6400   -273.55524    31.572184   -241.98306    2282.7387    132989.29    10.472245   0.19226754 
    6500   -270.89071     35.03658   -235.85413    2533.2222    141523.09    10.472245   0.22694508 
    6600    -271.6635    29.432931   -242.23057     2128.066    135944.22    10.472245    0.2418991 
    6700   -270.66816    29.879489   -240.78867    2160.3531    139903.43    10.472245   0.27374256 
    6800     -271.692     37.01158   -234.68042    2676.0191    139412.86    10.472245   0.26076079 
    6900    -277.6922    33.884209     -243.808    2449.9033    119701.85    10.472245   0.19497135 
    7000   -271.78528    26.996825   -244.78846    1951.9302    131412.03    10.472245   0.30372639 
    7100   -271.42603    33.273054   -238.15298    2405.7154    137489.86    10.472245   0.21801998 
    7200    -276.3827    32.791792   -243.59091    2370.9191    122543.75    10.472245   0.20791043 
    7300   -276.19555    33.136271   -243.05928    2395.8257    125885.64    10.472245   0.19955568 
    7400   -270.82979    33.711121   -237.11867    2437.3886    140211.09    10.472245   0.27149017 
    7500   -278.18744    31.848734    -246.3387    2302.7339    118226.41    10.472245   0.17746829 
    7600   -274.47108    31.455916   -243.01517    2274.3323     126980.7    10.472245   0.19344002 
    7700   -270.01221     29.67444   -240.33777    2145.5276    139732.95    10.472245   0.26385559 
    7800   -269.86357    32.272502   -237.59106    2333.3733    139817.86    10.472245   0.25590683 
    7900   -271.86557    29.057462    -242.8081    2100.9188    134876.91    10.472245   0.24683164 
    8000   -274.60976    29.657308   -244.95245     2144.289    129522.87    10.472245   0.25020276 
    8100   -267.95429    31.999335   -235.95496    2313.6227     150012.9    10.472245   0.28134793 
    8200   -276.48332    33.947107   -242.53621    2454.4509    122918.96    10.472245   0.23032331 
    8300   -273.65033    30.208076   -243.44225    2184.1107    129292.23    10.472245   0.22225516 
    8400   -273.09317    32.532624   -240.56054    2352.1807    131355.88    10.472245   0.21696447 
    8500   -275.16222    33.974311   -241.18791    2456.4178    126151.54    10.472245   0.21894998 
    8600   -277.14161    33.073247   -244.06836    2391.2689     122639.3    10.472245    0.1958256 
    8700   -269.50803    33.994371   -235.51366    2457.8682    147096.37    10.472245   0.30744711 
    8800   -273.42041    33.508568   -239.91185    2422.7436     132123.8    10.472245   0.22883496 
    8900   -275.46736    35.485126   -239.98224    2565.6531    128129.52    10.472245   0.21462341 
    9000   -275.51202     34.22721   -241.28481     2474.703    125915.28    10.472245   0.18535747 
    9100   -276.01724    29.845734    -246.1715    2157.9126    120715.03    10.472245    0.2000237 
    9200    -277.6976    37.197756   -240.49985      2689.48    122120.33    10.472245   0.19586116 
    9300   -271.07258    29.545665   -241.52691     2136.217    138942.58    10.472245   0.29816868 
    9400   -270.00263    36.048494   -233.95414    2606.3858    146059.12    10.472245   0.25810087 
    9500   -274.85614    33.141056   -241.71508    2396.1717    126773.13    10.472245   0.18046911 
    9600   -271.08654    27.054142    -244.0324    1956.0743    133218.55    10.472245   0.20806123 
    9700   -270.74211    34.231465   -236.51064    2475.0106    140242.77    10.472245   0.27701299 
    9800   -271.73864    35.520015   -236.21862    2568.1757    136398.71    10.472245   0.20842744 
    9900   -274.77911    32.299911    -242.4792     2335.355    127231.64    10.472245   0.20345537 
   10000   -274.03463    31.266993   -242.76763    2260.6727    129572.52    10.472245   0.23085323 
   10100   -271.82317    35.677707   -236.14546    2579.5772    137874.52    10.472245    0.2107215 
   10200   -275.81245    30.259509   -245.55294    2187.8294    122345.16    10.472245    0.2018119 
   10300   -277.21187     34.51867    -242.6932    2495.7762    121288.87    10.472245   0.20676237 
   10400    -273.6588    36.380746   -237.27806    2630.4084     131212.2    10.472245   0.23544854 
   10500   -279.15626     30.90587   -248.25039    2234.5628    113000.72    10.472245   0.17620656 
   10600   -277.25297    34.175403   -243.07756    2470.9572    120698.09    10.472245    0.1860544 
   10700   -273.21411    33.468054   -239.74605    2419.8143    131996.08    10.472245   0.22749201 
   10800   -280.72115    32.178015   -248.54313    2326.5416    108955.59    10.472245   0.16219481 
   10900   -276.40131    31.638495   -244.76281    2287.5331    122166.01    10.472245   0.20594342 
   11000   -270.62295    30.365593   -240.25736    2195.4995    138833.79    10.472245   0.21886473 
   11100   -272.34662    36.686408   -235.66022    2652.5084    138685.02    10.472245   0.28839843 
   11200   -271.60665    34.939598   -236.66706    2526.2102    138079.23    10.472245   0.22490856 
   11300   -275.00289    31.596089    -243.4068    2284.4671    124150.37    10.472245   0.18826432 
   11400    -271.3624    33.078688   -238.28371    2391.6623    137062.01    10.472245   0.22103547 
   11500   -273.86395    33.579476   -240.28448    2427.8704     131631.4    10.472245   0.19322649 
   11600    -275.7836    30.672576   -245.11103    2217.6951    121674.17    10.472245   0.17965449 
   11700   -268.51568     29.93449   -238.58119    2164.3298    143677.52    10.472245   0.25479447 
   11800   -272.55239     29.54164   -243.01075    2135.9259    133003.45    10.472245   0.24955257 
   11900   -278.28576     32.45564   -245.83012    2346.6146    116411.82    10.472245   0.15680743 
   12000   -274.44718     36.36713   -238.08005     2629.424     134764.6    10.472245   0.25301987 
   12100   -275.02833     35.72041   -239.30792    2582.6647    126846.25    10.472245    0.1870367 
   12200   -275.66381    29.086598   -246.57721    2103.0254    123835.15    10.472245   0.15426924 
   12300   -272.93263    36.892332    -236.0403    2667.3972    135315.67    10.472245   0.20069485 
   12400   -270.31398    30.866901   -239.44708    2231.7452     142207.4    10.472245   0.29154994 
   12500   -273.85522    27.189546   -246.66567    1965.8643    127604.59    10.472245   0.21857739 
   12600    -272.7185    35.572145   -237.14635    2571.9448    135536.98    10.472245   0.19667852 
   12700   -270.58312    30.139687   -240.44343     2179.166    139087.17    10.472245   0.25880523 
   12800   -273.05469    27.181023   -245.87367    1965.2481     131324.3    10.472245   0.24953462 
   12900   -270.87958    30.237898   -240.64168    2186.2669    135988.94    10.472245   0.33146736 
   13000   -273.73536    33.801174   -239.93419    2443.8996    130569.87    10.472245    0.2303749 
   13100    -273.7798    27.571658   -246.20815    1993.4918     127591.2    10.472245   0.25182705 
   13200   -272.54147    31.661417   -240.88005    2289.1905    134857.06    10.472245    0.1751211 
   13300   -274.11408    34.528285   -239.58579    2496.4714    132780.78    10.472245   0.20242183 
   13400   -279.68232    32.798304   -246.88401    2371.3899    111959.24    10.472245   0.18728752 
   13500   -274.40252    38.563386   -235.83913    2788.2181     130335.7    10.472245   0.20555994 
   13600     -274.464    31.019526   -243.44447    2242.7804    128783.47    10.472245   0.24444323 
   13700   -278.73454    34.169953   -244.56458    2470.5632    114418.26    10.472245   0.19198594 
   13800   -269.64995    33.650963   -235.99899    2433.0391    142940.45    10.472245   0.25239833 
   13900   -275.52413    34.235602   -241.28853    2475.3098    124743.25    10.472245   0.19217204 
   14000   -268.78085    26.892283   -241.88857    1944.3716    142389.96    10.472245   0.27933335 
   14100   -268.96063    33.778407   -235.18222    2442.2535    147449.54    10.472245   0.26774004 
   14200   -273.70198    36.456814   -237.24517    2635.9083    133119.41    10.472245   0.20005025 
   14300   -278.11601    32.644822   -245.47119    2360.2928    118516.11    10.472245   0.20435096 
   14400   -269.53497    31.361022   -238.17394    2267.4713    144851.01    10.472245   0.24769002 
   14500   -273.64242    34.386249   -239.25617    2486.2018    131691.17    10.472245   0.29610835 
   14600   -271.83433    30.754726    -241.0796    2223.6347    135843.13    10.472245   0.22586403 
   14700   -275.76742     32.14421   -243.62321    2324.0975    122594.52    10.472245   0.25749694 
   14800   -271.94803    34.919103   -237.02893    2524.7284    138209.91    10.472245   0.21697056 
   14900   -271.96848    30.414428   -241.55405    2199.0304    136925.56    10.472245   0.22032953 
   15000   -277.07938     31.74813   -245.33125      2295.46     121099.2    10.472245   0.18963544 
   15100     -268.534    28.095153   -240.43884    2031.3417    145253.81    10.472245   0.27500021 
   15200   -274.29496    34.191858    -240.1031     2472.147    130182.25    10.472245   0.21883068 
   15300   -276.76406    30.807404   -245.95666    2227.4434    119524.49    10.472245   0.21108747 
   15400   -270.66424    32.091565   -238.57267    2320.2911    139172.38    10.472245   0.22091701 
   15500   -271.61195    31.180318   -240.43163     2254.406    135168.14    10.472245   0.23948307 
   15600   -274.87397     32.63013   -242.24384    2359.2306    127763.47    10.472245    0.1931343 
   15700   -275.91413    35.152173   -240.76196    2541.5799     125974.9    10.472245   0.24280837 
   15800   -271.09234    38.029977   -233.06236    2749.6515    137182.52    10.472245   0.25074241 
   15900   -274.55305    32.612917   -241.94013     2357.986    127461.81    10.472245   0.24904201 
   16000   -271.57815    27.390562   -244.18758    1980.3982    134133.45    10.472245   0.24042086 
   16100   -274.08836    29.795899   -244.29246    2154.3094    124624.87    10.472245   0.23156234 
   16200   -274.46244    37.366139    -237.0963    2701.6545    130552.92    10.472245   0.19371614 
   16300   -277.21859    30.232716   -246.98587    2185.8922    119919.44    10.472245   0.24667283 
   16400    -277.7691    34.554734   -243.21437    2498.3837    118428.75    10.472245   0.17266684 
   16500   -270.21615    33.338973   -236.87718    2410.4815    141820.37    10.472245   0.23596199 
   16600   -271.80614    31.284425   -240.52172    2261.9331    134440.15    10.472245    0.2327712 
   16700   -273.28735    30.013903   -243.27345    2170.0715    128329.14    10.472245   0.26931202 
   16800   -274.68276    33.230912   -241.45185    2402.6684    130144.22    10.472245   0.22614933 
   16900   -271.13886    36.065455   -235.07341    2607.6121    137643.63    10.472245   0.25603339 
   17000   -275.40005    30.596749    -244.8033    2212.2126    125948.42    10.472245   0.21842517 
   17100    -275.6892    33.629815   -242.05938      2431.51     124571.8    10.472245   0.21270369 
   17200   -271.30803    35.360308   -235.94772    2556.6285     139723.7    10.472245   0.24735097 
   17300   -273.51805     30.01471   -243.50334    2170.1299    129415.29    10.472245   0.21769269 
   17400    -274.2674    30.851747   -243.41566    2230.6496    127561.06    10.472245   0.21602093 
   17500   -270.08399    33.721776   -236.36222     2438.159    142307.49    10.472245   0.28809626 
   17600   -273.23474    32.359497   -240.87525    2339.6632     131268.9    10.472245   0.23589384 
   17700   -273.39129    31.754868   -241.63642    2295.9472    131753.78    10.472245   0.24741996 
   17800   -269.05484    32.194482   -236.86036    2327.7322    146171.68    10.472245   0.29112401 
   17900   -270.73202    32.565563   -238.16646    2354.5622    138584.49    10.472245   0.26563834 
   18000   -272.79369     29.13423   -243.65946    2106.4693    131183.79    10.472245   0.24326099 
   18100   -274.50703    38.149362   -236.35767    2758.2832    131568.43    10.472245    0.1966173 
   18200   -274.35256    34.801166   -239.55139    2516.2013    128999.63    10.472245   0.21080286 
   18300   -277.60061    31.305813   -246.29479    2263.4796    118160.34    10.472245   0.17207841 
   18400   -273.44263    35.096728    -238.3459     2537.571    132137.02    10.472245   0.19405786 
   18500   -271.98021     33.44625   -238.53396    2418.2378    137443.16    10.472245   0.32971831 
   18600   -274.46603     34.12262   -240.34341    2467.1409    131059.64    10.472245   0.18720155 
   18700    -275.6352    31.708378   -243.92682    2292.5859    123501.96    10.472245    0.1979118 
   18800   -278.37062    31.847228   -246.52339     2302.625    115927.88    10.472245   0.21336465 
   18900   -272.52381    34.232315    -238.2915    2475.0721    135482.41    10.472245   0.17821343 
   19000   -276.60748    32.095706   -244.51177    2320.5905    122145.77    10.472245   0.16105851 
   19100   -273.53823    27.942547   -245.59568    2020.3079    128080.68    10.472245   0.21367457 
   19200   -277.44551    34.597849   -242.84766     2501.501    119258.96    10.472245   0.17395169 
   19300   -271.86928     32.67667   -239.19261    2362.5955    137001.56    10.472245   0.17887175 
   19400   -274.07836    34.204747   -239.87361    2473.0788    130833.72    10.472245   0.19213124 
   19500   -274.36555    28.178355   -246.18719    2037.3574    127072.06    10.472245   0.17546781 
   19600   -270.42178    34.499992   -235.92179    2494.4257    142308.85    10.472245   0.22141863 
   19700   -273.71956    32.872526   -240.84703    2376.7563    130758.15    10.472245    0.2345523 
   19800   -277.07079    32.788361   -244.28243     2370.671    119540.93    10.472245   0.19562247 
   19900   -273.62856    38.718741   -234.90982    2799.4506    133861.17    10.472245    0.1812138 
   20000   -272.41446    30.309007   -242.10546    2191.4083    132234.14    10.472245   0.23274909 
   20100   -277.61097    34.663833   -242.94714    2506.2718    121474.05    10.472245   0.20429313 
   20200   -267.90182    35.541225    -232.3606    2569.7092    149751.09    10.472245   0.33557187 
   20300   -271.94235     31.75803   -240.18432    2296.1758    135750.43    10.472245   0.23970907 
   20400   -273.29094    30.941015   -242.34993    2237.1038    134081.64    10.472245   0.23652102 
   20500   -274.68011    34.241386   -240.43873    2475.7279    129135.45    10.472245   0.25880177 
   20600   -270.39133    35.505547   -234.88578    2567.1296    141820.43    10.472245   0.28791169 
   20700      -274.18    32.421428   -241.75857     2344.141     131910.3    10.472245   0.22542501 
   20800   -273.38448    28.952582    -244.4319    2093.3358    132082.48    10.472245   0.21614449 
   20900   -278.84661    36.798567   -242.04804    2660.6178    118828.34    10.472245   0.14362786 
   21000   -276.21196     33.31317   -242.89879    2408.6159     122956.2    10.472245   0.19171124 
   21100   -271.96232     36.62621   -235.33611     2648.156    139015.99    10.472245   0.24447957 
   21200   -275.15441    33.720131   -241.43428      2438.04    127737.55    10.472245   0.20411222 
   21300    -273.5619    30.755186   -242.80672     2223.668    129517.66    10.472245   0.22204521 
   21400    -268.6841    32.261882   -236.42222    2332.6054    148132.69    10.472245   0.21726086 
   21500   -277.63167    31.229327   -246.40235    2257.9494    117850.92    10.472245   0.16904444 
   21600   -274.79697    34.422712   -240.37426    2488.8382    127882.57    10.472245   0.22536157 
   21700   -270.81866    31.760262    -239.0584    2296.3372    138968.99    10.472245   0.20151071 
   21800   -275.73064    32.144284   -243.58636    2324.1028    123387.59    10.472245   0.18730606 
   21900   -270.94796    28.890071   -242.05789     2088.816    136578.45    10.472245   0.21579717 
   22000   -268.70189    32.600309   -236.10159    2357.0744    145312.61    10.472245   0.30057452 
   22100   -270.86782    33.996098   -236.87173    2457.9931     140873.3    10.472245   0.23191387 
   22200   -272.01432    28.822011   -243.19231    2083.8951    132779.73    10.472245   0.22705885 
   22300   -273.35004     31.57138   -241.77866    2282.6806    132353.34    10.472245   0.20314834 
   22400   -269.48699    33.023553   -236.46344    2387.6759    142992.99    10.472245    0.2812663 
   22500   -277.80554    32.797996   -245.00754    2371.3677    117205.75    10.472245   0.17320048 
   22600   -275.91945    32.416965   -243.50248    2343.8182    124810.24    10.472245   0.24319655 
   22700   -271.85757    33.769117   -238.08846    2441.5819    135655.83    10.472245   0.31133494 
   22800   -272.87917    34.298026   -238.58114    2479.8231    134754.75    10.472245   0.20537779 
   22900   -276.62059    29.562854   -247.05774    2137.4598    120081.94    10.472245   0.15508868 
   23000   -275.65661    33.647761   -242.00885    2432.8075    126794.04    10.472245   0.17738641 
   23100   -273.65188    33.504443   -240.14743    2422.4453    130400.91    10.472245    0.2837535 
   23200    -274.4771    32.954361   -241.52274    2382.6732    127855.85    10.472245   0.22052807 
   23300   -280.28574    31.651617   -248.63413    2288.4819    111873.67    10.472245   0.16753385 
   23400   -275.00677    32.190221   -242.81655    2327.4242       128031    10.472245   0.18379777 
   23500   -272.92859    33.040623   -239.88797    2388.9101    132931.07    10.472245   0.23584485 
   23600   -270.84479    38.972664   -231.87213    2817.8098    141153.18    10.472245   0.21466219 
   23700   -274.78798    32.859428   -241.92855    2375.8094    125814.72    10.472245   0.25907731 
   23800   -273.64769    32.785688     -240.862    2370.4778    133838.82    10.472245   0.22116899 
   23900   -269.78402    34.534503   -235.24951     2496.921    143631.19    10.472245   0.27570763 
   24000   -274.76641    31.585329   -243.18108    2283.6892    124905.29    10.472245   0.18241019 
   24100   -272.78577    28.068036   -244.71774    2029.3811    129033.57    10.472245   0.22604677 
   24200   -270.77766    35.431591   -235.34607    2561.7824    140441.32    10.472245   0.27000433 
   24300    -272.2884    32.523673   -239.76473    2351.5335    136494.28    10.472245   0.22340127 
   24400   -277.71758    33.161632   -244.55595    2397.6594    118885.62    10.472245   0.21792595 
   24500   -270.04892    34.688327   -235.36059    2508.0427    146612.04    10.472245    0.2303516 
   24600   -278.47719    36.353577   -242.12362     2628.444    117514.94    10.472245   0.20362372 
   24700   -272.50076    29.111061    -243.3897    2104.7941    131867.89    10.472245    0.2410657 
   24800   -270.80243    36.049183   -234.75324    2606.4356    143636.42    10.472245   0.25021226 
   24900   -273.38754    30.835738    -242.5518     2229.492    130495.53    10.472245   0.21473588 
   25000   -277.49804    34.371718   -243.12632    2485.1512    120067.75    10.472245   0.15737134 
   25100   -269.16073    34.458653   -234.70208    2491.4368    147430.08    10.472245   0.24655783 
   25200   -272.45553    29.394009   -243.06153    2125.2519    130888.15    10.472245    0.2369439 
   25300   -274.29158    31.417968   -242.87362    2271.5885    125875.14    10.472245    0.2045522 
   25400   -268.39565    35.050173   -233.34548     2534.205    148799.31    10.472245    0.2842149 
   25500   -268.65892    30.645577   -238.01335     2215.743    144946.88    10.472245   0.26549122 
   25600   -274.76311    33.293547   -241.46956    2407.1971    129698.22    10.472245   0.18299167 
   25700   -276.01361     27.49423   -248.51938    1987.8936    119503.07    10.472245   0.18178762 
   25800   -272.23129    33.636429   -238.59486    2431.9882    139122.27    10.472245    0.2447658 
   25900   -273.43044     31.36032   -242.07012    2267.4205    131148.03    10.472245   0.17827467 
   26000   -275.06229    29.714913   -245.34737     2148.454    122696.16    10.472245   0.21378674 
   26100   -272.60749    30.974803   -241.63269    2239.5468    132449.84    10.472245   0.20553247 
   26200   -276.18336    33.426718   -242.75664    2416.8256    125103.86    10.472245   0.16226462 
   26300   -281.11554     31.83235   -249.28319    2301.5493    105198.91    10.472245   0.14109746 
   26400   -274.48145    32.053057   -242.42839    2317.5069    126598.62    10.472245   0.19515172 
   26500   -273.15628    32.116266   -241.04001    2322.0771    133390.71    10.472245   0.26228956 
   26600   -276.54887    29.830169    -246.7187    2156.7872    121031.57    10.472245   0.21141794 
   26700   -274.23235    30.181222   -244.05113    2182.1691    129167.43    10.472245   0.18866509 
   26800   -276.13983    36.910281   -239.22954    2668.6949    126922.08    10.472245    0.2065719 
   26900   -277.23502    33.739562   -243.49546     2439.445     120817.4    10.472245    0.2011098 
   27000   -277.15913    30.917966   -246.24117    2235.4373    118925.16    10.472245   0.18633548 
   27100   -271.93205    34.218041   -237.71401      2474.04    138013.83    10.472245   0.23399152 
   27200   -270.80113    29.783605   -241.01752    2153.4206    139302.35    10.472245   0.23867898 
   27300   -279.75544    31.934256   -247.82118    2308.9173    111647.58    10.472245   0.14498101 
   27400   -274.71085    33.536439   -241.17441    2424.7587    127727.76    10.472245   0.16658489 
   27500   -271.54713    32.730582   -238.81655    2366.4935    137910.58    10.472245   0.21496819 
   27600   -274.83057    29.882005   -244.94857    2160.5351    125652.92    10.472245   0.22404671 
   27700   -272.37794    33.211587   -239.16636    2401.2712    135597.26    10.472245    0.2083882 
   27800   -270.90586    34.429593   -236.47627    2489.3357    141680.07    10.472245   0.29867411 
   27900   -277.76644    30.837117   -246.92933    2229.5917    118882.15    10.472245   0.20433536 
   28000   -271.73495    31.196038   -240.53892    2255.5425    136023.87    10.472245    0.2320173 
   28100   -272.60383    32.314653   -240.28918    2336.4209    133317.78    10.472245   0.23337358 
   28200   -273.64874    32.078605   -241.57013    2319.3541    131150.67    10.472245   0.19819621 
   28300   -273.82309    32.562311   -241.26078    2354.3271    129648.72    10.472245   0.22461808 
   28400   -272.93333    35.905331     -237.028    2596.0348    133561.09    10.472245   0.23665429 
   28500   -276.24742    33.200784   -243.04664    2400.4901    123213.52    10.472245   0.19875094 
   28600   -275.96754    31.907097   -244.06044    2306.9537    122732.85    10.472245   0.19214931 
   28700   -269.00102     33.81203   -235.18899    2444.6845     142894.4    10.472245   0.20069586 
   28800   -274.92238    32.739075    -242.1833    2367.1075    127223.69    10.472245   0.18486379 
   28900   -276.06744    31.710713   -244.35672    2292.7547     124443.4    10.472245     0.163776 
   29000   -270.10783     35.34884   -234.75899    2555.7993    140887.84    10.472245   0.29479926 
   29100   -271.07575    29.011457   -242.06429    2097.5925    137531.48    10.472245   0.21512869 
   29200   -273.51053    30.633419   -242.87712    2214.8639    131426.96    10.472245   0.18237653 
   29300   -270.52674    32.719435   -237.80731    2365.6875    139791.69    10.472245   0.23595563 
   29400   -271.71685    33.648793   -238.06805    2432.8821    135491.94    10.472245   0.24626705 
   29500    -272.6527    28.645869   -244.00683    2071.1597    132391.37    10.472245   0.22771799 
   29600   -275.30357    36.518997   -238.78457    2640.4042    129121.63    10.472245   0.16604845 
   29700   -268.94641    31.726486   -237.21992    2293.8951    144410.09    10.472245   0.27435551 
   29800   -275.57488    30.545896   -245.02899    2208.5358    124868.87    10.472245    0.2165251 
   29900   -272.15533     34.09242   -238.06291    2464.9573    137773.22    10.472245   0.22501306 
   30000   -271.70508    33.910676    -237.7944    2451.8169    139329.39    10.472245   0.23120886 
   30100   -275.52664    32.470605   -243.05603    2347.6966    124564.37    10.472245   0.21547196 
   30200    -275.0376    37.498079   -237.53952     2711.194    128196.54    10.472245    0.1991958 
   30300   -268.95371    35.801658   -233.15205    2588.5391    148036.67    10.472245   0.34667827 
   30400   -273.23958    32.753253   -240.48632    2368.1327    130214.31    10.472245    0.1942121 
   30500   -277.09758    32.567684   -244.52989    2354.7156    123218.27    10.472245   0.20939529 
   30600     -270.423    35.178296   -235.24471    2543.4686    140988.36    10.472245   0.27012199 
   30700   -275.35281    33.684005   -241.66881    2435.4281    127792.17    10.472245   0.21319541 
   30800   -276.01513    32.925817   -243.08931    2380.6094    124306.32    10.472245   0.17762412 
   30900    -271.2236     30.93178   -240.29182    2236.4361    134960.63    10.472245   0.21261828 
   31000   -271.40265    35.762785   -235.63987    2585.7285     136384.7    10.472245   0.18705192 
   31100    -273.7058    29.712369   -243.99343      2148.27    127217.31    10.472245   0.22216987 
   31200    -275.9774    37.681632   -238.29577    2724.4653    126543.74    10.472245   0.18518593 
   31300   -269.00408    37.374993   -231.62909    2702.2947    148754.04    10.472245   0.29265339 
   31400   -272.39491    30.402864   -241.99205    2198.1943    134739.25    10.472245    0.2185246 
   31500    -277.9719    35.685254   -242.28665    2580.1228    118069.56    10.472245   0.17302052 
   31600   -271.15288     36.01811   -235.13477     2604.189    138157.96    10.472245   0.24582924 
   31700   -276.11811    32.925442   -243.19267    2380.5823    125513.11    10.472245   0.19421047 
   31800   -276.24815    31.363875   -244.88427    2267.6776    122199.28    10.472245   0.17253493 
   31900   -272.20235    36.548251   -235.65409    2642.5194    140773.49    10.472245   0.26421408 
   32000   -272.49326    33.236378   -239.25688    2403.0637    134459.36    10.472245   0.25178463 
   32100   -271.15996    29.041285   -242.11868    2099.7491     132021.3    10.472245   0.27278437 
   32200   -276.90444    34.797248   -242.10719     2515.918    122795.96    10.472245   0.15709206 
   32300   -272.00419    28.508975   -243.49522     2061.262     133504.9    10.472245   0.21775645 
   32400   -271.09999    30.510255   -240.58974    2205.9589    139415.43    10.472245   0.22728369 
   32500   -272.40655    36.698282   -235.70827    2653.3669    137649.18    10.472245   0.20775368 
   32600   -276.97229    31.974767   -244.99752    2311.8464    118484.72    10.472245   0.19651554 
   32700   -273.68398    33.050165   -240.63381       2389.6    134104.69    10.472245   0.26756255 
   32800   -270.61294    33.876095   -236.73685    2449.3166    137847.17    10.472245   0.23139387 
   32900    -274.1187    32.000223   -242.11848    2313.6869    127869.24    10.472245   0.18933989 
   33000   -272.16925    24.693289   -247.47596    1785.3794     131322.3    10.472245   0.21523555 
   33100   -280.99632    35.053643   -245.94267    2534.4559     109982.6    10.472245   0.15662581 
   33200   -271.17914    32.051791   -239.12735    2317.4154    140202.33    10.472245   0.20564734 
   33300   -275.88018    29.336667   -246.54351    2121.1059    122500.33    10.472245   0.18895023 
   33400   -276.78139    31.219416   -245.56198    2257.2328    120296.92    10.472245   0.18544192 
   33500   -273.92654    32.644826   -241.28172    2360.2932    129030.13    10.472245   0.18871269 
   33600   -274.74481    32.007302   -242.73751    2314.1988    127878.68    10.472245   0.18705411 
   33700   -277.63902    30.457502   -247.18151    2202.1448    117801.19    10.472245   0.16583437 
   33800   -273.02163    34.782671   -238.23896     2514.864     136213.1    10.472245   0.20380572 
   33900    -274.5044     31.41088   -243.09352    2271.0761    126276.94    10.472245   0.18621595 
   34000    -276.1893    33.914038   -242.27526      2452.06    123700.47    10.472245   0.20299976 
   34100   -271.82601    36.923509    -234.9025    2669.6514    140381.85    10.472245   0.22368738 
   34200   -275.12239    31.793138   -243.32925    2298.7142    128137.48    10.472245   0.22043376 
   34300   -277.20146    35.199252    -242.0022    2544.9838    121779.53    10.472245   0.20121696 
   34400   -267.26707    34.764909   -232.50216    2513.5798    152077.46    10.472245   0.32688878 
   34500   -273.89501    31.734607   -242.16041    2294.4822    130212.18    10.472245   0.21378205 
   34600   -271.60959    28.487155   -243.12244    2059.6843    133589.84    10.472245   0.25020064 
   34700   -268.72924    33.157079   -235.57216    2397.3302    143790.54    10.472245   0.31310375 
   34800   -272.93475    34.335421   -238.59933    2482.5269    133388.28    10.472245   0.27399892 
   34900   -273.36909    31.573112   -241.79598    2282.8059     130387.3    10.472245   0.22034091 
   35000   -275.20196    32.878456    -242.3235    2377.1851    123253.05    10.472245   0.19139441 
   35100   -270.22653    29.931389   -240.29514    2164.1056     141299.2    10.472245   0.22567643 
   35200   -278.25966    33.965001   -244.29466    2455.7447    117076.23    10.472245    0.1697385 
   35300   -275.35542    30.173862   -245.18156     2181.637    124673.51    10.472245   0.13737052 
   35400    -273.6541     36.56585   -237.08825    2643.7918    134597.62    10.472245   0.22708655 
   35500   -272.27103    28.931978   -243.33905     2091.846     132317.8    10.472245   0.22031883 
   35600   -277.33481     34.61161    -242.7232    2502.4959    120928.82    10.472245   0.17192022 
   35700   -271.04303    30.515735    -240.5273    2206.3551    138961.42    10.472245   0.22677391 
   35800   -271.50122    36.173317   -235.32791    2615.4108    139199.56    10.472245   0.26845688 
   35900   -276.68772    32.319669   -244.36805    2336.7835    122294.98    10.472245   0.21885172 
   36000    -274.3804    33.589547   -240.79085    2428.5985    129117.73    10.472245   0.19718219 
   36100   -270.07948    35.738624   -234.34086    2583.9815    140450.26    10.472245   0.25256363 
   36200   -274.36659    32.890026   -241.47656    2378.0216    131115.54    10.472245   0.21466929 
   36300   -274.95683    31.710413   -243.24642     2292.733    127165.02    10.472245    0.2142817 
   36400   -268.23455     33.77716   -234.45739    2442.1634    146219.87    10.472245   0.26081406 
   36500   -269.81959    33.665821   -236.15377    2434.1133    143860.24    10.472245   0.25015278 
   36600   -272.69675    27.986762   -244.70999    2023.5048    131232.05    10.472245   0.23945647 
   36700    -271.9915    31.436319   -240.55518    2272.9154    135918.09    10.472245   0.20787607 
   36800   -274.09975    37.580334   -236.51941    2717.1413    135684.37    10.472245   0.20184245 
   36900   -275.80718    30.291891   -245.51529    2190.1707    122613.18    10.472245   0.17791577 
   37000   -273.37918     34.60202   -238.77716    2501.8026       133145    10.472245     0.247499 
   37100   -270.47029    33.420017   -237.05027    2416.3412    140503.93    10.472245   0.26458529 
   37200   -271.16376    29.067337   -242.09643    2101.6328    134113.91    10.472245   0.22542013 
   37300   -277.08185    37.003002   -240.07884    2675.3989     125189.2    10.472245   0.17340523 
   37400   -275.92008      31.6856   -244.23448    2290.9389    125493.62    10.472245    0.2131203 
   37500   -278.13389     32.69511   -245.43878    2363.9288    116875.91    10.472245   0.18343742 
   37600   -269.49048    30.516912   -238.97357    2206.4402    146416.94    10.472245   0.24430234 
   37700   -274.86982     31.35167   -243.51815    2266.7951    126234.73    10.472245   0.21564456 
   37800   -279.72414    33.703735   -246.02041    2436.8546    111839.23    10.472245   0.15978678 
   37900   -272.82593    35.343322   -237.48261    2555.4004    137510.09    10.472245   0.26424371 
   38000   -272.54751    30.684444   -241.86306    2218.5531    135199.14    10.472245   0.23632662 
   38100    -275.5274    31.317631   -244.20977     2264.334    122702.63    10.472245   0.20377841 
   38200    -270.4133    32.640929   -237.77238    2360.0114    142228.78    10.472245   0.29907787 
   38300   -271.61678    35.353719   -236.26307     2556.152    135897.05    10.472245   0.22929637 
   38400   -275.76234    34.565798   -241.19654    2499.1837    127661.96    10.472245   0.21546729 
   38500    -277.8863    31.882689   -246.00361    2305.1889    118181.54    10.472245   0.19706925 
   38600   -276.00893    34.499941   -241.50898    2494.4221    125275.17    10.472245   0.21013385 
   38700   -269.80561    29.895856   -239.90975    2161.5365    139580.24    10.472245   0.26520934 
   38800   -276.07456    27.149346   -248.92521    1962.9578    120722.02    10.472245   0.19604591 
   38900   -275.72664    31.013946   -244.71269    2242.3769    124847.23    10.472245   0.17610332 
   39000   -276.60451    36.782232   -239.82228    2659.4367    124977.41    10.472245   0.18979516 
   39100   -271.45399    30.310582   -241.14341    2191.5221    135575.31    10.472245    0.2761666 
   39200   -281.01007    32.709094   -248.30097    2364.9398    108835.61    10.472245   0.15364015 
   39300   -278.01223    38.753225   -239.25901    2801.9439    121919.65    10.472245   0.18058527 
   39400   -277.38939    35.516064   -241.87332      2567.89    119129.92    10.472245   0.18618313 
   39500   -276.47229    31.308203   -245.16408    2263.6523    121988.55    10.472245   0.23359874 
   39600    -273.7561     38.06242   -235.69368    2751.9972    132950.64    10.472245   0.20742143 
   39700   -276.65847    35.125508   -241.53296    2539.6519    124022.91    10.472245    0.1986397 
   39800   -272.64164    31.696323   -240.94531    2291.7143    132260.63    10.472245   0.27717013 
   39900   -275.08014     38.97918   -236.10096    2818.2809    129525.96    10.472245   0.21900777 
   40000   -276.97047     33.74404   -243.22643    2439.7687    119955.79    10.472245   0.16782703 
   40100   -275.29948    29.948564   -245.35092    2165.3474    124653.39    10.472245   0.20599613 
   40200   -274.14625    36.560481   -237.58576    2643.4037    132420.63    10.472245   0.21963733 
   40300   -276.20351     33.31119   -242.89232    2408.4727    122551.22    10.472245   0.19336562 
   40400   -275.80692    32.458077   -243.34884    2346.7908    126958.04    10.472245   0.20080052 
   40500   -270.34405    38.424014   -231.92003    2778.1412    145515.18    10.472245   0.21562047 
   40600    -273.9178     31.13064   -242.78716    2250.8141    128809.49    10.472245   0.19986298 
   40700    -272.4065    29.328542   -243.07796    2120.5184    132733.19    10.472245   0.21748903 
   40800   -270.79739    35.405221   -235.39217    2559.8758    139643.91    10.472245    0.2940171 
   40900    -274.9971    29.361104     -245.636    2122.8727     123786.7    10.472245   0.22495488 
   41000   -273.47309    31.299724   -242.17337    2263.0393    134494.46    10.472245   0.21175698 
   41100   -270.30118    33.705114   -236.59607    2436.9543     142778.1    10.472245   0.21536745 
   41200   -274.50977    32.619442   -241.89033    2358.4578    127676.38    10.472245   0.19310907 
   41300   -273.83126     31.37602   -242.45524    2268.5557    128939.85    10.472245   0.19143295 
   41400   -270.48049    27.905732   -242.57476    2017.6462    136811.46    10.472245   0.29732836 
   41500   -269.10068    33.374539   -235.72614     2413.053    146192.25    10.472245   0.28469333 
   41600   -277.89723    31.673697   -246.22353    2290.0784    116852.84    10.472245   0.16735186 
   41700   -277.16437    34.059239   -243.10513    2462.5583    120515.98    10.472245    0.1513968 
   41800   -275.41121    36.473247   -238.93796    2637.0964    128654.64    10.472245   0.19107531 
   41900   -278.85133    29.715612   -249.13572    2148.5045     111433.6    10.472245   0.14812022 
   42000   -274.39273    32.158164   -242.23456    2325.1064    127645.42    10.472245   0.23144067 
   42100   -271.49449    30.175573   -241.31891    2181.7607    136298.31    10.472245   0.27022396 
   42200   -276.10052    28.052973   -248.04754     2028.292    118816.98    10.472245   0.22345379 
   42300   -275.46901     32.11277   -243.35624    2321.8243    125638.78    10.472245   0.20489356 
   42400   -275.49299    33.915716   -241.57727    2452.1813    124433.34    10.472245   0.19228753 
   42500   -278.13514    30.600272   -247.53487    2212.4673    116313.74    10.472245   0.15658779 
   42600   -279.86265    33.250487   -246.61216    2404.0838    112067.61    10.472245   0.17753701 
   42700   -272.11322    32.403623    -239.7096    2342.8537    136637.33    10.472245   0.22478073 
   42800   -275.51663    30.921059   -244.59557     2235.661    123236.26    10.472245   0.21566876 
   42900   -277.26559    32.110514   -245.15508    2321.6612    118646.59    10.472245   0.16340053 
   43000   -271.14943    33.398572   -237.75086    2414.7906    137431.96    10.472245   0.23555541 
   43100   -272.35093    28.056074   -244.29485    2028.5162    132110.17    10.472245   0.23748757 
   43200   -280.44733    29.269529    -251.1778    2116.2517    108144.26    10.472245   0.16163123 
   43300   -272.96309    32.915953   -240.04714    2379.8962    132558.13    10.472245   0.25169172 
   43400   -268.78587     31.32473   -237.46114    2264.8473    144821.45    10.472245   0.31359929 
   43500   -276.47653    31.065387   -245.41114    2246.0962    121016.69    10.472245   0.18132236 
   43600   -270.94836     26.90425   -244.04411    1945.2368    136597.94    10.472245   0.21715833 
   43700   -274.60836    36.688942   -237.91942    2652.6917    133121.24    10.472245   0.23797787 
   43800   -268.78813    28.648328   -240.13981    2071.3375    145805.86    10.472245   0.29630251 
   43900   -278.11564     35.78511   -242.33053    2587.3426    117742.62    10.472245    0.1434368 
   44000   -279.95815    32.868873   -247.08928    2376.4922    111271.29    10.472245   0.15606748 
   44100     -273.203    33.640685   -239.56231    2432.2959    133422.99    10.472245   0.20990808 
   44200   -270.47352     28.29319   -242.18033    2045.6602    136800.34    10.472245   0.27896555 
   44300   -271.52879    31.227274   -240.30152    2257.8009     137020.9    10.472245    0.2004675 
   44400   -273.74089    30.899718   -242.84117    2234.1179    131179.25    10.472245   0.25327331 
   44500   -272.11948    28.150238   -243.96924    2035.3245    132490.57    10.472245   0.20644928 
   44600   -270.50651    34.327317   -236.17919    2481.9409    140532.15    10.472245   0.25346883 
   44700   -275.91258      35.1715   -240.74108    2542.9772    126003.41    10.472245   0.19261962 
   44800   -278.93416    34.367862    -244.5663    2484.8724    116834.61    10.472245   0.18012298 
   44900   -267.57615    28.994949    -238.5812     2096.399    145555.04    10.472245   0.26430163 
   45000   -268.93606     30.84762   -238.08844    2230.3512    146075.64    10.472245    0.3095305 
   45100   -273.48973    28.043408   -245.44632    2027.6005    130495.09    10.472245   0.19996835 
   45200   -273.82005    35.839795   -237.98025    2591.2965    135875.75    10.472245   0.21385982 
   45300   -274.09609    36.536898   -237.55919    2641.6985     131577.9    10.472245   0.19149321 
   45400   -277.01621    33.333429   -243.68278    2410.0807    119048.18    10.472245    0.1824244 
   45500   -275.84937    34.060975   -241.78839    2462.6839    126326.07    10.472245   0.22376784 
   45600    -268.7955    37.521184   -231.27431    2712.8646    152238.78    10.472245   0.30293666 
   45700   -272.57456    33.288883   -239.28567    2406.8598    134661.45    10.472245    0.2302249 
   45800   -277.20639    33.328689    -243.8777    2409.7379    119826.51    10.472245    0.1678698 
   45900   -275.51105    34.140116   -241.37094    2468.4059    125587.53    10.472245   0.17043183 
   46000   -274.62848    36.760644   -237.86784    2657.8759    131964.09    10.472245   0.20559572 
   46100    -279.3654    33.323478   -246.04192    2409.3611    113280.39    10.472245   0.19405022 
   46200   -271.27631    33.917453   -237.35885    2452.3068    138302.79    10.472245   0.24764317 
   46300   -272.29146    31.430631   -240.86083    2272.5041    134949.95    10.472245   0.24149085 
   46400   -272.36812    28.637351   -243.73077    2070.5438    131951.26    10.472245   0.26744731 
   46500   -267.07491    35.917422   -231.15749     2596.909    150438.68    10.472245   0.27302963 
   46600   -272.63543    34.904712   -237.73072    2523.6879    136911.81    10.472245   0.24119158 
   46700   -276.14789    32.860305   -243.28758    2375.8727    123897.88    10.472245   0.22489083 
   46800   -278.47323    34.718706   -243.75452    2510.2392    118222.68    10.472245   0.18543551 
   46900   -272.69326    36.251133   -236.44213    2621.0371    135342.25    10.472245   0.21535599 
   47000   -273.25685    28.640277   -244.61658    2070.7554    129644.89    10.472245   0.25607065 
   47100   -274.56995    33.178239   -241.39172    2398.8601    130234.07    10.472245   0.17927623 
   47200      -271.68    31.851649   -239.82835    2302.9447    136753.24    10.472245   0.21030856 
   47300   -276.11832    31.222029   -244.89629    2257.4217    124108.72    10.472245    0.1787982 
   47400   -277.62442    34.318156   -243.30627    2481.2786    121703.96    10.472245   0.15161685 
   47500   -272.87529    35.288421   -237.58687    2551.4309    133982.59    10.472245   0.21048192 
   47600    -276.3764    34.452796    -241.9236    2491.0133    119959.61    10.472245   0.22240053 
   47700     -272.169    31.344576   -240.82443    2266.2822    132097.98    10.472245   0.24134168 
   47800   -269.31269    34.724565   -234.58813    2510.6628    145639.85    10.472245   0.20858295 
   47900   -274.40128    31.151956   -243.24932    2252.3553    126934.69    10.472245   0.18747752 
   48000   -274.21341     30.75611    -243.4573    2223.7348    130000.32    10.472245   0.18159155 
   48100   -273.43343    39.272735   -234.16069    2839.5056     134060.4    10.472245   0.19478119 
   48200   -273.72521    32.934134   -240.79107    2381.2107    131685.08    10.472245   0.23684491 
   48300   -274.99758    32.698923   -242.29866    2364.2045    128860.37    10.472245   0.22264309 
   48400   -274.51485    33.941792   -240.57306    2454.0666    129917.25    10.472245   0.19458146 
   48500   -275.82707    33.042357   -242.78472    2389.0355    125719.71    10.472245   0.20456715 
   48600   -276.46286    29.451026   -247.01183    2129.3743    120088.61    10.472245   0.18384554 
   48700   -272.04564    34.796823   -237.24881    2515.8873    140267.41    10.472245    0.2268965 
   48800   -275.46586    31.448018   -244.01785    2273.7613     124554.6    10.472245    0.1679423 
   48900    -270.6077    27.643769   -242.96393    1998.7056    134671.73    10.472245   0.26856489 
   49000   -267.27795    34.180621   -233.09733    2471.3345     150797.6    10.472245   0.43382005 
   49100    -269.2019    36.848707    -232.3532     2664.243    149260.47    10.472245   0.54567567 
   49200   -272.01424    32.157058   -239.85718    2325.0264    137687.01    10.472245   0.71995849 
   49300    -274.4938    33.014013   -241.47979    2386.9861    130271.12    10.472245   0.68281149 
   49400   -277.22876    30.229257    -246.9995    2185.6421    119724.42    10.472245   0.70420043 
   49500   -276.87986    33.902663    -242.9772    2451.2375     121858.7    10.472245   0.70124873 
   49600    -273.9496    35.049308   -238.90029    2534.1425    130042.22    10.472245   0.67712366 
   49700   -276.49071    31.579567   -244.91115    2283.2726    120130.36    10.472245   0.66078604 
   49800   -271.56359    35.508695    -236.0549    2567.3572     139141.1    10.472245   0.69579458 
   49900    -272.1227    33.838028   -238.28467    2446.5643    135617.26    10.472245    0.8229543 
   50000   -278.10246    32.509947   -245.59251     2350.541    118854.55    10.472245   0.77368827 
   50100   -274.39342     36.38284   -238.01058    2630.5598    128254.59    10.472245    0.6820027 
   50200   -271.25281     32.87028   -238.38253     2376.594    140387.39    10.472245   0.88653506 
   50300   -277.35012    33.088331   -244.26179    2392.3595    118603.85    10.472245   0.72303174 
   50400   -278.18129    26.209447   -251.97185     1895.001    114245.53    10.472245   0.69099213 
   50500   -275.96241    32.834582   -243.12783    2374.0129    125917.59    10.472245   0.73088321 
   50600   -274.34769    33.747284    -240.6004    2440.0033    128548.35    10.472245   0.70440965 
   50700   -276.59119    33.835369   -242.75582     2446.372    123027.95    10.472245    0.8157244 
   50800   -275.67458    30.038948   -245.63563    2171.8824    122994.07    10.472245   0.71665614 
   50900   -271.18746    33.698421   -237.48904    2436.4704     138897.3    10.472245    0.7320312 
   51000   -275.73544    32.175936    -243.5595    2326.3913    123389.12    10.472245   0.72874823 
   51100   -275.11757    31.261519   -243.85605     2260.277    125093.74    10.472245   0.77995425 
   51200   -273.88469    34.835852   -239.04884    2518.7092    131280.77    10.472245    0.6650569 
   51300   -275.98621    31.695611    -244.2906    2291.6628    122180.27    10.472245   0.63152369 
   51400   -277.72845    34.179561   -243.54889    2471.2578    120402.87    10.472245   0.81009794 
   51500   -273.94042    35.328265   -238.61215    2554.3117     132818.4    10.472245   0.70080286 
   51600   -275.01998     32.45605   -242.56393    2346.6442    124971.29    10.472245   0.75864426 
   51700   -277.53176    29.465554   -248.06621    2130.4247    118745.96    10.472245   0.71355222 
   51800   -275.27169     35.18187   -240.08982     2543.727    127589.55    10.472245   0.63548222 
   51900   -271.36636    30.879227   -240.48713    2232.6364    135267.68    10.472245   0.81715934 
   52000   -281.08051    32.521378   -248.55913    2351.3676    108692.36    10.472245   0.68565298 
   52100   -273.16764    34.914534   -238.25311     2524.398    132631.12    10.472245    0.7240067 
   52200   -273.42995    31.159856   -242.27009    2252.9265    134129.41    10.472245   0.72942114 
   52300   -272.76766    27.568893   -245.19876    1993.2919    131153.39    10.472245   0.71445541 
   52400   -273.05814    38.203802   -234.85434    2762.2194    137062.33    10.472245     0.766212 
   52500   -274.85289     31.55478   -243.29811    2281.4804    127876.04    10.472245   0.64824081 
   52600   -273.74601    30.553699   -243.19232       2209.1    128201.02    10.472245   0.71268888 
   52700   -269.32599    28.142516   -241.18348    2034.7662    143075.15    10.472245   0.77673243 
   52800   -273.99407    38.145115   -235.84895    2757.9762    133270.18    10.472245   0.73500806 
   52900   -276.87438    32.310021   -244.56436     2336.086    119725.91    10.472245   0.68287555 
   53000   -274.97469    30.765651   -244.20904    2224.4246    126826.86    10.472245   0.74982592 
   53100   -271.90264    35.498399   -236.40424    2566.6128    138165.58    10.472245   0.79458149 
   53200   -275.60114     32.49202   -243.10912    2349.2449    126008.97    10.472245   0.79044802 
   53300   -272.62157    29.668871    -242.9527     2145.125    129415.71    10.472245   0.64074851 
   53400   -273.78475    33.823517   -239.96123    2445.5151     131392.4    10.472245   0.71733038 
   53500   -266.95367    34.341165   -232.61251    2482.9422    152001.66    10.472245   0.76436989 
   53600   -276.81579    34.469237   -242.34656    2492.2021    125233.01    10.472245   0.65280368 
   53700   -276.84714    32.507137   -244.34001    2350.3379    123552.82    10.472245    0.6468606 
   53800   -273.17902    36.608872   -236.57015    2646.9024    133826.59    10.472245    0.7817868 
   53900      -278.64    36.985296   -241.65471    2674.1187    118517.38    10.472245   0.70412045 
   54000   -278.75134    34.979092   -243.77224    2529.0657    116369.77    10.472245   0.66939748 
   54100   -272.33544    31.344049   -240.99139    2266.2441    132074.85    10.472245   0.86204878 
   54200   -271.44726    37.491122   -233.95614    2710.6911    139364.71    10.472245   0.72256981 
   54300   -274.69633    33.608894   -241.08743    2429.9974     129863.6    10.472245    0.7839021 
   54400   -275.63859     31.95012   -243.68847    2310.0644    125453.26    10.472245    0.6734947 
   54500   -273.25202    35.055029   -238.19699    2534.5562    135871.33    10.472245   0.65969995 
   54600   -270.08075    30.996459   -239.08429    2241.1126    138656.06    10.472245   0.77362049 
   54700   -274.81288    30.556157   -244.25672    2209.2778    125747.22    10.472245   0.66112216 
   54800   -272.21776    32.717523   -239.50023    2365.5493    133962.31    10.472245   0.66488079 
   54900    -275.6249    34.012308   -241.61259    2459.1651     125344.2    10.472245   0.76933275 
   55000   -278.31564    31.713207   -246.60243     2292.935    117493.07    10.472245   0.71387101 
   55100   -271.08583    33.576369   -237.50946    2427.6458     139605.1    10.472245   0.71250116 
   55200   -275.19823     34.66348   -240.53475    2506.2463    126697.53    10.472245   0.75945435 
   55300   -272.61313    30.565566   -242.04757     2209.958    130995.55    10.472245   0.65399922 
   55400   -273.81533    32.620006   -241.19532    2358.4986     132870.3    10.472245   0.67134732 
   55500   -278.45078    28.525631   -249.92515    2062.4662     115642.6    10.472245   0.73829227 
   55600   -274.88869    30.648291    -244.2404    2215.9392    127546.11    10.472245   0.74413944 
   55700   -277.21411    35.169015   -242.04509    2542.7975    120760.01    10.472245   0.65193449 
   55800   -271.66765    35.369967   -236.29768    2557.3268    139575.38    10.472245   0.73286749 
   55900   -274.11582    32.669023   -241.44679    2362.0426    131463.51    10.472245   0.72306845 
   56000   -275.87351    32.157832   -243.71568    2325.0824     123502.1    10.472245   0.70076158 
   56100   -276.06627    39.826507   -236.23976    2879.5446    126812.69    10.472245   0.77014334 
   56200   -272.94565    31.955866   -240.98978    2310.4798    133406.93    10.472245   0.77686159 
   56300   -271.81692     28.60081   -243.21611    2067.9018    135437.65    10.472245   0.70671415 
   56400   -273.74987    37.736327   -236.01354    2728.4199    138611.56    10.472245   0.75816034 
   56500   -277.08971    32.393476   -244.69624      2342.12    122239.96    10.472245   0.66270376 
   56600   -270.84531    28.939644   -241.90567    2092.4002    135894.63    10.472245   0.77921807 
   56700   -272.25165    34.486061   -237.76559    2493.4185    135343.34    10.472245   0.73931124 
   56800    -276.7078    29.121867   -247.58593    2105.5754    118957.11    10.472245   0.68813487 
   56900   -270.56426    29.242085   -241.32217    2114.2674    136640.91    10.472245     0.711189 
   57000   -273.89831    33.268081   -240.63023    2405.3559    130237.15    10.472245   0.65926836 
   57100   -271.40497    29.633928   -241.77105    2142.5986    134209.67    10.472245    0.7686305 
   57200   -270.03113    28.255916   -241.77521    2042.9652    136948.68    10.472245   0.81706171 
   57300   -275.12876    31.385956   -243.74281     2269.274    124059.85    10.472245   0.68656828 
   57400   -279.57704    32.103774   -247.47327    2321.1738    112341.33    10.472245    0.7572978 
   57500   -272.53148    33.514448   -239.01703    2423.1687     133819.9    10.472245    0.7670972 
   57600   -271.93002    29.375603   -242.55442     2123.921    135799.53    10.472245   0.75076685 
   57700   -280.14981    29.418735   -250.73108    2127.0396    109198.41    10.472245   0.74299446 
   57800   -274.51249    31.818227   -242.69426    2300.5282    128228.34    10.472245   0.70164074 
   57900    -266.8604    28.525685   -238.33471    2062.4701    150332.34    10.472245   0.80689152 
   58000   -276.48807    34.832352   -241.65572    2518.4561    123693.92    10.472245   0.70260611 
   58100   -275.81984    30.244037    -245.5758    2186.7108    122922.04    10.472245   0.67167849 
   58200   -274.62036    32.727759    -241.8926    2366.2894    127998.36    10.472245    0.7990498 
   58300    -274.0377    32.688964   -241.34874    2363.4844    130800.87    10.472245   0.67145852 
   58400    -272.3879    34.288558   -238.09935    2479.1386    136384.52    10.472245   0.75853928 
   58500   -274.20942    37.363384   -236.84604    2701.4553    132899.11    10.472245   0.74510866 
   58600   -272.45597    27.310892   -245.14507    1974.6379    130333.31    10.472245   0.73329852 
   58700   -270.68298    31.140089   -239.54289    2251.4973    139781.91    10.472245   0.69186341 
   58800   -269.83373    33.191208   -236.64252    2399.7978    143064.21    10.472245   0.72276594 
   58900   -273.81346    31.666486   -242.14697     2289.557    126892.27    10.472245   0.83567067 
   59000   -278.76095     34.08596     -244.675    2464.4903    114636.87    10.472245   0.59095669 
   59100   -272.54792    36.993235   -235.55469    2674.6927    140500.97    10.472245   0.81034233 
   59200   -274.65031    31.991303   -242.65901     2313.042    126308.56    10.472245   0.63384236 
   59300   -275.58208    32.060209   -243.52187     2318.024    126300.28    10.472245   0.67160123 
   59400   -265.95544    31.864912   -234.09053    2303.9037    152945.49    10.472245   0.90961004 
   59500   -273.64833    35.564615   -238.08372    2571.4003    131727.25    10.472245   0.69405274 
   59600    -269.5714    28.426068   -241.14534    2055.2676    144194.88    10.472245    0.6858493 
   59700   -276.76357    28.427807   -248.33576    2055.3934    116992.44    10.472245   0.68543653 
   59800   -271.30453    31.258411   -240.04612    2260.0522    135648.02    10.472245   0.77375575 
   59900    -270.4997    30.806659   -239.69304    2227.3896    136418.74    10.472245   0.74208451 
   60000   -274.97659    28.686695   -246.28989    2074.1115    124992.21    10.472245   0.67850797 
   60100   -272.05371      35.8717   -236.18201    2593.6032    137431.07    10.472245   0.74348976 
   60200   -274.55822    36.935482   -237.62274     2670.517       131121    10.472245   0.78165093 
   60300   -277.01505    30.840231   -246.17482     2229.817    118777.69    10.472245   0.68326406 
   60400   -275.46114    33.268279   -242.19286    2405.3702    127072.23    10.472245   0.78700768 
   60500   -276.35405    35.768544   -240.58551    2586.1449    123188.29    10.472245   0.78804245 
   60600   -275.78104    30.323689   -245.45735    2192.4698    122759.99    10.472245   0.61724373 
   60700   -276.97304    30.656189   -246.31686    2216.5103     119353.5    10.472245   0.75998248 
   60800   -273.95214     33.96596   -239.98618     2455.814    129834.65    10.472245   0.82180877 
   60900   -274.00301    32.787599   -241.21541    2370.6159    132637.94    10.472245   0.78370689 
   61000   -275.35223    28.720924   -246.63131    2076.5863    123075.47    10.472245   0.68033222 
   61100   -271.34575    34.182555    -237.1632    2471.4743    138365.77    10.472245   0.66768132 
   61200   -273.59095    32.168885   -241.42207    2325.8815    131113.36    10.472245   0.68650541 
   61300   -271.48421    25.450897   -246.03332    1840.1562    130836.21    10.472245   0.70611087 
   61400   -270.27183     27.61575   -242.65608    1996.6798     136617.7    10.472245   0.68013613 
   61500   -271.25185    31.995875   -239.25598    2313.3725    139810.29    10.472245   0.73694164 
   61600   -271.01878    28.948318   -242.07047    2093.0274    137032.74    10.472245   0.69788403 
   61700   -280.65125    33.987068   -246.66418    2457.3402    109135.91    10.472245   0.62821581 
   61800   -274.27007    33.977012   -240.29305    2456.6131    128794.31    10.472245   0.69232633 
   61900   -269.79142    31.851404   -237.94002     2302.927    141137.93    10.472245    0.8899599 
   62000   -278.64541    31.636919   -247.00849    2287.4193    116114.78    10.472245   0.65130266 
   62100   -274.08763    30.282644   -243.80499    2189.5021    129692.38    10.472245   0.81805752 
   62200   -275.84167    34.594793   -241.24688    2501.2801    126022.95    10.472245    0.7087134 
   62300   -273.53314    30.616446   -242.91669    2213.6368    130990.91    10.472245   0.73564799 
   62400   -275.24983    33.691459   -241.55837     2435.967     126959.9    10.472245   0.74584548 
   62500   -270.03908    33.860021   -236.17906    2448.1544    144375.74    10.472245   0.76392212 
   62600   -273.24741    31.719392   -241.52802    2293.3822    129784.67    10.472245   0.86137199 
   62700   -274.63288    29.973621   -244.65926    2167.1591    126755.39    10.472245   0.64977039 
   62800   -272.64372    35.539004   -237.10471    2569.5486    136267.38    10.472245   0.78000843 
   62900   -269.59095    34.194847   -235.39611    2472.3631    139844.81    10.472245   0.76630578 
   63000   -271.07259      28.8037   -242.26889    2082.5712    135843.45    10.472245   0.70714892 
   63100   -273.09616    31.244562   -241.85159    2259.0509    130167.85    10.472245   0.67883726 
   63200   -271.15205    31.310554    -239.8415    2263.8223    136972.51    10.472245    0.7793385 
   63300   -272.74237    28.829577   -243.91279    2084.4422    131909.36    10.472245   0.72971935 
   63400   -273.90472    31.057198   -242.84752    2245.5041    128302.09    10.472245   0.78224431 
   63500    -271.7349    33.402379   -238.33252    2415.0659    136553.42    10.472245   0.77498867 
   63600    -274.5587    28.161235   -246.39746    2036.1196    127592.75    10.472245   0.75099805 
   63700   -274.76067    30.842348   -243.91832      2229.97    126498.42    10.472245   0.68865454 
   63800   -276.03436    33.870156   -242.16421    2448.8872    123422.47    10.472245   0.76803133 
   63900   -275.95717    37.692674   -238.26449    2725.2637    128913.98    10.472245   0.76788431 
   64000   -276.97617    33.846778   -243.12939     2447.197    124443.78    10.472245   0.71256814 
   64100   -277.54398    32.772813   -244.77117    2369.5469     117274.8    10.472245   0.69806703 
   64200   -272.01397    36.102342   -235.91163    2610.2792    139121.86    10.472245   0.77953937 
   64300   -270.50533    30.749039   -239.75629    2223.2235    141180.66    10.472245   0.78295818 
   64400    -278.0088    33.981373   -244.02742    2456.9284     117869.7    10.472245   0.77247533 
   64500   -281.70519    35.230431   -246.47476    2547.2381    108733.86    10.472245    0.7137979 
   64600   -270.72385    32.987668   -237.73618    2385.0814    141336.62    10.472245   0.84574839 
   64700   -273.71098    32.319175   -241.39181    2336.7478    129446.74    10.472245   0.67165848 
   64800   -280.66218    30.187751   -250.47443    2182.6412    109159.33    10.472245   0.67294006 
   64900    -277.5124    33.566858   -243.94554     2426.958    121209.52    10.472245   0.71663206 
   65000   -274.96868    34.711426   -240.25725    2509.7129    129827.69    10.472245   0.72427099 
   65100   -277.30912    34.826728   -242.48239    2518.0495    122507.39    10.472245   0.61871705 
   65200   -278.69195    31.106375   -247.58558    2249.0597    113623.99    10.472245   0.67775667 
   65300   -271.78198    33.741702   -238.04028    2439.5997    137803.74    10.472245    0.6847675 
   65400   -269.50787    27.553906   -241.95397    1992.2084    139769.91    10.472245   0.74562778 
   65500   -281.60628    30.238134   -251.36814     2186.284    104575.84    10.472245   0.67760129 
   65600   -275.03632     32.08372    -242.9526    2319.7239    127822.06    10.472245   0.64239779 
   65700   -272.69535    31.383018   -241.31233    2269.0616    132313.96    10.472245   0.73010367 
   65800   -272.05016    31.438168   -240.61199     2273.049    137415.09    10.472245    0.6888036 
   65900   -277.39091     29.85527   -247.53564     2158.602     119740.1    10.472245   0.74489066 
   66000   -273.41433    34.613375   -238.80096    2502.6236    131360.92    10.472245   0.73054592 
   66100   -274.61075    34.598228   -240.01252    2501.5284    127257.59    10.472245   0.78101111 
   66200   -278.54847    33.231226   -245.31724    2402.6912    115990.85    10.472245   0.72768531 
   66300   -276.37447    33.825519   -242.54895    2445.6598    123631.04    10.472245   0.64229912 
   66400   -271.69443    34.278436     -237.416    2478.4067    136410.56    10.472245   0.70565133 
   66500   -271.87167    33.753118   -238.11855    2440.4251    136775.87    10.472245   0.78543554 
   66600   -274.26645    28.807208   -245.45924    2082.8248    125318.64    10.472245   0.72881828 
   66700   -273.47296    35.393026   -238.07994     2558.994    133760.27    10.472245   0.77257913 
   66800   -273.85403    35.282264   -238.57177    2550.9857    129838.79    10.472245   0.69062647 
   66900   -272.46072     30.31954   -242.14118    2192.1698    133553.16    10.472245   0.77037685 
   67000   -274.19322    36.180049   -238.01317    2615.8976    133471.55    10.472245   0.69493573 
   67100   -267.87636    35.496556    -232.3798    2566.4795    153096.51    10.472245    1.0218226 
   67200   -273.86284    33.436338    -240.4265    2417.5212    129647.16    10.472245    1.1386317 
   67300   -270.71845    31.786668   -238.93178    2298.2464    137590.06    10.472245   0.85101767 
   67400    -273.1446    32.820636   -240.32397    2373.0045    134455.65    10.472245   0.66237146 
   67500   -279.07579    31.341254   -247.73453     2266.042    113639.15    10.472245   0.69748961 
   67600   -274.37613    31.256809   -243.11932    2259.9364    128825.15    10.472245   0.63158767 
   67700   -274.04624      37.3581   -236.68814    2701.0732    132136.04    10.472245   0.66774198 
   67800   -277.74492    33.376747   -244.36818    2413.2126    118972.98    10.472245   0.66802243 
   67900   -276.24817    34.789762    -241.4584    2515.3768    123368.18    10.472245    0.8099987 
   68000   -271.26794    34.113596   -237.15435    2466.4885    140301.29    10.472245   0.71916567 
   68100   -276.55588     33.38144   -243.17444    2413.5519    122432.51    10.472245    0.7349228 
   68200   -267.15424    30.258169   -236.89607    2187.7325    147967.86    10.472245   0.93372761 
   68300   -272.46111    35.788613   -236.67249    2587.5959     135829.4    10.472245   0.72999194 
   68400   -276.36999    31.145198   -245.22479    2251.8667    122671.05    10.472245   0.74335296 
   68500   -271.06033    30.649745   -240.41058    2216.0444    137480.29    10.472245   0.74082333 
   68600   -266.70091    28.606685   -238.09422    2068.3266    147659.65    10.472245    0.6063601 
   68700   -274.97977    31.015398   -243.96437    2242.4819    124518.33    10.472245   0.78396456 
   68800   -275.51537    32.517944   -242.99742    2351.1193    127871.86    10.472245   0.72874938 
   68900   -266.34422    30.415902   -235.92832     2199.137    150015.47    10.472245   0.76877804 
   69000   -275.67439    32.685278   -242.98911    2363.2179    124920.48    10.472245   0.66941614 
   69100   -273.18081    28.312848   -244.86796    2047.0815    130915.85    10.472245   0.76919856 
   69200   -273.95006    39.767832   -234.18223    2875.3022    135099.77    10.472245   0.67849668 
   69300   -270.00392    34.391663   -235.61226    2486.5933    144599.44    10.472245   0.77438727 
   69400   -272.54749    30.948217   -241.59927    2237.6246    134824.42    10.472245   0.66316074 
   69500   -274.79815    29.606164   -245.19198    2140.5911    127487.45    10.472245     0.768944 
   69600   -271.64822    35.586047   -236.06217    2572.9499    138371.18    10.472245   0.83214168 
   69700   -273.63052    32.865387   -240.76513    2376.2402    132377.54    10.472245   0.73522797 
   69800   -273.34947    29.772832   -243.57664    2152.6416    130467.73    10.472245   0.71792549 
   69900   -267.99466     29.54571   -238.44896    2136.2202    149390.41    10.472245   0.94450843 
   70000   -268.34982     32.67777   -235.67205    2362.6751    147931.04    10.472245   0.84688786 
   70100   -274.88794     29.21293   -245.67501    2112.1594    126166.47    10.472245   0.71209758 
   70200   -275.58414    36.120689   -239.46345    2611.6057     125187.8    10.472245   0.63253512 
   70300   -270.03332     33.27957   -236.75375    2406.1865    142192.07    10.472245   0.72918621 
   70400   -277.07574    31.079228   -245.99651    2247.0969    118554.43    10.472245   0.67948947 
   70500   -270.91496    31.937049   -238.97791    2309.1193    140891.16    10.472245   0.85072672 
   70600   -273.67013    33.639497   -240.03063    2432.2101    133543.82    10.472245   0.79260215 
   70700   -274.56618    27.595846   -246.97033    1995.2407    125133.81    10.472245   0.69912171 
   70800   -274.99289    35.432387   -239.56051    2561.8399    127278.53    10.472245   0.70202862 
   70900   -276.81235    34.207202   -242.60515    2473.2564    119794.37    10.472245   0.63415489 
   71000   -276.11553    27.595245   -248.52028    1995.1972    120215.19    10.472245    0.7056307 
   71100   -276.45837    33.741464    -242.7169    2439.5825    124216.86    10.472245   0.77961107 
   71200    -270.3922    30.475025   -239.91717    2203.4117    139411.46    10.472245   0.69692328 
   71300   -277.89832    31.162348   -246.73597    2253.1067    116514.37    10.472245   0.67711826 
   71400     -273.022    30.779932   -242.24207    2225.4571    132919.54    10.472245   0.71418271 
   71500   -273.65666    33.766476   -239.89019    2441.3909    131389.35    10.472245   0.83334045 
   71600   -275.32369    30.814306   -244.50938    2227.9425    128193.09    10.472245   0.68242626 
   71700   -280.17329    29.679753   -250.49354    2145.9118    109061.66    10.472245   0.69656852 
   71800   -272.49571    30.581268   -241.91444    2211.0933    134968.23    10.472245   0.81824922 
   71900   -272.16794    33.921441   -238.24649    2452.5952    135084.85    10.472245    0.6751909 
   72000   -275.44254    28.837729   -246.60481    2085.0316    125612.76    10.472245   0.64436209 
   72100   -276.22533    34.118139   -242.10719    2466.8169    122865.47    10.472245   0.70389056 
   72200   -270.28428    30.294155   -239.99012    2190.3344     139437.7    10.472245   0.80989269 
   72300   -277.41409    33.993028   -243.42106    2457.7711    120097.21    10.472245   0.66423283 
   72400   -280.15727    29.655082   -250.50218     2144.128    107170.74    10.472245   0.71280006 
   72500   -274.45002    30.594203   -243.85582    2212.0285    125160.85    10.472245   0.72409443 
   72600   -271.47337    30.809618   -240.66375    2227.6035    134382.92    10.472245   0.71955596 
   72700     -274.035    35.232553   -238.80245    2547.3915    129768.62    10.472245   0.73190161 
   72800   -276.72745     37.00257   -239.72488    2675.3677    122863.99    10.472245   0.67635438 
   72900   -280.06705    34.740163   -245.32689    2511.7906    113941.78    10.472245   0.69989952 
   73000   -272.76348    34.112498   -238.65098    2466.4091    135349.56    10.472245   0.87916442 
   73100   -267.45585    37.035604   -230.42024    2677.7561    152074.25    10.472245   0.71337121 
   73200   -273.14425    33.177489   -239.96676    2398.8059    132471.71    10.472245   0.70525158 
   73300   -278.31953    33.055803   -245.26372    2390.0077    113329.88    10.472245   0.82869745 
   73400   -270.34965    32.463985   -237.88566    2347.2179    138875.67    10.472245   0.68821903 
   73500   -273.37888    32.430193   -240.94869    2344.7747    133318.34    10.472245   0.74943863 
   73600   -274.73646    30.238942   -244.49752    2186.3424    126322.27    10.472245   0.71708526 
   73700   -273.49546    34.237327   -239.25813    2475.4345    133144.45    10.472245   0.66862223 
   73800   -277.55703    31.832281   -245.72474    2301.5443    118524.38    10.472245   0.74979876 
   73900   -275.69357    30.899142   -244.79443    2234.0763    122648.07    10.472245   0.73237451 
   74000   -269.69468    30.913877    -238.7808    2235.1417    140598.27    10.472245   0.82976082 
   74100   -275.88076    30.314872   -245.56589    2191.8323    124228.76    10.472245   0.67841437 
   74200   -276.90757    28.720992   -248.18658    2076.5912    119763.16    10.472245   0.69120602 
   74300   -270.86733    31.937902   -238.92943    2309.1809    137847.37    10.472245   0.78084215 
   74400   -274.69082    31.698564   -242.99226    2291.8763    127780.96    10.472245    0.7941376 
   74500   -275.16341    28.950737   -246.21267    2093.2023    124005.57    10.472245   0.65418473 
   74600   -268.84193    33.434646   -235.40728    2417.3989    145971.21    10.472245   0.79684026 
   74700   -272.87531    29.529146   -243.34617    2135.0226    132649.37    10.472245   0.66802584 
   74800   -275.09718    33.190621   -241.90656    2399.7553    128707.27    10.472245   0.73557297 
   74900   -268.24325    35.367652    -232.8756    2557.1595    145580.43    10.472245   0.81002459 
   75000   -277.40641    36.468671   -240.93774    2636.7656    122366.79    10.472245   0.57909501 
   75100   -272.73426    30.435481   -242.29878    2200.5526     131136.3    10.472245   0.83586646 
   75200   -268.56765    32.283064   -236.28459     2334.137    144556.83    10.472245   0.77925925 
   75300   -272.56676    32.729567   -239.83719    2366.4201    134339.61    10.472245   0.77837677 
   75400   -276.31011     30.51903   -245.79108    2206.5934    122758.98    10.472245   0.69694694 
   75500   -270.44667    33.736122   -236.71055    2439.1962    142337.69    10.472245   0.64719299 
   75600   -273.82891    32.861462   -240.96745    2375.9564    128657.26    10.472245   0.69150148 
   75700   -276.81486     34.38458   -242.43028    2486.0812    122973.31    10.472245   0.67916481 
   75800    -269.9378    34.324495    -235.6133    2481.7369    143011.26    10.472245    0.7590837 
   75900   -272.71911    31.387687   -241.33142    2269.3992     133607.7    10.472245   0.76873686 
   76000   -276.74595    32.585755   -244.16019    2356.0221    119762.08    10.472245   0.63686103 
   76100   -267.51908    34.601818   -232.91727     2501.788    152923.09    10.472245   0.77663019 
   76200   -270.56322    30.176091   -240.38713    2181.7981    139018.02    10.472245   0.69751661 
   76300   -275.11481    30.470881   -244.64393    2203.1121    125384.18    10.472245   0.69738317 
   76400   -269.81129    35.350442   -234.46085    2555.9152    142240.91    10.472245   0.75202996 
   76500   -273.01686    32.908255   -240.10861    2379.3396    131901.25    10.472245   0.74674751 
   76600   -276.10329      32.3266   -243.77669    2337.2847    126391.59    10.472245   0.73232151 
   76700   -268.37717    32.421107   -235.95606    2344.1177    146784.18    10.472245   0.68691828 
   76800   -275.86062    34.329003   -241.53162    2482.0629    124416.42    10.472245   0.77839589 
   76900   -277.10193    35.709034    -241.3929    2581.8421    123702.11    10.472245   0.61927811 
   77000    -273.1917    36.220936   -236.97077    2618.8538    133488.03    10.472245   0.71394334 
   77100   -270.92248    33.543159   -237.37932    2425.2446    140302.13    10.472245   0.76166354 
   77200   -276.68807    32.207307   -244.48076    2328.6596     121020.7    10.472245   0.67039153 
[...]
  481400   -279.78191    34.389192   -245.39272    2486.4147     112832.2    10.472245    3.3774576 
  481500    -275.2732    28.267263   -247.00594    2043.7857    122610.48    10.472245    3.4588212 
  481600   -275.57398    35.172489   -240.40149    2543.0488    125282.42    10.472245    3.4543279 
  481700   -271.33227    35.875739   -235.45653    2593.8953    138742.09    10.472245     3.665281 
  481800   -271.30589    34.742729   -236.56316    2511.9762    137582.16    10.472245    3.5082777 
  481900   -274.99461    31.391945   -243.60267    2269.7071    125258.48    10.472245    3.3106109 
  482000   -274.95026    34.207594   -240.74267    2473.2847    127283.19    10.472245    3.4438616 
  482100   -268.32314    32.318276   -236.00486    2336.6828    146154.82    10.472245    3.2831118 
  482200   -274.38003    28.297119   -246.08291    2045.9443    127675.12    10.472245    3.3158512 
  482300   -276.01518    36.235064   -239.78011    2619.8752    125916.43    10.472245     3.338367 
  482400   -273.07514    33.044864   -240.03027    2389.2167    130856.26    10.472245    3.3411511 
  482500   -273.20651    31.402691   -241.80382     2270.484    128565.02    10.472245    3.3931447 
  482600   -274.70405    33.593356   -241.11069     2428.874    126977.36    10.472245    3.4112845 
  482700   -279.13897    36.389047   -242.74992    2631.0086    115429.13    10.472245    3.4123358 
  482800   -273.14203    31.906444   -241.23558    2306.9065    128982.28    10.472245    3.6230397 
  482900   -272.49873    36.838064   -235.66067    2663.4735    139568.22    10.472245    3.5879711 
  483000   -275.70136    30.966242   -244.73512    2238.9278    122799.17    10.472245    3.3934209 
  483100   -276.67633    33.160288   -243.51604    2397.5622    124074.78    10.472245    3.3163616 
  483200   -270.74334    37.365688   -233.37766    2701.6219    141223.15    10.472245    3.4812648 
  483300   -274.36645    35.537235   -238.82922    2569.4207    130935.55    10.472245    3.3251299 
  483400   -274.29616     28.82816     -245.468    2084.3397    127596.04    10.472245    3.5367859 
  483500   -271.02169     34.09542   -236.92627    2465.1743    140843.81    10.472245    3.4665638 
  483600   -271.84065    35.578939   -236.26171     2572.436    137044.39    10.472245    3.4446054 
  483700   -275.71749    32.458784   -243.25871    2346.8419    123525.88    10.472245     3.499708 
  483800    -276.4014    31.673103   -244.72829    2290.0354    123530.49    10.472245    3.4458019 
  483900   -273.92075    30.948528   -242.97222     2237.647    128420.14    10.472245     3.414284 
  484000   -267.42997    30.812596   -236.61737    2227.8189    147937.58    10.472245    3.3674181 
  484100   -273.97564    30.881653   -243.09399    2232.8118    130148.33    10.472245    3.5552441 
  484200   -273.39435    28.547154    -244.8472    2064.0224    131006.75    10.472245    3.4796756 
  484300   -270.50889    31.654747   -238.85414    2288.7082     141880.2    10.472245    3.4607877 
  484400   -275.56285    34.872638   -240.69021    2521.3689    129363.27    10.472245    3.2976296 
  484500   -275.80858    33.395662   -242.41291    2414.5802     125671.4    10.472245    3.1923147 
  484600   -276.08493    35.762712   -240.32221    2585.7232    124095.47    10.472245    3.4265067 
  484700   -271.95336    33.070159    -238.8832    2391.0456    135136.99    10.472245    3.3986152 
  484800   -272.54843    28.169706   -244.37872     2036.732    129122.91    10.472245    3.4155298 
  484900   -275.94362      32.9952   -242.94842     2385.626    126298.59    10.472245     3.410058 
  485000   -268.69462    32.771261   -235.92336    2369.4347    144787.48    10.472245    3.4381615 
  485100    -268.9323    26.804085   -242.12822    1937.9946    141398.61    10.472245    3.6823531 
  485200   -274.87765    33.167526   -241.71012    2398.0855    125801.15    10.472245    3.4794327 
  485300   -270.95593     37.83508   -233.12085      2735.56    142401.97    10.472245    3.1870547 
  485400   -272.61982    31.114791   -241.50503    2249.6682    131443.88    10.472245    3.4295752 
  485500   -274.53337    31.218941   -243.31443    2257.1985    127005.73    10.472245    3.5109456 
  485600    -269.8709     33.24105   -236.62985    2403.4014    143996.81    10.472245    3.3090988 
  485700   -272.09078    31.412304   -240.67848    2271.1791    135281.44    10.472245    3.4533441 
  485800   -275.57849    31.258349   -244.32014    2260.0478     125122.9    10.472245    3.6073398 
  485900   -272.12827    34.871242   -237.25703    2521.2679    137065.05    10.472245    3.3982131 
  486000    -270.4828    35.517385   -234.96541    2567.9855    140573.21    10.472245    3.6218524 
  486100     -272.299    30.987076   -241.31193    2240.4341    133751.54    10.472245    3.4480099 
  486200   -279.10485    33.745039   -245.35981    2439.8409    113212.96    10.472245     3.664298 
  486300   -276.28942    32.914306   -243.37511    2379.7771    123442.06    10.472245    3.4389586 
  486400   -269.62767    33.625467    -236.0022    2431.1957    146572.09    10.472245     3.445709 
  486500   -276.62819    32.858432   -243.76976    2375.7373    122977.05    10.472245    3.4153545 
  486600   -277.00151    32.976804    -244.0247    2384.2959    122423.21    10.472245    3.4872725 
  486700   -273.30895    36.416496   -236.89245    2632.9932    133845.02    10.472245    3.2499663 
  486800   -274.74466    36.817801   -237.92686    2662.0084     132001.2    10.472245    3.5266878 
  486900     -278.049    32.723727   -245.32527    2365.9979    116413.97    10.472245    3.4393586 
  487000   -272.72545    34.100454     -238.625    2465.5382     136846.5    10.472245    3.4361439 
  487100   -269.54211    32.346118   -237.19599    2338.6959    145590.23    10.472245    3.6802687 
  487200   -274.05568    33.114468   -240.94121    2394.2493    131083.31    10.472245    3.5417273 
  487300   -274.14985    32.513378   -241.63647    2350.7891    129410.31    10.472245    3.3540867 
  487400   -271.52738    35.215931   -236.31145    2546.1897    138897.82    10.472245    3.4639496 
  487500   -274.88748    29.565911   -245.32157    2137.6808     127920.7    10.472245    3.2628544 
  487600   -271.88845    31.051697   -240.83675    2245.1064    135450.81    10.472245    3.4480102 
  487700   -273.96696    35.714632   -238.25232    2582.2469    130640.88    10.472245    3.2777986 
  487800   -276.16734    34.044375   -242.12297    2461.4836    123947.37    10.472245    3.3117952 
  487900   -274.42798     35.26238    -239.1656     2549.548    131354.67    10.472245    3.4905432 
  488000   -270.34413    37.213651   -233.13047    2690.6293    142861.61    10.472245    3.5364714 
  488100   -272.12115    31.368554    -240.7526    2268.0158    131991.46    10.472245    3.4805745 
  488200   -279.08791    34.855499   -244.23241    2520.1297    113235.91    10.472245    3.3077415 
  488300   -272.24351     32.69887   -239.54464    2364.2006    135868.03    10.472245    3.5772895 
  488400    -268.1754    31.106503   -237.06889     2249.069    146145.27    10.472245    3.4196996 
  488500   -275.65456    30.512879   -245.14168    2206.1486    121044.69    10.472245    3.3771778 
  488600   -273.61964     29.27729   -244.34235    2116.8128    129620.26    10.472245    3.5120641 
  488700   -273.42123    32.588427   -240.83281    2356.2153    131544.21    10.472245    3.5437434 
  488800   -274.73378    32.119085    -242.6147    2322.2809    128274.82    10.472245    3.5476915 
  488900   -266.26634    31.053572   -235.21277     2245.242    151549.03    10.472245    3.5471382 
  489000   -271.62285    29.767748    -241.8551     2152.274     136913.3    10.472245     3.385249 
  489100   -276.74578    34.422022   -242.32376    2488.7883    123992.64    10.472245    3.1942214 
  489200   -270.07229    34.675928   -235.39636    2507.1463    141882.38    10.472245    3.6007684 
  489300   -273.59711    31.458939   -242.13817    2274.5509    126559.39    10.472245    3.4810091 
  489400   -277.13979    33.684758   -243.45504    2435.4825    123058.85    10.472245    3.2860129 
  489500   -273.82381    38.607312    -235.2165     2791.394    134114.16    10.472245    3.3033875 
  489600   -275.66109    34.037776   -241.62331    2461.0065    126523.98    10.472245    3.3475124 
  489700     -273.874    31.159942   -242.71406    2252.9327    128665.93    10.472245    3.6455789 
  489800    -272.4869    34.279185   -238.20771    2478.4609    136070.99    10.472245    3.5489928 
  489900   -275.05453    37.205088   -237.84944    2690.0102    129459.64    10.472245    3.5097174 
  490000   -273.77021    27.173463   -246.59674    1964.7015    126959.52    10.472245     3.191579 
  490100   -274.61847    34.570233   -240.04824    2499.5043    128118.17    10.472245    3.4641538 
  490200   -269.37968    32.685195   -236.69449    2363.2119     142458.2    10.472245     3.370762 
  490300   -271.68827    30.582632   -241.10564    2211.1919    135470.37    10.472245    3.5282264 
  490400   -277.75392    30.460194   -247.29373    2202.3394     116875.2    10.472245    3.4099717 
  490500   -271.42257    32.668099   -238.75447    2361.9758    138309.86    10.472245    3.4856066 
  490600   -272.06469    32.517921   -239.54677    2351.1176    140333.16    10.472245    3.7466724 
  490700   -273.27827    29.875938   -243.40233    2160.0964    131551.21    10.472245    3.4754581 
  490800   -272.97786    39.487995   -233.48986    2855.0694    138791.44    10.472245    3.5773354 
  490900   -274.69207    33.248875   -241.44319    2403.9672    129937.34    10.472245    3.5072319 
  491000   -274.19068    31.428331   -242.76235    2272.3379    129410.04    10.472245    3.4826249 
  491100   -269.11484    37.537569   -231.57727    2714.0493    147252.08    10.472245    3.3959462 
  491200   -272.56015    34.849108   -237.71104    2519.6676    136285.86    10.472245    3.5401662 
  491300   -273.83096     31.46489   -242.36607    2274.9811    129044.35    10.472245     3.578866 
  491400   -271.61673    32.667764   -238.94896    2361.9516    134768.31    10.472245    3.3416231 
  491500   -271.20253    36.374286   -234.82825    2629.9414    138120.63    10.472245     3.381021 
  491600   -273.07065    33.511868   -239.55878    2422.9822    133751.96    10.472245    3.4768232 
  491700   -274.79724    31.546306   -243.25093    2280.8677    126457.82    10.472245    3.5605594 
  491800   -277.69226    29.858357   -247.83391    2158.8253    117651.28    10.472245    3.4404325 
  491900   -274.30553    34.732159   -239.57337    2511.2119    129373.12    10.472245    3.4005571 
  492000   -272.66477    32.131208   -240.53356    2323.1574    132694.72    10.472245    3.5191929 
  492100   -277.37319    31.064702   -246.30849    2246.0467    119600.71    10.472245    3.2859171 
  492200   -272.48854    29.648311   -242.84023    2143.6385    135529.87    10.472245    3.4631899 
  492300   -269.79036    32.160427   -237.62993      2325.27    143357.26    10.472245    3.5188761 
  492400   -274.18676    34.656812   -239.52995    2505.7641     128974.2    10.472245    3.3899095 
  492500   -274.52531    29.909181   -244.61613       2162.5     124609.8    10.472245     3.465643 
  492600    -275.2297    39.262126   -235.96757    2838.7386    131402.24    10.472245    3.5266645 
  492700   -270.21664    39.059961   -231.15668    2824.1216    146805.21    10.472245    3.4837724 
  492800   -272.98488    32.164593   -240.82028    2325.5712    132775.71    10.472245    3.3872653 
  492900    -272.4505    28.005865   -244.44463     2024.886    132275.05    10.472245    3.7022357 
  493000   -275.68079    37.594861   -238.08593    2718.1916    126168.12    10.472245    3.5654312 
  493100   -274.41581    33.683814     -240.732    2435.4142    129833.54    10.472245    3.5727145 
  493200   -277.99041    36.511357   -241.47905    2639.8519    119525.46    10.472245    3.4202078 
  493300   -273.81609     31.56951   -242.24658    2282.5454    130173.55    10.472245    3.4724303 
  493400    -277.7929    33.232133   -244.56076    2402.7567    120147.11    10.472245    3.3583331 
  493500   -275.83591     37.09673   -238.73918    2682.1756    127995.89    10.472245    3.4159647 
  493600   -271.81277    31.435056   -240.37772    2272.8241    136137.76    10.472245    3.5993921 
  493700    -277.0451    31.042178   -246.00292    2244.4181    118477.09    10.472245    3.5914576 
  493800   -275.09027    35.579892   -239.51038    2572.5049    129021.25    10.472245    3.5785132 
  493900   -275.57531    34.699767   -240.87554    2508.8699    124948.33    10.472245    3.5185389 
  494000   -275.14566    32.296686   -242.84898    2335.1218    124282.64    10.472245    3.2838239 
  494100   -273.73937    34.422051   -239.31732    2488.7905    131207.17    10.472245    3.6756224 
  494200   -273.99883     38.83534   -235.16349     2807.881    134664.86    10.472245    3.5143232 
  494300   -273.62386    31.585626   -242.03823    2283.7106    130114.91    10.472245    3.5605262 
  494400   -278.42452    34.477915   -243.94661    2492.8295    116890.21    10.472245    3.5543794 
  494500   -276.83418    32.375753   -244.45843    2340.8385    123525.38    10.472245    3.3427944 
  494600   -271.35202    33.903348   -237.44867     2451.287    140522.04    10.472245    3.4191253 
  494700   -277.13829    31.471296     -245.667    2275.4443    119231.52    10.472245    3.3434776 
  494800   -275.58274    31.639716   -243.94303    2287.6214    125957.47    10.472245    3.5434498 
  494900   -270.96706    31.916759    -239.0503    2307.6523    136757.28    10.472245     3.383438 
  495000   -273.51521    32.424573   -241.09063    2344.3684    132475.73    10.472245    3.6151962 
  495100   -274.79518    31.484827   -243.31035    2276.4226    126308.01    10.472245    3.7213701 
  495200   -269.30362    36.127669   -233.17595    2612.1104    143464.68    10.472245     3.182298 
  495300   -273.37546    32.688253   -240.68721     2363.433    130650.62    10.472245    3.3590266 
  495400   -277.55244    33.642083   -243.91036     2432.397    121272.54    10.472245    3.4681353 
  495500   -271.46053    36.850661   -234.60987    2664.3843    141309.82    10.472245    3.4345861 
  495600   -275.74363    33.785348   -241.95828    2442.7554    125529.06    10.472245    3.5246523 
  495700   -275.85807    33.642967    -242.2151    2432.4609     122881.8    10.472245     3.336288 
  495800   -270.02831    37.404591   -232.62372    2704.4347    141687.88    10.472245    3.2508425 
  495900   -271.41388    31.594447   -239.81943    2284.3484    135591.82    10.472245    3.6196055 
  496000   -277.94774    36.332364   -241.61538    2626.9103    120134.32    10.472245    3.5698874 
  496100   -277.74355    31.306539   -246.43701     2263.532    116131.61    10.472245    3.5200962 
  496200   -275.19619     36.83792   -238.35827    2663.4631    127133.77    10.472245    3.2554156 
  496300   -270.24028    28.355646   -241.88463     2050.176    136575.26    10.472245    3.5511998 
  496400   -274.57326    36.268463    -238.3048    2622.2901    130015.54    10.472245    3.3350758 
  496500   -272.75602    38.576072   -234.17994    2789.1354     136328.6    10.472245    3.4192961 
  496600   -273.17385    30.864361   -242.30949    2231.5616    132438.31    10.472245    3.4578424 
  496700   -275.58338    30.988273   -244.59511    2240.5207    124668.93    10.472245    3.2914181 
  496800   -273.83214     38.25448   -235.57766    2765.8835    132869.67    10.472245    3.4636139 
  496900   -274.19245    31.754724   -242.43772    2295.9368    127552.85    10.472245    3.5653337 
  497000   -275.68879    32.734753   -242.95404    2366.7951    124489.58    10.472245    3.4882742 
  497100   -268.07116     33.81428   -234.25688    2444.8472    149239.12    10.472245    3.3888558 
  497200   -268.21576    33.657604   -234.55816    2433.5192    151055.17    10.472245    3.4392575 
  497300   -276.41067    34.748647   -241.66203    2512.4041    122227.79    10.472245    3.2200732 
  497400   -275.04444    29.192165   -245.85227    2110.6581    125303.02    10.472245    3.3794183 
  497500   -277.24752    37.675879   -239.57164    2724.0494    123901.45    10.472245    3.2916729 
  497600    -273.4726    35.129331   -238.34327    2539.9283    131729.14    10.472245    3.5084097 
  497700   -277.49285    30.844698   -246.64816    2230.1399    118872.11    10.472245    3.3379736 
  497800   -275.25004    32.601262   -242.64878    2357.1434    123984.71    10.472245    3.2364565 
  497900   -274.46067    33.238949   -241.22172    2403.2495    130673.19    10.472245    3.5237387 
  498000      -273.16    36.823066   -236.33694    2662.3891    137144.38    10.472245    3.4523714 
  498100   -272.23833    35.412563   -236.82577    2560.4066    137580.26    10.472245     3.452346 
  498200   -274.82251    31.168972   -243.65354    2253.5856       126246    10.472245    3.5272208 
  498300   -269.58333    32.385447   -237.19788    2341.5394     141586.8    10.472245    3.3953388 
  498400    -269.8393     34.74172   -235.09758    2511.9032    143487.25    10.472245    3.4889109 
  498500   -269.54684    31.224235    -238.3226    2257.5813    145028.02    10.472245    3.9886771 
  498600   -262.86126    32.478652   -230.38261    2348.2784    162872.85    10.472245    3.9248703 
  498700   -264.91975    33.024217   -231.89553    2387.7239    157435.17    10.472245    4.1754369 
  498800   -268.90235    31.602492   -237.29985    2284.9301    143295.69    10.472245    4.1678104 
  498900   -273.51894    29.784743    -243.7342    2153.5028    132118.16    10.472245    3.8659375 
  499000   -272.53497    33.121342   -239.41363    2394.7463    131898.25    10.472245    3.9676236 
  499100   -265.28374    36.182848   -229.10089       2616.1       155583    10.472245    4.2635404 
  499200   -270.90538    33.005564   -237.89982    2386.3753    138021.29    10.472245    4.1070563 
  499300   -275.59938    31.553712   -244.04567    2281.4032     123482.1    10.472245    3.9802095 
  499400   -273.43268    29.097657   -244.33502     2103.825    127225.59    10.472245    4.2280437 
  499500   -273.30715    36.433256    -236.8739     2634.205    133717.25    10.472245     4.209236 
  499600   -274.99902    30.787231   -244.21179    2225.9849    124087.46    10.472245    4.0057668 
  499700   -273.60076    30.050587   -243.55017    2172.7239    130499.26    10.472245    3.9204148 
  499800    -276.4757    35.009672   -241.46603    2531.2768     124303.8    10.472245    3.8463997 
  499900   -273.98985    31.933185   -242.05666    2308.8399    128790.33    10.472245    4.0705526 
  500000   -273.74286    30.034832   -243.70803    2171.5848    127209.22    10.472245    4.0061459 
Loop time of 158.826 on 1 procs for 500000 steps with 108 atoms

Performance: 1359.979 ns/day, 0.018 hours/ns, 3148.100 timesteps/s
100.0% CPU use with 1 MPI tasks x no OpenMP threads

MPI task timing breakdown:
Section |  min time  |  avg time  |  max time  |%varavg| %total
---------------------------------------------------------------
Pair    | 93.708     | 93.708     | 93.708     |   0.0 | 59.00
Neigh   | 7.0188     | 7.0188     | 7.0188     |   0.0 |  4.42
Comm    | 2.5782     | 2.5782     | 2.5782     |   0.0 |  1.62
Output  | 0.089751   | 0.089751   | 0.089751   |   0.0 |  0.06
Modify  | 55.009     | 55.009     | 55.009     |   0.0 | 34.63
Other   |            | 0.422      |            |       |  0.27

Nlocal:    108 ave 108 max 108 min
Histogram: 1 0 0 0 0 0 0 0 0 0
Nghost:    1000 ave 1000 max 1000 min
Histogram: 1 0 0 0 0 0 0 0 0 0
Neighs:    5585 ave 5585 max 5585 min
Histogram: 1 0 0 0 0 0 0 0 0 0

Total # of neighbors = 5585
Ave neighs/atom = 51.713
Neighbor list builds = 30264
Dangerous builds = 60
    
Total wall time: 0:02:38
