LAMMPS (3 Mar 2020)

# ---------- 1. Initialize simulation ----------
units metal
atom_style atomic
dimension 3
boundary p p p
read_data /home/modeler/RemLabs/Project/eval_timestep/n3_T1800_timestep2.236068e-03_steps2237/20201204-073158/lammps.data
  orthogonal box = (0 0 0) to (17.469 17.469 17.469)
  1 by 1 by 1 MPI processor grid
  reading atoms ...
  217 atoms
  read_data CPU = 0.00101379 secs

pair_style meam/c
pair_coeff * * library.meam Li Si LiSi.meam Li Si
Reading potential file library.meam with DATE: 2012-06-29
Reading potential file LiSi.meam with DATE: 2020-11-07

group Li type 1
1 atoms in group Li

velocity all create 1800 3320 dist gaussian

# ---------- 2. Describe computed properties----------
compute msdli Li msd
thermo_style custom step pe ke etotal temp press density c_msdli[4]
thermo 100

# ---------- 3. Specify ensemble  ----------
#fix 1 all nve
fix 1 all nvt temp 1800 1800 0.11180339887498947
#fix 1 all npt temp 1800 1800 0.11180339887498947 tchain 2 iso 1.0 1.0 1.0 pchain 2

# ---------- 4. Run -------------
timestep 0.0022360679774997894
run 2237
Neighbor list info ...
  update every 1 steps, delay 10 steps, check yes
  max neighbors/atom: 2000, page size: 100000
  master list distance cutoff = 6
  ghost atom cutoff = 6
  binsize = 3, bins = 6 6 6
  2 neighbor lists, perpetual/occasional/extra = 2 0 0
  (1) pair meam/c, perpetual
      attributes: full, newton on
      pair build: full/bin/atomonly
      stencil: full/bin/3d
      bin: standard
  (2) pair meam/c, perpetual, half/full from (1)
      attributes: half, newton on
      pair build: halffull/newton
      stencil: none
      bin: none
Per MPI rank memory allocation (min/avg/max) = 9.27 | 9.27 | 9.27 Mbytes
Step PotEng KinEng TotEng Temp Press Density c_msdli[4] 
       0   -951.06911    50.256344   -900.81276         1800    -114182.3    1.8918427            0 
     100   -916.91687     32.90007    -884.0168    1178.3612   -79855.781    1.8918427   0.12420736 
     200   -908.24825    49.168667   -859.07958    1761.0433   -69322.407    1.8918427  0.090102704 
     300   -900.71024    55.019094   -845.69115    1970.5844   -60954.058    1.8918427  0.012260439 
     400   -903.29594    47.897383   -855.39856    1715.5106   -63385.858    1.8918427    6.2405767 
     500    -906.3726    49.552016   -856.82058    1774.7735   -69074.686    1.8918427   0.05133392 
     600    -903.2689    55.081616   -848.18729    1972.8237   -63100.254    1.8918427  0.090226123 
     700   -909.11482    53.881606   -855.23322    1929.8437   -67994.339    1.8918427  0.081139675 
     800   -905.10736    49.131309   -855.97605    1759.7053   -66378.302    1.8918427   0.94124891 
     900   -902.84449    53.979906   -848.86459    1933.3645   -62852.783    1.8918427  0.062210424 
    1000   -903.76885    47.828496   -855.94036    1713.0433   -64592.799    1.8918427   0.17481583 
    1100   -912.84868    46.394989   -866.45369    1661.7003   -75224.391    1.8918427  0.088932799 
    1200   -902.99677    46.644041   -856.35273    1670.6204   -65045.794    1.8918427    0.1551864 
    1300   -899.58439    49.817738   -849.76665    1784.2907   -61408.261    1.8918427   0.31349542 
    1400   -906.95268    50.547629   -856.40505    1810.4328   -70343.238    1.8918427    0.3885611 
    1500   -904.34693     48.55967   -855.78726    1739.2313   -68765.753    1.8918427  0.014366517 
    1600   -902.38867    51.103038   -851.28563    1830.3255   -64950.452    1.8918427   0.15024392 
    1700   -905.74915    50.656786   -855.09237    1814.3424   -67703.319    1.8918427  0.081890389 
    1800   -908.08306    49.072602   -859.01045    1757.6027   -72176.217    1.8918427    5.2124877 
    1900   -900.43895    51.683884   -848.75507    1851.1293    -63351.77    1.8918427    10.791414 
    2000   -903.06721    48.567039   -854.50017    1739.4952   -66028.481    1.8918427    12.211805 
    2100   -905.77187    47.752309   -858.01956    1710.3145   -68447.968    1.8918427    9.2628922 
    2200    -900.5646    53.331768   -847.23283    1910.1505     -63844.1    1.8918427    9.3729645 
    2237   -902.45411    53.593842   -848.86027    1919.5371   -62984.605    1.8918427     5.229629 
Loop time of 1.2398 on 1 procs for 2237 steps with 217 atoms

Performance: 348.588 ns/day, 0.069 hours/ns, 1804.319 timesteps/s
99.9% CPU use with 1 MPI tasks x no OpenMP threads

MPI task timing breakdown:
Section |  min time  |  avg time  |  max time  |%varavg| %total
---------------------------------------------------------------
Pair    | 1.1819     | 1.1819     | 1.1819     |   0.0 | 95.33
Neigh   | 0.035132   | 0.035132   | 0.035132   |   0.0 |  2.83
Comm    | 0.0099796  | 0.0099796  | 0.0099796  |   0.0 |  0.80
Output  | 0.00068821 | 0.00068821 | 0.00068821 |   0.0 |  0.06
Modify  | 0.0092053  | 0.0092053  | 0.0092053  |   0.0 |  0.74
Other   |            | 0.002885   |            |       |  0.23

Nlocal:    217 ave 217 max 217 min
Histogram: 1 0 0 0 0 0 0 0 0 0
Nghost:    892 ave 892 max 892 min
Histogram: 1 0 0 0 0 0 0 0 0 0
Neighs:    3636 ave 3636 max 3636 min
Histogram: 1 0 0 0 0 0 0 0 0 0
FullNghs:  7272 ave 7272 max 7272 min
Histogram: 1 0 0 0 0 0 0 0 0 0

Total # of neighbors = 7272
Ave neighs/atom = 33.5115
Neighbor list builds = 64
Dangerous builds = 2
Total wall time: 0:00:01
