LAMMPS (3 Mar 2020)
Reading data file ...
  orthogonal box = (0 0 0) to (12.27 12.27 12.27)
  1 by 1 by 1 MPI processor grid
  reading atoms ...
  108 atoms
  read_data CPU = 0.000898728 secs
Reading potential file /usr/share/lammps-stable/potentials/Ag_u3.eam with DATE: 2007-06-11
Neighbor list info ...
  update every 1 steps, delay 10 steps, check yes
  max neighbors/atom: 2000, page size: 100000
  master list distance cutoff = 7.55
  ghost atom cutoff = 7.55
  binsize = 3.775, bins = 4 4 4
  2 neighbor lists, perpetual/occasional/extra = 1 1 0
  (1) pair eam, perpetual
      attributes: half, newton on
      pair build: half/bin/atomonly/newton
      stencil: half/bin/3d/newton
      bin: standard
  (2) compute rdf, occasional, copy from (1)
      attributes: half, newton on
      pair build: copy
      stencil: none
      bin: none
Setting up Verlet run ...
  Unit style    : metal
  Current step  : 0
  Time step     : 0.001
Per MPI rank memory allocation (min/avg/max) = 3.723 | 3.723 | 3.723 Mbytes
Step PotEng KinEng TotEng Temp Press Density c_msdall[4] 
       0       -307.8    10.373127   -297.42687          750    5997.7848    10.472245            0 
     100   -301.30129    6.4089344   -294.89236    463.38013    25764.705    10.472245  0.040238266 
     200   -299.40522     10.84307   -288.56215    783.97794    35450.005    10.472245  0.044474228 
     300   -297.47301    13.544643   -283.92836    979.30763    43429.993    10.472245  0.050106847 
     400   -298.02132     10.41248   -287.60884    752.84533    39670.899    10.472245  0.054124328 
     500    -298.8981    11.620814   -287.27729    840.21057    38269.655    10.472245  0.042407744 
     600   -297.23029    8.6328017   -288.59749    624.17066    40919.693    10.472245  0.055135794 
     700   -296.91482    11.192766   -285.72206    809.26177    44608.883    10.472245  0.053031276 
     800    -298.3139    10.617308   -287.69659    767.65485    39080.247    10.472245  0.044966235 
     900   -297.28761     8.999552   -288.28806    650.68752    41396.829    10.472245   0.05263581 
    1000   -297.04353    10.271582   -286.77195    742.65813    43910.098    10.472245  0.050181198 
    1100    -298.1911    10.399613   -287.79149    751.91502    39692.204    10.472245  0.049126881 
    1200   -298.82209    10.287016   -288.53508    743.77399    37160.464    10.472245  0.047595969 
    1300   -297.87983    10.675877   -287.20395    771.88954    41242.708    10.472245  0.047770196 
    1400   -297.15582    12.086899   -285.06892    873.90952    44024.728    10.472245  0.052531156 
    1500   -296.64141    9.7800329   -286.86138    707.11801    44635.071    10.472245  0.057121602 
    1600   -298.17901    9.3356564   -288.84336    674.98861    39307.832    10.472245  0.045837976 
    1700   -296.98323    10.143062   -286.84016     733.3658    42904.795    10.472245  0.052746314 
    1800   -296.72991    10.318445   -286.41146    746.04637     43979.45    10.472245  0.057770931 
    1900   -298.08537     10.41729   -287.66808    753.19308    39375.744    10.472245  0.046641617 
    2000   -298.63383    9.0556774   -289.57816    654.74551    37323.885    10.472245  0.043301957 
    2100   -297.24016    10.762764   -286.47739    778.17165    43098.268    10.472245  0.054605579 
    2200   -297.99641     12.54963   -285.44678    907.36601    40709.588    10.472245  0.063546798 
    2300    -298.4873    11.563122   -286.92418    836.03928    38933.109    10.472245  0.051751788 
    2400   -299.07949    9.2195599   -289.85993    666.59458    35827.218    10.472245  0.040213351 
    2500   -298.48302    10.908975   -287.57404    788.74301    38905.936    10.472245   0.04570419 
    2600   -296.36397    10.165781   -286.19819    735.00844    45455.688    10.472245   0.06834075 
    2700    -297.1989    11.314451   -285.88445    818.05983    43836.178    10.472245  0.055912702 
    2800   -297.80219    10.170742   -287.63145    735.36712    41199.868    10.472245  0.048192409 
    2900   -297.29943    8.0178531   -289.28158    579.70852    40737.328    10.472245  0.054925803 
    3000   -297.83436    11.051045   -286.78332    799.01499    40758.884    10.472245  0.049345715 
    3100   -297.08259    10.336048   -286.74654    747.31911    42830.583    10.472245  0.057655686 
    3200   -296.34561    10.420139   -285.92547     753.3991    45864.269    10.472245  0.060590816 
    3300   -297.95632    9.9272384   -288.02908     717.7613    39391.989    10.472245  0.047914179 
    3400   -297.70944    7.9141679   -289.79527    572.21184    39457.566    10.472245   0.04594339 
    3500   -297.80196    10.050726   -287.75123    726.68974     40761.95    10.472245  0.046590802 
    3600   -296.31286     9.741813   -286.57104    704.35463    45642.687    10.472245   0.06467673 
    3700   -297.08507    12.019659   -285.06542    869.04793    44106.582    10.472245  0.054458583 
    3800   -298.16103    10.582419   -287.57861     765.1323    40338.987    10.472245  0.047305414 
    3900   -297.49135    9.4370626   -288.05429     682.3205    40888.569    10.472245  0.055410868 
    4000   -297.05812    11.091732   -285.96639    801.95676    43676.289    10.472245  0.055578149 
    4100   -297.70684    10.735386   -286.97146    776.19214    42090.296    10.472245  0.050067156 
    4200    -298.5246    9.1407456   -289.38385    660.89612    37230.812    10.472245  0.045498481 
    4300   -297.28922     10.06604   -287.22318    727.79693    42727.673    10.472245  0.049532872 
    4400   -295.53841    10.465398   -285.07301    756.67145     48358.94    10.472245  0.064284291 
    4500   -297.32858    10.366267   -286.96231    749.50401    41588.047    10.472245  0.060540553 
    4600   -298.97174    11.031567   -287.94018    797.60672    37211.434    10.472245  0.047970728 
    4700   -298.19774     9.546281   -288.65146    690.21723    38899.176    10.472245  0.052789134 
    4800   -296.12002    9.6152284   -286.50479    695.20228    45608.721    10.472245  0.063928525 
    4900   -295.66005    9.6066558    -286.0534    694.58247     47299.85    10.472245  0.067676876 
    5000   -299.05431    10.105482   -288.94883    730.64872    36208.413    10.472245  0.042017089 
    5100   -298.78983    9.2201923   -289.56964     666.6403    36943.031    10.472245  0.040984873 
    5200   -296.30612    10.161471   -286.14465    734.69681    45969.857    10.472245  0.060474306 
    5300   -296.76648     11.49162   -285.27486    830.86956    44719.042    10.472245   0.05783662 
    5400   -298.11309    10.088081     -288.025    729.39054    39896.334    10.472245  0.049053385 
    5500    -297.9758    11.312927   -286.66287    817.94964    41047.596    10.472245  0.046807324 
    5600    -296.1236    9.9082405   -286.21536    716.38771    46075.035    10.472245  0.062893897 
    5700    -297.6503    10.188793    -287.4615     736.6723    40714.805    10.472245  0.057023219 
    5800   -298.76072    11.021403   -287.73931    796.87182    38243.123    10.472245  0.045372957 
    5900   -296.79759    11.644834   -285.15275    841.94726     44586.97    10.472245  0.055202129 
    6000   -298.04688    10.342765   -287.70412    747.80479    39339.728    10.472245  0.053065708 
    6100   -298.76207    10.257809   -288.50426    741.66229    37536.539    10.472245  0.045198173 
    6200   -297.03439    11.699514   -285.33488    845.90076    44598.144    10.472245  0.056772281 
    6300   -296.42727    10.055262   -286.37201    727.01771    44913.198    10.472245  0.068295342 
    6400   -297.55346    10.143376   -287.41008    733.38851     41569.68    10.472245  0.053385014 
    6500   -297.65736    8.8192966   -288.83806    637.65465    40267.841    10.472245  0.053604411 
    6600   -298.13784    10.922156   -287.21568    789.69606     39545.27    10.472245  0.049726475 
    6700   -297.45517    10.268675   -287.18649    742.44793    41825.504    10.472245  0.057144698 
    6800   -296.75183    10.176727    -286.5751     735.7999      43979.3    10.472245  0.059218712 
    6900   -297.51217    10.432103   -287.08007    754.26411     41765.53    10.472245   0.05394993 
    7000   -298.92049    9.5598624   -289.36062     691.1992    35950.945    10.472245  0.048288703 
    7100   -297.24134    9.7251306   -287.51621    703.14845    41983.188    10.472245  0.052906695 
    7200   -297.45785    10.273119   -287.18473     742.7692    40982.032    10.472245  0.055360281 
    7300   -297.24463    10.602512   -286.64211    766.58509    42148.505    10.472245  0.057037556 
    7400   -296.14673    11.197519   -284.94921    809.60537    46458.488    10.472245    0.0618674 
    7500   -297.91338     10.72871   -287.18467    775.70947    40160.944    10.472245  0.057082635 
    7600   -298.04676    10.959878   -287.08689    792.42339    39533.866    10.472245  0.051575222 
    7700   -297.36656    11.609509   -285.75705    839.39315    42412.515    10.472245  0.056545556 
    7800   -297.87977    10.811462   -287.06831     781.6926    40596.657    10.472245  0.050291295 
    7900   -298.71614    9.3664062   -289.34973    677.21189    36919.654    10.472245  0.043838453 
    8000   -297.43011    10.866339   -286.56377    785.66037    42865.549    10.472245  0.046323242 
    8100   -298.24372     11.54037   -286.70335    834.39427    40552.267    10.472245  0.044937386 
    8200   -298.00255    9.7995976   -288.20295    708.53258    40032.105    10.472245  0.047849112 
    8300   -296.35197    11.645117   -284.70685    841.96774    47181.459    10.472245  0.050759913 
    8400   -296.38778      10.5864   -285.80138    765.42016    45768.545    10.472245  0.052359512 
    8500   -298.38373    10.353785   -288.02995    748.60152    38435.537    10.472245  0.041767234 
    8600   -297.10771    9.3012599   -287.80645    672.50166    42751.688    10.472245  0.047927684 
    8700   -297.02789    10.735789    -286.2921    776.22129    42987.075    10.472245  0.049989009 
    8800    -296.7064    9.7811394   -286.92526    707.19802    45098.627    10.472245  0.047827393 
    8900     -297.842    8.6110128   -289.23098    622.59527    39142.503    10.472245  0.046854616 
    9000    -298.1055    10.507988   -287.59751    759.75077     39656.08    10.472245  0.046087918 
    9100   -296.49042    11.394298   -285.09613    823.83295    45872.919    10.472245  0.058902637 
    9200    -295.8492    10.186563   -285.66264    736.51104    46467.555    10.472245  0.065260267 
    9300   -298.92362    11.329435   -287.59418    819.14319    38200.716    10.472245  0.042785678 
    9400   -298.68674    10.604151   -288.08259    766.70354      37721.9    10.472245  0.041072678 
    9500   -296.76033     10.25164   -286.50869    741.21626    44247.586    10.472245  0.049190387 
    9600   -296.13437    10.864003   -285.27037    785.49146    47415.726    10.472245   0.05902199 
    9700   -297.56253    10.675916   -286.88662    771.89232    41389.981    10.472245  0.051946277 
    9800   -299.21935     9.568482   -289.65087    691.82241    36035.039    10.472245  0.038684053 
    9900   -298.39315    10.706812   -287.68634    774.12616     38973.13    10.472245  0.046020045 
   10000    -297.0559     11.07006   -285.98584    800.38986    43919.844    10.472245  0.055741635 
Loop time of 2.03309 on 1 procs for 10000 steps with 108 atoms

Performance: 424.969 ns/day, 0.056 hours/ns, 4918.619 timesteps/s
100.0% CPU use with 1 MPI tasks x no OpenMP threads

MPI task timing breakdown:
Section |  min time  |  avg time  |  max time  |%varavg| %total
---------------------------------------------------------------
Pair    | 1.361      | 1.361      | 1.361      |   0.0 | 66.94
Neigh   | 0          | 0          | 0          |   0.0 |  0.00
Comm    | 0.04269    | 0.04269    | 0.04269    |   0.0 |  2.10
Output  | 0.0020044  | 0.0020044  | 0.0020044  |   0.0 |  0.10
Modify  | 0.61775    | 0.61775    | 0.61775    |   0.0 | 30.38
Other   |            | 0.009626   |            |       |  0.47

Nlocal:    108 ave 108 max 108 min
Histogram: 1 0 0 0 0 0 0 0 0 0
Nghost:    990 ave 990 max 990 min
Histogram: 1 0 0 0 0 0 0 0 0 0
Neighs:    4644 ave 4644 max 4644 min
Histogram: 1 0 0 0 0 0 0 0 0 0

Total # of neighbors = 4644
Ave neighs/atom = 43
Neighbor list builds = 0
Dangerous builds = 0
Total wall time: 0:00:02
