LAMMPS (3 Mar 2020)
Reading data file ...
  orthogonal box = (0 0 0) to (17.469 17.469 17.469)
  1 by 1 by 1 MPI processor grid
  reading atoms ...
  217 atoms
  read_data CPU = 0.0010556 secs
Reading potential file library.meam with DATE: 2012-06-29
Reading potential file LiSi.meam with DATE: 2020-11-07
1 atoms in group Li
Neighbor list info ...
  update every 1 steps, delay 10 steps, check yes
  max neighbors/atom: 2000, page size: 100000
  master list distance cutoff = 6
  ghost atom cutoff = 6
  binsize = 3, bins = 6 6 6
  2 neighbor lists, perpetual/occasional/extra = 2 0 0
  (1) pair meam/c, perpetual
      attributes: full, newton on
      pair build: full/bin/atomonly
      stencil: full/bin/3d
      bin: standard
  (2) pair meam/c, perpetual, half/full from (1)
      attributes: half, newton on
      pair build: halffull/newton
      stencil: none
      bin: none
Setting up Verlet run ...
  Unit style    : metal
  Current step  : 0
  Time step     : 0.00214067
Per MPI rank memory allocation (min/avg/max) = 9.27 | 9.27 | 9.27 Mbytes
Step PotEng KinEng TotEng Temp Press Density c_msdli[4] 
       0   -951.06911    50.256344   -900.81276         1800    -114182.3    1.8918427            0 
     100   -917.78129    33.739114   -884.04217    1208.4127   -80695.189    1.8918427   0.26713015 
     200   -911.93777    52.958253   -858.97952    1896.7726   -69644.272    1.8918427   0.33003226 
     300   -898.42239    52.712763   -845.70963      1887.98   -58008.208    1.8918427   0.10505407 
     400   -902.77687    47.473799   -855.30307    1700.3393   -63353.703    1.8918427    1.1285577 
     500   -901.65385    44.996968   -856.65688    1611.6282   -64551.208    1.8918427    0.2263022 
     600   -902.56789    54.111392   -848.45649    1938.0738   -63495.246    1.8918427   0.10542537 
     700   -901.80225    47.110203   -854.69204    1687.3166   -65884.703    1.8918427    1.4945028 
     800   -904.98968    50.074458   -854.91522    1793.4855   -66657.132    1.8918427    12.188459 
     900   -897.33523    50.001403   -847.33382    1790.8689   -62512.514    1.8918427    5.6491924 
    1000   -903.42623    47.191456   -856.23477    1690.2268   -68826.426    1.8918427    10.506231 
    1100   -901.76041    46.916135   -854.84428    1680.3658   -65139.927    1.8918427     19.05318 
    1200   -900.06701    51.900253   -848.16676    1858.8788   -64339.208    1.8918427    19.744354 
    1300   -901.29007    43.701509   -857.58856    1565.2296   -66340.671    1.8918427    36.947101 
    1400   -903.68949    50.510934   -853.17855    1809.1185   -68724.873    1.8918427    42.551899 
    1500   -899.70015     49.64547   -850.05468    1778.1207   -66096.465    1.8918427    39.123165 
    1600   -905.43641    49.302668   -856.13374    1765.8428   -68065.244    1.8918427    41.315688 
    1700   -905.54267    47.580371    -857.9623    1704.1564   -68673.212    1.8918427    38.110254 
    1800   -900.78167    49.513212   -851.26845    1773.3837       -63910    1.8918427    42.810091 
    1900   -902.08094    49.631416   -852.44952    1777.6173   -65350.546    1.8918427    34.967674 
    2000   -904.49512    45.528237   -858.96688    1630.6563   -69363.779    1.8918427     26.15121 
    2100   -898.79914    49.594369   -849.20478    1776.2904   -64037.285    1.8918427    25.201039 
    2200   -901.32852    49.263685   -852.06483    1764.4465   -63814.387    1.8918427    20.847559 
    2300   -905.05829     46.09385   -858.96444    1650.9145   -69542.633    1.8918427    21.367913 
    2400   -901.00167    53.418494   -847.58317    1913.2567   -61198.302    1.8918427    25.072723 
    2500   -903.17067    49.402157   -853.76851    1769.4061   -64478.357    1.8918427    28.301715 
    2600   -904.55215    49.502573   -855.04958    1773.0026   -69434.669    1.8918427    18.643708 
    2700   -896.09749    51.106739   -844.99075    1830.4581   -60302.189    1.8918427    33.328376 
    2800   -901.89301    47.661215    -854.2318    1707.0519   -65430.622    1.8918427    45.501676 
    2900   -902.00848    48.809255   -853.19922    1748.1705   -62809.961    1.8918427    49.599868 
    3000   -900.72747    56.474092   -844.25338    2022.6972   -60305.459    1.8918427    47.861139 
    3100   -900.74742    49.335047   -851.41237    1767.0025    -60972.31    1.8918427     85.02388 
    3200    -903.3257    48.014571   -855.31113    1719.7078   -66174.067    1.8918427    87.586078 
    3300   -899.31643    51.375622   -847.94081    1840.0885   -65431.537    1.8918427    83.769288 
    3400   -899.89352    50.567971   -849.32555    1811.1613   -63623.035    1.8918427    68.954376 
    3500   -905.03865    49.521465   -855.51718    1773.6793   -70638.071    1.8918427    105.80922 
    3600   -903.56972    52.652108   -850.91762    1885.8076   -70535.502    1.8918427    121.25581 
    3700   -899.52414    49.696643    -849.8275    1779.9535   -62856.049    1.8918427    121.50673 
    3800   -906.90889    50.489777   -856.41911    1808.3607   -69690.071    1.8918427    112.45962 
    3900   -902.17533    51.854075   -850.32125    1857.2249   -65232.841    1.8918427    111.54681 
    4000   -898.98907    49.985074   -849.00399    1790.2841   -62604.185    1.8918427    125.95308 
    4100   -899.32254    46.184435    -853.1381     1654.159   -63973.882    1.8918427    121.89215 
    4200   -903.35316    50.764775   -852.58839    1818.2102   -69087.845    1.8918427    106.75711 
    4300    -902.0336    49.996959   -852.03664    1790.7098   -66815.813    1.8918427    121.88799 
    4400   -902.08168    49.189717   -852.89196    1761.7973    -67030.52    1.8918427    112.42217 
    4500   -901.37516    46.104877   -855.27028    1651.3095   -68711.687    1.8918427    115.94768 
    4600   -901.89106    51.638212   -850.25284    1849.4935   -66129.765    1.8918427    114.96431 
    4700   -903.37155    54.702079   -848.66947    1959.2301    -66899.34    1.8918427    119.33297 
    4800   -904.25117      47.4059   -856.84527    1697.9074    -68808.88    1.8918427    119.22823 
    4900   -899.92212    51.308757   -848.61337    1837.6936   -62695.302    1.8918427    118.41843 
    5000   -903.72952    54.270744   -849.45877    1943.7812   -69994.625    1.8918427    117.74932 
    5100   -905.91815    51.593626   -854.32452    1847.8966   -68659.057    1.8918427    122.58212 
    5200   -901.89376    45.249281   -856.64447    1620.6652   -68517.269    1.8918427    117.88514 
    5300   -898.39276     50.70804   -847.68472    1816.1781    -66375.45    1.8918427    110.78231 
    5400   -900.30361    45.124948   -855.17866     1616.212   -65600.829    1.8918427    126.89679 
    5500   -904.63444    49.471492   -855.16295    1771.8894   -68938.264    1.8918427    119.14456 
    5600   -897.51458    46.753898   -850.76068    1674.5551   -61398.195    1.8918427    118.19937 
    5700   -904.26542     48.98748   -855.27794    1754.5539   -68457.863    1.8918427    125.71169 
    5800   -904.56413    49.148298   -855.41583    1760.3138   -69622.236    1.8918427    118.95702 
    5900   -899.87963    51.555581   -848.32405    1846.5339   -66707.002    1.8918427    125.22772 
    6000    -904.0272    47.671893    -856.3553    1707.4343    -68124.38    1.8918427    134.61565 
    6100   -907.51575    48.396337   -859.11941    1733.3813   -73450.401    1.8918427    126.41989 
    6200   -899.19307    48.062165    -851.1309    1721.4125   -62384.854    1.8918427    115.28834 
    6300   -902.56287    50.715436   -851.84743     1816.443   -65667.115    1.8918427    120.83053 
    6400   -905.96496    47.195046   -858.76992    1690.3554   -70454.791    1.8918427    113.26387 
    6500   -902.36515    51.221709   -851.14344    1834.5758   -65476.971    1.8918427    120.68219 
    6600   -903.98389    51.333847   -852.65004    1838.5923   -67727.807    1.8918427    139.70088 
    6700   -909.23206     49.41275   -859.81931    1769.7855   -74754.134    1.8918427    163.80791 
    6800   -903.98574    53.750474   -850.23526    1925.1471   -69005.723    1.8918427    169.62444 
    6900    -902.5878    51.996512   -850.59129    1862.3265   -65375.397    1.8918427     175.4481 
    7000   -906.43689    47.559327   -858.87756    1703.4026   -71698.821    1.8918427    143.21347 
    7008   -905.82253    46.706287   -859.11624    1672.8498   -72432.144    1.8918427    143.62493 
Loop time of 3.90801 on 1 procs for 7008 steps with 217 atoms

Performance: 331.666 ns/day, 0.072 hours/ns, 1793.239 timesteps/s
100.0% CPU use with 1 MPI tasks x no OpenMP threads

MPI task timing breakdown:
Section |  min time  |  avg time  |  max time  |%varavg| %total
---------------------------------------------------------------
Pair    | 3.7083     | 3.7083     | 3.7083     |   0.0 | 94.89
Neigh   | 0.1269     | 0.1269     | 0.1269     |   0.0 |  3.25
Comm    | 0.032298   | 0.032298   | 0.032298   |   0.0 |  0.83
Output  | 0.0021146  | 0.0021146  | 0.0021146  |   0.0 |  0.05
Modify  | 0.029642   | 0.029642   | 0.029642   |   0.0 |  0.76
Other   |            | 0.008716   |            |       |  0.22

Nlocal:    217 ave 217 max 217 min
Histogram: 1 0 0 0 0 0 0 0 0 0
Nghost:    893 ave 893 max 893 min
Histogram: 1 0 0 0 0 0 0 0 0 0
Neighs:    3629 ave 3629 max 3629 min
Histogram: 1 0 0 0 0 0 0 0 0 0
FullNghs:  7258 ave 7258 max 7258 min
Histogram: 1 0 0 0 0 0 0 0 0 0

Total # of neighbors = 7258
Ave neighs/atom = 33.447
Neighbor list builds = 231
Dangerous builds = 0
Total wall time: 0:00:03
