LAMMPS (3 Mar 2020)
Reading data file ...
  orthogonal box = (0 0 0) to (28.63 28.63 28.63)
  1 by 1 by 1 MPI processor grid
  reading atoms ...
  1372 atoms
  read_data CPU = 0.00190011 secs
Reading potential file /usr/share/lammps-stable/potentials/Ag_u3.eam with DATE: 2007-06-11
Neighbor list info ...
  update every 1 steps, delay 10 steps, check yes
  max neighbors/atom: 2000, page size: 100000
  master list distance cutoff = 7.55
  ghost atom cutoff = 7.55
  binsize = 3.775, bins = 8 8 8
  2 neighbor lists, perpetual/occasional/extra = 1 1 0
  (1) pair eam, perpetual
      attributes: half, newton on
      pair build: half/bin/atomonly/newton
      stencil: half/bin/3d/newton
      bin: standard
  (2) compute rdf, occasional, copy from (1)
      attributes: half, newton on
      pair build: copy
      stencil: none
      bin: none
Setting up Verlet run ...
  Unit style    : metal
  Current step  : 0
  Time step     : 0.001
Per MPI rank memory allocation (min/avg/max) = 3.83 | 3.83 | 3.83 Mbytes
Step PotEng KinEng TotEng Temp Press Density c_msdall[4] 
       0      -3910.2    141.77253   -3768.4275          800     6452.726    10.472245            0 
     100   -3825.2204    78.623789   -3746.5966    443.66163     26323.68    10.472245  0.045285044 
     200   -3816.4857    123.15492   -3693.3308    694.94376    31032.495    10.472245  0.049929169 
     300   -3782.7664    144.86726   -3637.8992    817.46307    41080.819    10.472245  0.066828601 
     400   -3763.4938    156.05705   -3607.4368    880.60532    46807.571    10.472245  0.076196764 
     500   -3770.5108    147.54223   -3622.9686    832.55751    44580.922    10.472245   0.07442588 
     600   -3779.3502    141.76702   -3637.5832    799.96893    42067.516    10.472245  0.065747453 
     700   -3775.3623    147.95764   -3627.4046    834.90161    43475.748    10.472245  0.061639024 
     800   -3772.1114    151.09477   -3621.0167    852.60397    44404.257    10.472245  0.061548004 
     900    -3772.507    136.97728   -3635.5297    772.94116    43432.026    10.472245  0.067310961 
    1000   -3767.9669    147.24773   -3620.7192     830.8957    45460.558    10.472245  0.066607102 
    1100   -3766.1828    137.31893   -3628.8639    774.86907    45339.765    10.472245  0.069468476 
    1200   -3773.3618    137.49237   -3635.8694    775.84777    43585.236    10.472245   0.07209608 
    1300   -3764.9519    142.74099   -3622.2109    805.46486    45817.311    10.472245   0.07747347 
    1400   -3764.6355    149.02347    -3615.612    840.91594    46416.891    10.472245  0.071747774 
    1500   -3774.2215    137.12023   -3637.1013    773.74783    43165.269    10.472245  0.066647075 
    1600   -3773.7401    143.37166   -3630.3684    809.02367    43710.382    10.472245  0.064191673 
    1700   -3764.6961    144.08513    -3620.611    813.04966     46185.15    10.472245  0.067077774 
    1800   -3768.2526    143.08585   -3625.1668    807.41087    45146.689    10.472245  0.064459623 
    1900   -3776.2295    140.15164   -3636.0778    790.85358    42960.406    10.472245  0.063115033 
    2000   -3769.6571    143.17858   -3626.4785    807.93415    44794.014    10.472245  0.066690892 
    2100   -3763.6447    138.84576   -3624.7989    783.48469    46213.255    10.472245  0.070429992 
    2200   -3769.3856     138.7651   -3630.6205    783.02957    44869.185    10.472245  0.070294965 
    2300   -3765.3368    137.54205   -3627.7948    776.12807    45946.474    10.472245  0.069620059 
    2400   -3764.0943    140.38427     -3623.71    792.16629    46523.485    10.472245  0.065544076 
    2500   -3771.9209    137.06583   -3634.8551    773.44084    44267.983    10.472245  0.060939305 
    2600   -3772.8387    142.72545   -3630.1133     805.3772     43937.65    10.472245  0.061102802 
    2700   -3768.3787    146.43992   -3621.9387    826.33738    45511.206    10.472245  0.067335877 
    2800   -3762.6445    149.03418   -3613.6103    840.97634    47054.105    10.472245  0.073377269 
    2900    -3768.934    143.70041   -3625.2336    810.87875    45054.437    10.472245  0.074636315 
    3000   -3769.9496    140.19726   -3629.7523    791.11104    44657.365    10.472245  0.072193681 
    3100   -3767.7342    142.89636   -3624.8379    806.34162    45388.682    10.472245  0.069132108 
    3200   -3765.5762    142.89924    -3622.677    806.35786    45932.913    10.472245  0.068374062 
    3300   -3770.2118    139.94558   -3630.2662    789.69083    44413.764    10.472245  0.063712378 
    3400    -3774.498    136.55478   -3637.9432    770.55708    43269.174    10.472245   0.06208724 
    3500   -3771.7032    141.51789   -3630.1853    798.56314    44160.124    10.472245  0.065624421 
    3600   -3769.3058    144.85338   -3624.4525    817.38474    44828.154    10.472245  0.068394028 
    3700   -3770.2647    137.56371    -3632.701    776.25028    44409.863    10.472245  0.069241852 
    3800   -3773.4688    145.65465   -3627.8141    821.90621     44031.17    10.472245  0.064919247 
    3900    -3765.575    139.53403   -3626.0409    787.36853    45666.032    10.472245  0.065797394 
    4000   -3768.1887    140.56543   -3627.6233    793.18855    45216.058    10.472245  0.062178237 
    4100    -3776.144    139.53034   -3636.6136    787.34767    42905.993    10.472245  0.061344561 
    4200   -3765.9408     137.4192   -3628.5216    775.43487     45475.44    10.472245  0.067062634 
    4300   -3767.9176    140.40272   -3627.5149    792.27038    45013.852    10.472245  0.068956786 
    4400   -3770.4275     145.0922   -3625.3353    818.73239    44711.199    10.472245  0.069951264 
    4500   -3764.9449    145.73542   -3619.2095    822.36201    46085.535    10.472245  0.072011228 
    4600   -3769.6002    140.73036   -3628.8698     794.1192    44731.815    10.472245  0.068420391 
    4700   -3773.2762    142.53522   -3630.7409    804.30377    43805.109    10.472245  0.063585928 
    4800     -3770.24    146.91138   -3623.3286    828.99776    44805.807    10.472245  0.062342088 
    4900    -3767.999    141.73718   -3626.2619    799.80053    45188.476    10.472245  0.064882124 
    5000   -3770.5353     144.6669   -3625.8684    816.33251    44685.583    10.472245   0.06371961 
    5100   -3775.0117    141.56207   -3633.4496    798.81242    43383.973    10.472245  0.061968746 
    5200   -3770.2472    145.81655   -3624.4307    822.81981    44804.235    10.472245  0.064232619 
    5300   -3764.3552    139.48231   -3624.8729    787.07664    46096.234    10.472245  0.070124462 
    5400   -3773.8574    139.73705   -3634.1203     788.5141    43685.858    10.472245   0.06457399 
    5500   -3777.7052    147.54367   -3630.1616    832.56562    42944.951    10.472245  0.062100752 
    5600   -3763.6996    144.85721   -3618.8424    817.40641    46424.777    10.472245  0.067183143 
    5700   -3770.9228    141.64477   -3629.2781    799.27906    44506.415    10.472245  0.065176391 
    5800   -3772.4754    146.81791   -3625.6575    828.47028     44276.93    10.472245  0.063689214 
    5900   -3770.9989    143.91874   -3627.0801    812.11075    44398.923    10.472245  0.063328729 
    6000   -3772.5154    138.66966   -3633.8457      782.491    43936.373    10.472245  0.064527528 
    6100   -3768.0406    142.37591   -3625.6647    803.40479     45154.74    10.472245  0.067858691 
    6200   -3766.9878    143.00662   -3623.9811     806.9638    45448.831    10.472245  0.069585309 
    6300   -3771.7582    141.42918    -3630.329    798.06254    44352.707    10.472245  0.066515778 
    6400   -3774.5357    140.08581   -3634.4499    790.48215    43340.036    10.472245  0.063887957 
    6500   -3770.1524    145.51621   -3624.6362    821.12502    44887.011    10.472245  0.063025603 
    6600   -3769.7235    140.91915   -3628.8043    795.18455    44544.021    10.472245  0.064197015 
    6700   -3768.0392    145.80072   -3622.2385    822.73043    45200.656    10.472245  0.063858481 
    6800   -3770.1593    141.21047   -3628.9488    796.82841    44717.874    10.472245   0.06446523 
    6900   -3772.2533    138.36263   -3633.8907    780.75848    43868.551    10.472245  0.065353983 
    7000   -3761.8577     135.9506   -3625.9071    767.14779    46554.555    10.472245  0.071239795 
    7100   -3766.2775    142.25629   -3624.0212     802.7298    45514.803    10.472245  0.068238574 
    7200   -3773.4416    140.17469   -3633.2669    790.98367    43636.659    10.472245   0.06571363 
    7300   -3768.8091    144.45074   -3624.3584    815.11275    45014.621    10.472245  0.065700223 
    7400   -3768.7422    144.13599   -3624.6062    813.33666    45160.184    10.472245  0.064769279 
    7500   -3772.1067     138.2476   -3633.8591    780.10941    44116.521    10.472245  0.061060734 
    7600   -3772.9521    142.58364   -3630.3685    804.57699    44165.528    10.472245  0.059568231 
    7700   -3767.8829    139.27973   -3628.6032    785.93356    45122.797    10.472245  0.063792345 
    7800   -3767.6388    138.49836   -3629.1404    781.52436    45200.579    10.472245   0.06782945 
    7900   -3767.7819     146.6133   -3621.1686     827.3157    45285.819    10.472245  0.068249162 
    8000   -3772.2061    142.98694   -3629.2192    806.85272    44161.443    10.472245  0.064171668 
    8100    -3772.295    136.99019   -3635.3048    773.01404    43696.254    10.472245  0.063627274 
    8200    -3768.866    143.72158   -3625.1444    810.99821    44850.511    10.472245   0.06357755 
    8300   -3770.5511    139.74319   -3630.8079    788.54878    44630.841    10.472245  0.064221437 
    8400    -3770.873      144.036    -3626.837    812.77244    44495.308    10.472245  0.064458664 
    8500   -3764.4903    141.61753   -3622.8728    799.12536    45978.791    10.472245  0.070735106 
    8600   -3765.7176    141.49801   -3624.2196    798.45097    45936.263    10.472245  0.072642137 
    8700   -3770.2555    141.15111   -3629.1044    796.49345    44324.902    10.472245  0.070929776 
    8800   -3768.3993    148.58088   -3619.8185    838.41848     45552.93    10.472245  0.068346827 
    8900   -3766.6745    138.84265   -3627.8319    783.46714      45409.7    10.472245  0.068946661 
    9000   -3771.6853    138.20345   -3633.4819    779.86026    44252.246    10.472245  0.062863682 
    9100   -3774.7007    135.27341   -3639.4273    763.32653    43198.658    10.472245  0.061495856 
    9200   -3771.8372    144.17201   -3627.6652    813.53993    44371.691    10.472245  0.063478851 
    9300   -3769.7323    146.51291   -3623.2194    826.74923    44989.656    10.472245   0.06629517 
    9400   -3769.6096    136.45159    -3633.158    769.97477    44622.354    10.472245  0.071410737 
    9500   -3770.2847    144.82536   -3625.4593    817.22665    44650.098    10.472245  0.070597474 
    9600   -3768.0178    140.43825   -3627.5796     792.4709    45144.122    10.472245  0.067815664 
    9700   -3770.6732    135.66411   -3635.0091    765.53116    44309.568    10.472245  0.064707295 
    9800   -3769.0861    142.51791   -3626.5682    804.20609    45081.209    10.472245  0.062063446 
    9900   -3772.1306    143.47588   -3628.6547    809.61176    44227.245    10.472245  0.062485842 
   10000   -3774.6008    146.46408   -3628.1367    826.47371    43742.292    10.472245  0.063552615 
Loop time of 26.1121 on 1 procs for 10000 steps with 1372 atoms

Performance: 33.088 ns/day, 0.725 hours/ns, 382.965 timesteps/s
100.0% CPU use with 1 MPI tasks x no OpenMP threads

MPI task timing breakdown:
Section |  min time  |  avg time  |  max time  |%varavg| %total
---------------------------------------------------------------
Pair    | 17.799     | 17.799     | 17.799     |   0.0 | 68.16
Neigh   | 0          | 0          | 0          |   0.0 |  0.00
Comm    | 0.20028    | 0.20028    | 0.20028    |   0.0 |  0.77
Output  | 0.0051392  | 0.0051392  | 0.0051392  |   0.0 |  0.02
Modify  | 8.0127     | 8.0127     | 8.0127     |   0.0 | 30.69
Other   |            | 0.0947     |            |       |  0.36

Nlocal:    1372 ave 1372 max 1372 min
Histogram: 1 0 0 0 0 0 0 0 0 0
Nghost:    3258 ave 3258 max 3258 min
Histogram: 1 0 0 0 0 0 0 0 0 0
Neighs:    58996 ave 58996 max 58996 min
Histogram: 1 0 0 0 0 0 0 0 0 0

Total # of neighbors = 58996
Ave neighs/atom = 43
Neighbor list builds = 0
Dangerous builds = 0
Total wall time: 0:00:26
